* GENERATED BY CHARMM-GUI (HTTP://WWW.CHARMM-GUI.ORG) V3.7 ON OCT, 22. 2024. JOB
* INPUT GENERATION
*  DATE:    10/22/24     10:58:52      CREATED BY USER: apache
*
     43206  EXT
         1         1  CHL1      C3              1.2106586961        2.9614169445       17.3158827518  MEMB      1               0.0000000000
         2         1  CHL1      H3              0.3183637815        2.3084248333       17.1730923184  MEMB      1               0.0000000000
         3         1  CHL1      O3              1.2823790159        3.3462866870       18.6877176757  MEMB      1               0.0000000000
         4         1  CHL1      H3'             0.4534076647        3.8028515314       18.8701209398  MEMB      1               0.0000000000
         5         1  CHL1      C4              2.4944779677        2.2126658484       16.9063353352  MEMB      1               0.0000000000
         6         1  CHL1      H4A             3.3211844837        2.9194620373       17.1315070029  MEMB      1               0.0000000000
         7         1  CHL1      H4B             2.6442914449        1.3429134488       17.5748780614  MEMB      1               0.0000000000
         8         1  CHL1      C5              2.5864660987        1.8318855838       15.4387778694  MEMB      1               0.0000000000
         9         1  CHL1      C6              2.7251690916        0.5613534658       14.9819161310  MEMB      1               0.0000000000
        10         1  CHL1      H6              2.7773835857       -0.2713741240       15.6997367958  MEMB      1               0.0000000000
        11         1  CHL1      C7              2.9254229457        0.1885382871       13.5293464960  MEMB      1               0.0000000000
        12         1  CHL1      H7A             3.8051563598       -0.4769231495       13.3358289676  MEMB      1               0.0000000000
        13         1  CHL1      H7B             2.0758564985       -0.4146398888       13.1596880855  MEMB      1               0.0000000000
        14         1  CHL1      C8              3.1622614616        1.4553512624       12.6651257372  MEMB      1               0.0000000000
        15         1  CHL1      H8              4.2397576071        1.7199456124       12.7598999767  MEMB      1               0.0000000000
        16         1  CHL1      C14             2.7953602535        1.1492631124       11.2520041767  MEMB      1               0.0000000000
        17         1  CHL1      H14             1.6823567350        1.0912205164       11.1818745411  MEMB      1               0.0000000000
        18         1  CHL1      C15             3.2695496647       -0.1842217006       10.6984758655  MEMB      1               0.0000000000
        19         1  CHL1      H15A            4.3071800578       -0.4294533349       11.0244792990  MEMB      1               0.0000000000
        20         1  CHL1      H15B            2.6327897507       -1.0638314439       10.9092214829  MEMB      1               0.0000000000
        21         1  CHL1      C16             3.1749623017        0.1698419965        9.2358167554  MEMB      1               0.0000000000
        22         1  CHL1      H16A            4.2479722022        0.2602591759        8.9874738674  MEMB      1               0.0000000000
        23         1  CHL1      H16B            2.5881715109       -0.5531410403        8.6336168349  MEMB      1               0.0000000000
        24         1  CHL1      C17             2.8133641664        1.6111881486        8.9442228390  MEMB      1               0.0000000000
        25         1  CHL1      H17             1.7195697747        1.6249834111        8.8226999343  MEMB      1               0.0000000000
        26         1  CHL1      C13             3.2038922251        2.2454304847       10.2711811704  MEMB      1               0.0000000000
        27         1  CHL1      C18             4.7147705441        2.4118230076       10.3868363492  MEMB      1               0.0000000000
        28         1  CHL1      H18A            5.2537645905        1.4447091749       10.4856045725  MEMB      1               0.0000000000
        29         1  CHL1      H18B            5.0463251687        2.8947650133        9.4619942143  MEMB      1               0.0000000000
        30         1  CHL1      H18C            5.0475933647        3.0645314957       11.2180173122  MEMB      1               0.0000000000
        31         1  CHL1      C12             2.4651978238        3.5349219120       10.5645992882  MEMB      1               0.0000000000
        32         1  CHL1      H12A            2.8921299012        4.3689406772        9.9652724940  MEMB      1               0.0000000000
        33         1  CHL1      H12B            1.4045107437        3.4109709689       10.2700614648  MEMB      1               0.0000000000
        34         1  CHL1      C11             2.5259696681        3.8808276607       12.0544159039  MEMB      1               0.0000000000
        35         1  CHL1      H11A            3.5205640987        4.3488918076       12.1950762988  MEMB      1               0.0000000000
        36         1  CHL1      H11B            1.7389349827        4.6399845198       12.2324151078  MEMB      1               0.0000000000
        37         1  CHL1      C9              2.3365449592        2.6824310803       13.0494562515  MEMB      1               0.0000000000
        38         1  CHL1      H9              1.2793969049        2.3496425880       12.9137981015  MEMB      1               0.0000000000
        39         1  CHL1      C10             2.5000784197        3.0776280448       14.5393411933  MEMB      1               0.0000000000
        40         1  CHL1      C19             3.8268251580        3.8720408414       14.6899394643  MEMB      1               0.0000000000
        41         1  CHL1      H19A            3.8351303034        4.8000307539       14.0911616770  MEMB      1               0.0000000000
        42         1  CHL1      H19B            4.0313728016        4.2025104743       15.7241899602  MEMB      1               0.0000000000
        43         1  CHL1      H19C            4.6921182309        3.2476295136       14.3845334397  MEMB      1               0.0000000000
        44         1  CHL1      C1              1.2875142420        3.9751656370       14.9668963652  MEMB      1               0.0000000000
        45         1  CHL1      H1A             1.4031883808        4.9474652648       14.4402361191  MEMB      1               0.0000000000
        46         1  CHL1      H1B             0.3623957614        3.4896466981       14.5939966929  MEMB      1               0.0000000000
        47         1  CHL1      C2              1.0881735369        4.2373190647       16.4801969141  MEMB      1               0.0000000000
        48         1  CHL1      H2A             0.0882477430        4.6909529846       16.6556396677  MEMB      1               0.0000000000
        49         1  CHL1      H2B             1.8656034934        4.9458754506       16.8493018674  MEMB      1               0.0000000000
        50         1  CHL1      C20             3.3654565248        2.0486035086        7.5780235405  MEMB      1               0.0000000000
        51         1  CHL1      H20             4.4591644263        1.7848418093        7.6112576423  MEMB      1               0.0000000000
        52         1  CHL1      C21             3.2623396665        3.5313871870        7.2950205045  MEMB      1               0.0000000000
        53         1  CHL1      H21A            4.0160823138        4.1167936002        7.8537935298  MEMB      1               0.0000000000
        54         1  CHL1      H21B            2.2364589492        3.8041466941        7.5939331215  MEMB      1               0.0000000000
        55         1  CHL1      H21C            3.4081624135        3.7198424572        6.2065313603  MEMB      1               0.0000000000
        56         1  CHL1      C22             2.6036723304        1.3160548876        6.3905536853  MEMB      1               0.0000000000
        57         1  CHL1      H22A            2.4557992932        0.2552858770        6.6797062560  MEMB      1               0.0000000000
        58         1  CHL1      H22B            1.6592166246        1.7247699232        6.0428606388  MEMB      1               0.0000000000
        59         1  CHL1      C23             3.3815921216        1.3192861515        5.0801248324  MEMB      1               0.0000000000
        60         1  CHL1      H23A            3.6125471130        2.2921627471        4.6110700443  MEMB      1               0.0000000000
        61         1  CHL1      H23B            4.3192925452        1.4348019726        5.6881790514  MEMB      1               0.0000000000
        62         1  CHL1      C24             3.1987434780        0.0402696788        3.9974044874  MEMB      1               0.0000000000
        63         1  CHL1      H24A            3.1164470594       -0.8552708666        4.6000047183  MEMB      1               0.0000000000
        64         1  CHL1      H24B            2.2119389590        0.2183977355        3.5653911350  MEMB      1               0.0000000000
        65         1  CHL1      C25             4.2640826443       -0.6142400139        2.8205937086  MEMB      1               0.0000000000
        66         1  CHL1      H25             4.4783839152        0.3134822594        2.2373308083  MEMB      1               0.0000000000
        67         1  CHL1      C26             5.5829348967       -1.6636383065        3.0840562463  MEMB      1               0.0000000000
        68         1  CHL1      H26A            6.0290522769       -1.6858071345        2.1367209141  MEMB      1               0.0000000000
        69         1  CHL1      H26B            6.5766477495       -1.1893439842        3.2248050496  MEMB      1               0.0000000000
        70         1  CHL1      H26C            6.2851520534       -1.7453011273        3.8907114847  MEMB      1               0.0000000000
        71         1  CHL1      C27             3.7955123550       -1.6305244751        1.8757819215  MEMB      1               0.0000000000
        72         1  CHL1      H27A            2.9168282264       -1.2648845378        1.3569989355  MEMB      1               0.0000000000
        73         1  CHL1      H27B            4.6037185497       -1.8828027875        1.1273820037  MEMB      1               0.0000000000
        74         1  CHL1      H27C            3.6710295914       -2.4765111421        2.5977998520  MEMB      1               0.0000000000
        75         2  CHL1      C3             -2.7416504526       -3.3785439172       17.3035000833  MEMB      2               0.0000000000
        76         2  CHL1      H3             -3.4637691604       -2.5338252281       17.2130743264  MEMB      2               0.0000000000
        77         2  CHL1      O3             -2.4198116467       -3.5440631995       18.6778770524  MEMB      2               0.0000000000
        78         2  CHL1      H3'            -2.9441831297       -4.2713245025       19.0413502580  MEMB      2               0.0000000000
        79         2  CHL1      C4             -3.3727916261       -4.6468851668       16.6947703163  MEMB      2               0.0000000000
        80         2  CHL1      H4A            -2.6958416002       -5.5121001285       16.8288622299  MEMB      2               0.0000000000
        81         2  CHL1      H4B            -4.2899376854       -4.8723429980       17.2889165155  MEMB      2               0.0000000000
        82         2  CHL1      C5             -3.6370940510       -4.4778725188       15.2076898894  MEMB      2               0.0000000000
        83         2  CHL1      C6             -4.8463106435       -4.7296244808       14.6805228838  MEMB      2               0.0000000000
        84         2  CHL1      H6             -5.6364901167       -5.1335940885       15.3235803305  MEMB      2               0.0000000000
        85         2  CHL1      C7             -5.1759233637       -4.6176635059       13.2241810010  MEMB      2               0.0000000000
        86         2  CHL1      H7A            -5.7085115699       -5.5202703924       12.8516663602  MEMB      2               0.0000000000
        87         2  CHL1      H7B            -5.8415468616       -3.7451043875       13.0489363791  MEMB      2               0.0000000000
        88         2  CHL1      C8             -3.8880532838       -4.5091242435       12.3826111077  MEMB      2               0.0000000000
        89         2  CHL1      H8             -3.4184025669       -5.5180606255       12.3595312675  MEMB      2               0.0000000000
        90         2  CHL1      C14            -4.2624667378       -4.1241321528       10.9941366114  MEMB      2               0.0000000000
        91         2  CHL1      H14            -4.7900718969       -3.1296625597       11.0265949865  MEMB      2               0.0000000000
        92         2  CHL1      C15            -5.2210287135       -5.0787566315       10.3247614380  MEMB      2               0.0000000000
        93         2  CHL1      H15A           -5.0127372369       -6.1589473356       10.3905568224  MEMB      2               0.0000000000
        94         2  CHL1      H15B           -6.2822225853       -4.9325015249       10.6062947755  MEMB      2               0.0000000000
        95         2  CHL1      C16            -4.9139706622       -4.6010290490        8.9459666960  MEMB      2               0.0000000000
        96         2  CHL1      H16A           -5.0687133170       -5.3607854281        8.1578348232  MEMB      2               0.0000000000
        97         2  CHL1      H16B           -5.6201449312       -3.7775045748        8.9477943720  MEMB      2               0.0000000000
        98         2  CHL1      C17            -3.7636086882       -3.5919886842        8.7492343281  MEMB      2               0.0000000000
        99         2  CHL1      H17            -4.1550540712       -2.5362169428        8.8354459860  MEMB      2               0.0000000000
       100         2  CHL1      C13            -3.0809624761       -3.9380088456       10.0251019730  MEMB      2               0.0000000000
       101         2  CHL1      C18            -2.4002945998       -5.3014498156        9.7344177364  MEMB      2               0.0000000000
       102         2  CHL1      H18A           -1.6714427862       -5.2080448831        8.9126674069  MEMB      2               0.0000000000
       103         2  CHL1      H18B           -1.8619028635       -5.6764079505       10.6149216151  MEMB      2               0.0000000000
       104         2  CHL1      H18C           -3.1138585737       -6.0801443055        9.4009933309  MEMB      2               0.0000000000
       105         2  CHL1      C12            -2.1902319860       -2.8478731656       10.5805652619  MEMB      2               0.0000000000
       106         2  CHL1      H12A           -1.3103128262       -2.6957316481        9.9332552503  MEMB      2               0.0000000000
       107         2  CHL1      H12B           -2.7689717023       -1.8973665310       10.6474695343  MEMB      2               0.0000000000
       108         2  CHL1      C11            -1.7182737579       -3.2277832488       11.9748398414  MEMB      2               0.0000000000
       109         2  CHL1      H11A           -1.0786409031       -4.1285664333       11.8695906716  MEMB      2               0.0000000000
       110         2  CHL1      H11B           -1.0948115638       -2.3767775668       12.3093873117  MEMB      2               0.0000000000
       111         2  CHL1      C9             -2.8898910841       -3.5151838125       12.9555503969  MEMB      2               0.0000000000
       112         2  CHL1      H9             -3.4486431364       -2.5516331458       13.0524400191  MEMB      2               0.0000000000
       113         2  CHL1      C10            -2.4480265989       -3.9344842637       14.3761591583  MEMB      2               0.0000000000
       114         2  CHL1      C19            -1.3447260157       -5.0243434982       14.2661278301  MEMB      2               0.0000000000
       115         2  CHL1      H19A           -1.1055755647       -5.5036058227       15.2371899755  MEMB      2               0.0000000000
       116         2  CHL1      H19B           -1.6181642527       -5.8189637759       13.5439706566  MEMB      2               0.0000000000
       117         2  CHL1      H19C           -0.4078836636       -4.5351032806       13.9300256448  MEMB      2               0.0000000000
       118         2  CHL1      C1             -1.8284493658       -2.7008248760       15.0743462997  MEMB      2               0.0000000000
       119         2  CHL1      H1A            -0.9363955099       -2.3685233518       14.5009973831  MEMB      2               0.0000000000
       120         2  CHL1      H1B            -2.5683870153       -1.8726227008       15.0270745559  MEMB      2               0.0000000000
       121         2  CHL1      C2             -1.4707813644       -2.9902678939       16.5399548216  MEMB      2               0.0000000000
       122         2  CHL1      H2A            -1.0178370814       -2.1048085809       17.0274680542  MEMB      2               0.0000000000
       123         2  CHL1      H2B            -0.7455800731       -3.8320433893       16.6144211605  MEMB      2               0.0000000000
       124         2  CHL1      C20            -3.0212720043       -3.6867556861        7.3889450493  MEMB      2               0.0000000000
       125         2  CHL1      H20            -2.8393899919       -4.7702650469        7.1886918999  MEMB      2               0.0000000000
       126         2  CHL1      C21            -1.7170830686       -2.9257876009        7.3966871267  MEMB      2               0.0000000000
       127         2  CHL1      H21A           -1.9239170426       -1.9059971239        7.7793689851  MEMB      2               0.0000000000
       128         2  CHL1      H21B           -1.2580305897       -2.8676299646        6.3888451064  MEMB      2               0.0000000000
       129         2  CHL1      H21C           -1.0181937888       -3.4675542480        8.0542553649  MEMB      2               0.0000000000
       130         2  CHL1      C22            -3.8141450949       -3.1588413270        6.1911225423  MEMB      2               0.0000000000
       131         2  CHL1      H22A           -4.4466029530       -4.0067985349        6.3047483203  MEMB      2               0.0000000000
       132         2  CHL1      H22B           -4.3083541649       -2.1857521856        6.3850305497  MEMB      2               0.0000000000
       133         2  CHL1      C23            -3.3120278220       -3.4254647934        4.7579630436  MEMB      2               0.0000000000
       134         2  CHL1      H23A           -2.4624333929       -2.7618069531        4.5651693357  MEMB      2               0.0000000000
       135         2  CHL1      H23B           -3.0262530836       -4.5069004276        4.7031275768  MEMB      2               0.0000000000
       136         2  CHL1      C24            -4.2513469025       -3.1575005834        3.5726918140  MEMB      2               0.0000000000
       137         2  CHL1      H24A           -4.9477621181       -3.9790367778        3.5553143985  MEMB      2               0.0000000000
       138         2  CHL1      H24B           -4.8296594457       -2.2184022973        3.6997303985  MEMB      2               0.0000000000
       139         2  CHL1      C25            -3.5381676779       -3.1473920496        2.2027210645  MEMB      2               0.0000000000
       140         2  CHL1      H25            -2.8324418231       -2.2948537556        2.2615981799  MEMB      2               0.0000000000
       141         2  CHL1      C26            -2.7597112458       -4.4126220393        1.8506574391  MEMB      2               0.0000000000
       142         2  CHL1      H26A           -2.2473641095       -4.2446253491        0.8787059103  MEMB      2               0.0000000000
       143         2  CHL1      H26B           -1.9913994165       -4.6160710458        2.6189863093  MEMB      2               0.0000000000
       144         2  CHL1      H26C           -3.4376970118       -5.2864351925        1.7411860999  MEMB      2               0.0000000000
       145         2  CHL1      C27            -4.4901072724       -2.8758116124        1.0616260234  MEMB      2               0.0000000000
       146         2  CHL1      H27A           -5.2214848636       -2.1779786555        1.4469237971  MEMB      2               0.0000000000
       147         2  CHL1      H27B           -4.0250334554       -2.4750922528        0.1495682549  MEMB      2               0.0000000000
       148         2  CHL1      H27C           -5.0725396421       -3.7688323666        0.7631906690  MEMB      2               0.0000000000
       149         3  SAPC      N               4.0869314908       -3.5745571067       21.8136998790  MEMB      3               0.0000000000
       150         3  SAPC      C12             5.3991130900       -4.3740469808       21.7057894764  MEMB      3               0.0000000000
       151         3  SAPC      H12A            5.1880219480       -5.3675905612       22.0268972209  MEMB      3               0.0000000000
       152         3  SAPC      H12B            6.1506970418       -3.9482916808       22.3599394229  MEMB      3               0.0000000000
       153         3  SAPC      C13             3.1203809210       -4.0410424740       20.7729405743  MEMB      3               0.0000000000
       154         3  SAPC      H13A            2.9487230735       -5.1115669741       20.8151928453  MEMB      3               0.0000000000
       155         3  SAPC      H13B            2.1791219710       -3.5210194641       20.8182993393  MEMB      3               0.0000000000
       156         3  SAPC      H13C            3.5567042871       -3.8425055661       19.7829777745  MEMB      3               0.0000000000
       157         3  SAPC      C14             3.5207768559       -3.6775142645       23.1981815647  MEMB      3               0.0000000000
       158         3  SAPC      H14A            3.3399474348       -4.7009134614       23.4654741986  MEMB      3               0.0000000000
       159         3  SAPC      H14B            4.2080953835       -3.2494997299       23.9215557685  MEMB      3               0.0000000000
       160         3  SAPC      H14C            2.5943524998       -3.1230361670       23.3015444698  MEMB      3               0.0000000000
       161         3  SAPC      C15             4.3568115151       -2.1269858163       21.5787632891  MEMB      3               0.0000000000
       162         3  SAPC      H15A            4.9120672583       -1.7002159839       22.4063874229  MEMB      3               0.0000000000
       163         3  SAPC      H15B            4.9562320936       -2.0055430040       20.6742961172  MEMB      3               0.0000000000
       164         3  SAPC      H15C            3.4320496255       -1.5816504119       21.4832351751  MEMB      3               0.0000000000
       165         3  SAPC      C11             6.0989365325       -4.6456922765       20.3434903249  MEMB      3               0.0000000000
       166         3  SAPC      H11A            5.4151829230       -5.3374846569       19.7841313295  MEMB      3               0.0000000000
       167         3  SAPC      H11B            7.0392095142       -5.2291607676       20.5081111658  MEMB      3               0.0000000000
       168         3  SAPC      P               6.3529646364       -3.6455216854       18.0458205425  MEMB      3               0.0000000000
       169         3  SAPC      O13             7.2523633532       -4.7462379989       17.6264605112  MEMB      3               0.0000000000
       170         3  SAPC      O14             4.9021673186       -3.8066671616       17.7866135904  MEMB      3               0.0000000000
       171         3  SAPC      O12             6.4322021320       -3.4439878223       19.6319464834  MEMB      3               0.0000000000
       172         3  SAPC      O11             6.8278350904       -2.2879557853       17.4300255290  MEMB      3               0.0000000000
       173         3  SAPC      C1              7.3467863849       -1.2528417489       18.2436850283  MEMB      3               0.0000000000
       174         3  SAPC      HA              6.5484430546       -0.7301480516       18.7947207513  MEMB      3               0.0000000000
       175         3  SAPC      HB              8.1317659446       -1.6149597855       18.9623395570  MEMB      3               0.0000000000
       176         3  SAPC      C2              8.0489854431       -0.2516256495       17.3706696161  MEMB      3               0.0000000000
       177         3  SAPC      HS              7.9426793195        0.7817612139       17.7846421294  MEMB      3               0.0000000000
       178         3  SAPC      O21             7.6604235450       -0.2395496629       15.9956728483  MEMB      3               0.0000000000
       179         3  SAPC      C21             6.4715866152        0.2044026016       15.6837548094  MEMB      3               0.0000000000
       180         3  SAPC      O22             5.6621615269        0.7301529257       16.4245619848  MEMB      3               0.0000000000
       181         3  SAPC      C22             6.3374042791        0.0181438530       14.1995996533  MEMB      3               0.0000000000
       182         3  SAPC      H2R             6.4246732111       -1.0281823396       13.8597689898  MEMB      3               0.0000000000
       183         3  SAPC      H2S             5.3823702163        0.4705164799       13.9054127694  MEMB      3               0.0000000000
       184         3  SAPC      C3              9.5248618258       -0.6867978150       17.4380826388  MEMB      3               0.0000000000
       185         3  SAPC      HX             10.0694881187       -0.4544708791       18.3685678278  MEMB      3               0.0000000000
       186         3  SAPC      HY              9.8877593554       -0.0239989330       16.7020641015  MEMB      3               0.0000000000
       187         3  SAPC      O31             9.8785466718       -1.9683975322       17.0281995016  MEMB      3               0.0000000000
       188         3  SAPC      C31            10.2834055223       -1.9860875339       15.7902692416  MEMB      3               0.0000000000
       189         3  SAPC      O32            10.2382709287       -1.0571864086       14.9979489007  MEMB      3               0.0000000000
       190         3  SAPC      C32            10.8932013777       -3.3400053761       15.6369746597  MEMB      3               0.0000000000
       191         3  SAPC      H2X            10.1629103294       -3.9678992985       16.1762583428  MEMB      3               0.0000000000
       192         3  SAPC      H2Y            11.8762682791       -3.3731733836       16.1673225557  MEMB      3               0.0000000000
       193         3  SAPC      C23             7.4456013520        0.7981992692       13.5681615823  MEMB      3               0.0000000000
       194         3  SAPC      H3R             8.4745498146        0.7573852821       13.9590412834  MEMB      3               0.0000000000
       195         3  SAPC      H3S             7.1212655985        1.8248390115       13.5907649540  MEMB      3               0.0000000000
       196         3  SAPC      C24             7.4467759007        0.7685855994       12.1210578696  MEMB      3               0.0000000000
       197         3  SAPC      H4R             8.4139507593        1.3155893547       11.9565439512  MEMB      3               0.0000000000
       198         3  SAPC      H4S             6.5595213477        1.4018615780       11.8738015346  MEMB      3               0.0000000000
       199         3  SAPC      C25             7.3503643864       -0.4580365223       11.3519945844  MEMB      3               0.0000000000
       200         3  SAPC      H5R             6.3498618604       -0.6937836855       11.0144730469  MEMB      3               0.0000000000
       201         3  SAPC      C26             8.4190360265       -1.1258505738       10.9756994254  MEMB      3               0.0000000000
       202         3  SAPC      H6R             8.3426604716       -2.1295524478       10.5810052132  MEMB      3               0.0000000000
       203         3  SAPC      C27             9.7904784212       -0.7059968769       11.2943846393  MEMB      3               0.0000000000
       204         3  SAPC      H7R            10.4848579532       -1.5446596687       11.0585712543  MEMB      3               0.0000000000
       205         3  SAPC      H7S             9.8261872776       -0.5124226895       12.3804387097  MEMB      3               0.0000000000
       206         3  SAPC      C28            10.3376163805        0.5310077147       10.6879811113  MEMB      3               0.0000000000
       207         3  SAPC      H8R            10.5574348208        1.2907567039       11.4402771447  MEMB      3               0.0000000000
       208         3  SAPC      C29            10.6003551351        0.7714436977        9.4250601370  MEMB      3               0.0000000000
       209         3  SAPC      H9R            11.0499688018        1.7170383987        9.0726057259  MEMB      3               0.0000000000
       210         3  SAPC      C210           10.3193418904       -0.2346683170        8.4592270808  MEMB      3               0.0000000000
       211         3  SAPC      H10R            9.4846512751        0.1744031480        7.8666924327  MEMB      3               0.0000000000
       212         3  SAPC      H10S           10.0005462045       -1.1943117087        8.9068751401  MEMB      3               0.0000000000
       213         3  SAPC      C211           11.4978684498       -0.3315265065        7.6253735275  MEMB      3               0.0000000000
       214         3  SAPC      H11R           12.4330434478        0.2398607693        7.7349247244  MEMB      3               0.0000000000
       215         3  SAPC      C212           11.4127266596       -1.2637768936        6.7695386941  MEMB      3               0.0000000000
       216         3  SAPC      H12R           12.2373357038       -1.1577571302        6.0366507254  MEMB      3               0.0000000000
       217         3  SAPC      C213           10.1769778633       -2.1993536262        6.6681139564  MEMB      3               0.0000000000
       218         3  SAPC      H13R            9.8230069383       -2.5552786750        7.6445818373  MEMB      3               0.0000000000
       219         3  SAPC      H13S           10.3583671461       -3.2423158079        6.4718807292  MEMB      3               0.0000000000
       220         3  SAPC      C214            9.1081139927       -1.8673395774        5.6764400777  MEMB      3               0.0000000000
       221         3  SAPC      H14R            8.6924795647       -0.8980007488        5.9694303070  MEMB      3               0.0000000000
       222         3  SAPC      C215            8.7491740864       -2.4342775732        4.4734976846  MEMB      3               0.0000000000
       223         3  SAPC      H15R            8.1892770863       -1.7822306499        3.8475601678  MEMB      3               0.0000000000
       224         3  SAPC      C216            9.1440181331       -3.5784412572        3.5238499366  MEMB      3               0.0000000000
       225         3  SAPC      H16R            8.2866993709       -4.1766845265        3.1845673475  MEMB      3               0.0000000000
       226         3  SAPC      H16S            9.8392761113       -4.3550727453        3.9227992409  MEMB      3               0.0000000000
       227         3  SAPC      C217            9.8023622543       -3.1862220344        2.2011266569  MEMB      3               0.0000000000
       228         3  SAPC      H17R           10.1384003336       -4.0829997064        1.7878999535  MEMB      3               0.0000000000
       229         3  SAPC      H17S           10.8035523040       -2.8893061732        2.1067083441  MEMB      3               0.0000000000
       230         3  SAPC      C218            9.2847127099       -2.1783333719        1.2500568182  MEMB      3               0.0000000000
       231         3  SAPC      H18R            9.3790326416       -1.1153765514        1.6075084107  MEMB      3               0.0000000000
       232         3  SAPC      H18S            8.2131628914       -2.3104021503        1.0634296558  MEMB      3               0.0000000000
       233         3  SAPC      C219           10.1180112695       -2.4400337027       -0.0457371546  MEMB      3               0.0000000000
       234         3  SAPC      H19R           10.2777804936       -3.1897324328       -0.7767311004  MEMB      3               0.0000000000
       235         3  SAPC      H19S           11.1728105146       -2.3531627451       -0.2033904907  MEMB      3               0.0000000000
       236         3  SAPC      C220            9.4481538156       -2.0312156979       -1.0916813840  MEMB      3               0.0000000000
       237         3  SAPC      H20R            9.5704625309       -1.1455673389       -0.4214784093  MEMB      3               0.0000000000
       238         3  SAPC      H20S            8.3773133379       -1.8882964399       -1.2425360413  MEMB      3               0.0000000000
       239         3  SAPC      H20T           10.1958745548       -1.9335645926       -1.9509776037  MEMB      3               0.0000000000
       240         3  SAPC      C33            11.0824901038       -3.8221502831       14.2021024636  MEMB      3               0.0000000000
       241         3  SAPC      H3X            11.5807330235       -4.7953709788       14.2141413629  MEMB      3               0.0000000000
       242         3  SAPC      H3Y            11.8732701569       -3.2760978609       13.7542528697  MEMB      3               0.0000000000
       243         3  SAPC      C34             9.8524646053       -3.8580506799       13.2998608361  MEMB      3               0.0000000000
       244         3  SAPC      H4X            10.2593841846       -3.9889436949       12.2699015639  MEMB      3               0.0000000000
       245         3  SAPC      H4Y             9.2935581856       -2.8938836944       13.2834816609  MEMB      3               0.0000000000
       246         3  SAPC      C35             9.0209574034       -5.1013504781       13.6489168980  MEMB      3               0.0000000000
       247         3  SAPC      H5X             8.8025197368       -5.1288011280       14.7400936393  MEMB      3               0.0000000000
       248         3  SAPC      H5Y             9.6713971950       -5.9751800504       13.4241115409  MEMB      3               0.0000000000
       249         3  SAPC      C36             7.6670752263       -5.2184808822       12.9399892818  MEMB      3               0.0000000000
       250         3  SAPC      H6X             7.0731708579       -4.3263343062       13.2439337009  MEMB      3               0.0000000000
       251         3  SAPC      H6Y             7.0944548272       -6.0915830584       13.3288202262  MEMB      3               0.0000000000
       252         3  SAPC      C37             7.8089589635       -5.3923144618       11.4209873610  MEMB      3               0.0000000000
       253         3  SAPC      H7X             8.2509000600       -6.3965707716       11.2302712056  MEMB      3               0.0000000000
       254         3  SAPC      H7Y             8.5048187899       -4.6147248525       11.0406306495  MEMB      3               0.0000000000
       255         3  SAPC      C38             6.4655221580       -5.2942021250       10.6848502131  MEMB      3               0.0000000000
       256         3  SAPC      H8X             6.0238749766       -4.3163075334       10.9711522308  MEMB      3               0.0000000000
       257         3  SAPC      H8Y             5.7964432737       -6.0984568321       11.0637945782  MEMB      3               0.0000000000
       258         3  SAPC      C39             6.5199886277       -5.3821240655        9.1471149536  MEMB      3               0.0000000000
       259         3  SAPC      H9X             5.4688082975       -5.3866718671        8.7737450481  MEMB      3               0.0000000000
       260         3  SAPC      H9Y             6.9873208671       -6.3413335208        8.8268776835  MEMB      3               0.0000000000
       261         3  SAPC      C310            7.3245261963       -4.2412045153        8.5064867596  MEMB      3               0.0000000000
       262         3  SAPC      H10X            7.5057927054       -4.4491306230        7.4250164946  MEMB      3               0.0000000000
       263         3  SAPC      H10Y            8.3073969138       -4.1864919152        9.0037159777  MEMB      3               0.0000000000
       264         3  SAPC      C311            6.6819513148       -2.8785189222        8.5941640712  MEMB      3               0.0000000000
       265         3  SAPC      H11X            7.3616741367       -2.0852907989        8.1832233903  MEMB      3               0.0000000000
       266         3  SAPC      H11Y            6.3765749293       -2.5460596373        9.6143670513  MEMB      3               0.0000000000
       267         3  SAPC      C312            5.4697555411       -2.8616616062        7.7371793586  MEMB      3               0.0000000000
       268         3  SAPC      H12X            4.5903854460       -3.4343967914        8.1228418376  MEMB      3               0.0000000000
       269         3  SAPC      H12Y            5.6537693372       -3.1171535411        6.6759379383  MEMB      3               0.0000000000
       270         3  SAPC      C313            5.0928993344       -1.4715028365        7.7993057827  MEMB      3               0.0000000000
       271         3  SAPC      H13X            5.7811587477       -0.7234595953        8.2812479723  MEMB      3               0.0000000000
       272         3  SAPC      H13Y            4.1516432825       -1.6121213244        8.3435847993  MEMB      3               0.0000000000
       273         3  SAPC      C314            4.7310536712       -0.9319675977        6.5068057651  MEMB      3               0.0000000000
       274         3  SAPC      H14X            4.3518882409       -0.0231993248        6.8780051824  MEMB      3               0.0000000000
       275         3  SAPC      H14Y            3.8943877921       -1.5779339435        6.1279014485  MEMB      3               0.0000000000
       276         3  SAPC      C315            6.0236499977       -0.4885715784        5.7343721471  MEMB      3               0.0000000000
       277         3  SAPC      H15X            6.2733538241       -1.5544579928        5.6084492781  MEMB      3               0.0000000000
       278         3  SAPC      H15Y            6.7345272859        0.0578696432        6.3167667836  MEMB      3               0.0000000000
       279         3  SAPC      C316            5.9995716631        0.5435123164        4.5112631020  MEMB      3               0.0000000000
       280         3  SAPC      H16X            5.2631482653        1.2244763117        4.1532651095  MEMB      3               0.0000000000
       281         3  SAPC      H16Y            5.2472475342       -0.1355466805        4.6780118331  MEMB      3               0.0000000000
       282         3  SAPC      C317            6.6696289829        0.9754685901        3.0593239691  MEMB      3               0.0000000000
       283         3  SAPC      H17X            7.6517742806        1.0695083676        3.5047974510  MEMB      3               0.0000000000
       284         3  SAPC      H17Y            6.1380019155        1.9494078731        2.7921068925  MEMB      3               0.0000000000
       285         3  SAPC      C318            6.8233868460        0.3862254691        1.5969133699  MEMB      3               0.0000000000
       286         3  SAPC      H18X            7.2623722390       -0.5976411225        1.5337657137  MEMB      3               0.0000000000
       287         3  SAPC      H18Y            7.7898779962        0.4463710771        1.1855177892  MEMB      3               0.0000000000
       288         3  SAPC      H18Z            5.9517682271        0.2326920923        0.9291998655  MEMB      3               0.0000000000
       289         4  CHL1      C3             -6.3280847282        3.3805998990       17.4233987843  MEMB      4               0.0000000000
       290         4  CHL1      H3             -5.2477341769        3.2875160621       17.6703581323  MEMB      4               0.0000000000
       291         4  CHL1      O3             -7.0108654060        3.7277165543       18.6088134761  MEMB      4               0.0000000000
       292         4  CHL1      H3'            -6.8400231318        2.9951337286       19.2286010412  MEMB      4               0.0000000000
       293         4  CHL1      C4             -6.5652446942        4.4980131266       16.3928906801  MEMB      4               0.0000000000
       294         4  CHL1      H4A            -7.6331447522        4.7949079625       16.4666709266  MEMB      4               0.0000000000
       295         4  CHL1      H4B            -5.9783925251        5.3832538461       16.7237370970  MEMB      4               0.0000000000
       296         4  CHL1      C5             -6.2629455681        4.1528102100       14.9528371913  MEMB      4               0.0000000000
       297         4  CHL1      C6             -5.4979406545        4.9582776482       14.2062397172  MEMB      4               0.0000000000
       298         4  CHL1      H6             -5.0863982178        5.8675701905       14.6599897312  MEMB      4               0.0000000000
       299         4  CHL1      C7             -5.2375554034        4.7528071806       12.7436945219  MEMB      4               0.0000000000
       300         4  CHL1      H7A            -5.4592056964        5.6934598041       12.2033545315  MEMB      4               0.0000000000
       301         4  CHL1      H7B            -4.1574976540        4.5486000875       12.5884544585  MEMB      4               0.0000000000
       302         4  CHL1      C8             -6.1400119520        3.6087417067       12.1807551065  MEMB      4               0.0000000000
       303         4  CHL1      H8             -7.1887805114        3.9723079712       12.1398128194  MEMB      4               0.0000000000
       304         4  CHL1      C14            -5.6913329561        3.1336476473       10.8170810504  MEMB      4               0.0000000000
       305         4  CHL1      H14            -4.6738109128        2.6997181350       11.0018886171  MEMB      4               0.0000000000
       306         4  CHL1      C15            -5.4611448500        4.1560861168        9.6927924086  MEMB      4               0.0000000000
       307         4  CHL1      H15A           -6.2544105928        4.9241251706        9.5996987750  MEMB      4               0.0000000000
       308         4  CHL1      H15B           -4.4738305417        4.6279893605        9.8748042084  MEMB      4               0.0000000000
       309         4  CHL1      C16            -5.4237003475        3.2913694590        8.4333992661  MEMB      4               0.0000000000
       310         4  CHL1      H16A           -6.1713687797        3.6160981032        7.6766054305  MEMB      4               0.0000000000
       311         4  CHL1      H16B           -4.4166212432        3.3832856788        7.9778453854  MEMB      4               0.0000000000
       312         4  CHL1      C17            -5.7975870171        1.8432140408        8.8885472044  MEMB      4               0.0000000000
       313         4  CHL1      H17            -4.8500782795        1.2765305738        9.0909737680  MEMB      4               0.0000000000
       314         4  CHL1      C13            -6.4962657802        1.9909289918       10.2146254217  MEMB      4               0.0000000000
       315         4  CHL1      C18            -7.9715062495        2.4121325374        9.9933757053  MEMB      4               0.0000000000
       316         4  CHL1      H18A           -8.0550465216        3.3752557689        9.4520526403  MEMB      4               0.0000000000
       317         4  CHL1      H18B           -8.4911499388        1.6388343806        9.4010177538  MEMB      4               0.0000000000
       318         4  CHL1      H18C           -8.5158778463        2.5028073030       10.9532542670  MEMB      4               0.0000000000
       319         4  CHL1      C12            -6.3190140420        0.7688506560       11.1046508663  MEMB      4               0.0000000000
       320         4  CHL1      H12A           -6.9366443356       -0.0863449842       10.7589542348  MEMB      4               0.0000000000
       321         4  CHL1      H12B           -5.2481326742        0.4641949240       11.1130710268  MEMB      4               0.0000000000
       322         4  CHL1      C11            -6.7231354121        1.1104851934       12.5215705550  MEMB      4               0.0000000000
       323         4  CHL1      H11A           -7.8294815895        1.1690715218       12.5001491047  MEMB      4               0.0000000000
       324         4  CHL1      H11B           -6.4035840321        0.2405151168       13.1224071366  MEMB      4               0.0000000000
       325         4  CHL1      C9             -6.1314403314        2.4128534959       13.1237628686  MEMB      4               0.0000000000
       326         4  CHL1      H9             -5.0470416970        2.2103473475       13.3297461499  MEMB      4               0.0000000000
       327         4  CHL1      C10            -6.7841018752        2.7921212490       14.4637406983  MEMB      4               0.0000000000
       328         4  CHL1      C19            -8.3396120539        2.7819181671       14.3726895640  MEMB      4               0.0000000000
       329         4  CHL1      H19A           -8.7688590118        3.3288549582       15.2320083569  MEMB      4               0.0000000000
       330         4  CHL1      H19B           -8.7611444056        3.1894547109       13.4340092490  MEMB      4               0.0000000000
       331         4  CHL1      H19C           -8.7309243021        1.7576937691       14.4674001088  MEMB      4               0.0000000000
       332         4  CHL1      C1             -6.3182069536        1.7594208015       15.5098296962  MEMB      4               0.0000000000
       333         4  CHL1      H1A            -6.6094295997        0.7461062409       15.1985581321  MEMB      4               0.0000000000
       334         4  CHL1      H1B            -5.2100826827        1.7706212643       15.4947594946  MEMB      4               0.0000000000
       335         4  CHL1      C2             -6.8566282737        2.0396323401       16.9168779830  MEMB      4               0.0000000000
       336         4  CHL1      H2A            -6.5707521044        1.2224212843       17.6077242828  MEMB      4               0.0000000000
       337         4  CHL1      H2B            -7.9700145650        2.0550242895       16.8901084908  MEMB      4               0.0000000000
       338         4  CHL1      C20            -6.4469363074        1.0758700157        7.7828751349  MEMB      4               0.0000000000
       339         4  CHL1      H20            -7.3032268826        1.6282702577        7.3280923256  MEMB      4               0.0000000000
       340         4  CHL1      C21            -6.9962467235       -0.3161519253        8.1711500811  MEMB      4               0.0000000000
       341         4  CHL1      H21A           -7.2874662406       -0.8691348944        7.2666257630  MEMB      4               0.0000000000
       342         4  CHL1      H21B           -7.9365383935       -0.2379830577        8.7498508677  MEMB      4               0.0000000000
       343         4  CHL1      H21C           -6.2461257304       -0.9148313936        8.7303020322  MEMB      4               0.0000000000
       344         4  CHL1      C22            -5.2984837005        0.9979891351        6.7953341827  MEMB      4               0.0000000000
       345         4  CHL1      H22A           -4.6669828988        1.8801479089        6.5935244762  MEMB      4               0.0000000000
       346         4  CHL1      H22B           -4.7000434931        0.0643293309        6.9809213504  MEMB      4               0.0000000000
       347         4  CHL1      C23            -5.8294001085        0.9408956421        5.4521827814  MEMB      4               0.0000000000
       348         4  CHL1      H23A           -4.9611701010        0.5106527443        4.9037991573  MEMB      4               0.0000000000
       349         4  CHL1      H23B           -6.3621181008        0.0240539243        5.6678342631  MEMB      4               0.0000000000
       350         4  CHL1      C24            -6.7155245841        2.1590712202        4.8500063649  MEMB      4               0.0000000000
       351         4  CHL1      H24A           -7.6124484841        2.3768578837        5.4280548713  MEMB      4               0.0000000000
       352         4  CHL1      H24B           -5.9706282489        2.9888372890        4.7387755871  MEMB      4               0.0000000000
       353         4  CHL1      C25            -7.3832774268        2.1507669933        3.3966074296  MEMB      4               0.0000000000
       354         4  CHL1      H25            -6.3958293435        1.9189514128        2.9148816166  MEMB      4               0.0000000000
       355         4  CHL1      C26            -8.7193730587        1.5971523721        2.8594311050  MEMB      4               0.0000000000
       356         4  CHL1      H26A           -9.5379197561        1.7196808764        3.5644953738  MEMB      4               0.0000000000
       357         4  CHL1      H26B           -9.1486987836        1.0751868671        1.9750014888  MEMB      4               0.0000000000
       358         4  CHL1      H26C           -8.5268427167        0.5969695285        2.5984829215  MEMB      4               0.0000000000
       359         4  CHL1      C27            -8.1987646245        3.1000414382        2.8193904820  MEMB      4               0.0000000000
       360         4  CHL1      H27A           -7.2719257248        3.4106071417        2.8785302295  MEMB      4               0.0000000000
       361         4  CHL1      H27B           -8.1303143180        3.1884393328        1.7811132785  MEMB      4               0.0000000000
       362         4  CHL1      H27C           -8.9131686499        3.7421441968        3.2948412023  MEMB      4               0.0000000000
       363         5  SLPC      N              10.9941930857        2.4681925152       18.6271699997  MEMB      5               0.0000000000
       364         5  SLPC      C13             9.9192928230        3.2573757534       19.2570248303  MEMB      5               0.0000000000
       365         5  SLPC      H13A            9.3518488928        3.7926977032       18.4866263714  MEMB      5               0.0000000000
       366         5  SLPC      H13B            9.1728260039        2.6170821140       19.7159604822  MEMB      5               0.0000000000
       367         5  SLPC      H13C           10.3482161553        3.9281146178       19.9691012056  MEMB      5               0.0000000000
       368         5  SLPC      C14            11.5525507715        1.4421895941       19.5706175947  MEMB      5               0.0000000000
       369         5  SLPC      H14A           10.8022165844        0.7500736952       19.9594720082  MEMB      5               0.0000000000
       370         5  SLPC      H14B           12.2850930386        0.8112590307       19.0648128330  MEMB      5               0.0000000000
       371         5  SLPC      H14C           12.0127856306        1.9447846521       20.4053405852  MEMB      5               0.0000000000
       372         5  SLPC      C15            12.0378567513        3.2179580523       17.9245490590  MEMB      5               0.0000000000
       373         5  SLPC      H15A           12.6158492294        2.5011632544       17.3176477828  MEMB      5               0.0000000000
       374         5  SLPC      H15B           11.5582858248        3.8985600686       17.2091280572  MEMB      5               0.0000000000
       375         5  SLPC      H15C           12.6491830298        3.7078234423       18.6422805740  MEMB      5               0.0000000000
       376         5  SLPC      C12            10.4050256540        1.8088579813       17.5089918236  MEMB      5               0.0000000000
       377         5  SLPC      H12A            9.5546967605        1.3062712708       17.9694485175  MEMB      5               0.0000000000
       378         5  SLPC      H12B           11.0830263758        1.0004886500       17.2183777575  MEMB      5               0.0000000000
       379         5  SLPC      C11             9.7596572891        2.3110333468       16.1977790193  MEMB      5               0.0000000000
       380         5  SLPC      H11A            9.5452057159        1.4387195363       15.5225516743  MEMB      5               0.0000000000
       381         5  SLPC      H11B           10.4393156942        2.9427998285       15.6144644312  MEMB      5               0.0000000000
       382         5  SLPC      P               7.7134538307        3.9449953272       15.7569734116  MEMB      5               0.0000000000
       383         5  SLPC      O13             7.0489334673        3.5619492673       14.5360755023  MEMB      5               0.0000000000
       384         5  SLPC      O14             6.8307609678        4.6181937345       16.7232638325  MEMB      5               0.0000000000
       385         5  SLPC      O12             8.5061771342        2.8367973463       16.5393819905  MEMB      5               0.0000000000
       386         5  SLPC      O11             8.8852494486        4.8392858541       15.2368159706  MEMB      5               0.0000000000
       387         5  SLPC      C1              8.7522660724        6.1923879736       15.6216782460  MEMB      5               0.0000000000
       388         5  SLPC      HA              7.7754379808        6.6186086019       15.2910944748  MEMB      5               0.0000000000
       389         5  SLPC      HB              8.7972418266        6.2402941544       16.7323284216  MEMB      5               0.0000000000
       390         5  SLPC      C2              9.9526196044        6.9917130549       15.0966768635  MEMB      5               0.0000000000
       391         5  SLPC      HS              9.8459147466        8.0284289656       15.5141213138  MEMB      5               0.0000000000
       392         5  SLPC      O21            10.0381101213        6.9683194351       13.6604516432  MEMB      5               0.0000000000
       393         5  SLPC      C21             9.1596429904        7.7794817055       13.1500536341  MEMB      5               0.0000000000
       394         5  SLPC      O22             8.5288125046        8.6021556129       13.7763635183  MEMB      5               0.0000000000
       395         5  SLPC      C22             9.2474520579        7.7670770680       11.6312952907  MEMB      5               0.0000000000
       396         5  SLPC      H2R             9.3020688893        8.8613416365       11.4705484950  MEMB      5               0.0000000000
       397         5  SLPC      H2S            10.2290848856        7.3183123147       11.3758576890  MEMB      5               0.0000000000
       398         5  SLPC      C3             11.2558447835        6.4028733444       15.6725766699  MEMB      5               0.0000000000
       399         5  SLPC      HX             11.0424179381        6.2607060810       16.7490653501  MEMB      5               0.0000000000
       400         5  SLPC      HY             12.0369172345        7.1600277537       15.6331709571  MEMB      5               0.0000000000
       401         5  SLPC      O31            11.6416707909        5.1233323301       15.1188311081  MEMB      5               0.0000000000
       402         5  SLPC      C31            12.3288738451        5.0714470235       13.9917350734  MEMB      5               0.0000000000
       403         5  SLPC      O32            12.8926691800        5.9774116958       13.4245152378  MEMB      5               0.0000000000
       404         5  SLPC      C32            12.3534029553        3.6629594930       13.4582131063  MEMB      5               0.0000000000
       405         5  SLPC      H2X            11.9488801215        2.9309653855       14.1760876152  MEMB      5               0.0000000000
       406         5  SLPC      H2Y            13.4178252000        3.4131014147       13.2809926993  MEMB      5               0.0000000000
       407         5  SLPC      C23             8.1007368750        7.0859646054       10.7938852277  MEMB      5               0.0000000000
       408         5  SLPC      H3R             7.1149800262        7.5012578234       10.9716916437  MEMB      5               0.0000000000
       409         5  SLPC      H3S             8.1154969764        6.0231801770       11.0295117617  MEMB      5               0.0000000000
       410         5  SLPC      C24             7.9334084460        7.1872634612        9.2733804065  MEMB      5               0.0000000000
       411         5  SLPC      H4R             7.6894717186        8.2432000947        9.0916026277  MEMB      5               0.0000000000
       412         5  SLPC      H4S             7.0915056458        6.6693783172        8.8023045497  MEMB      5               0.0000000000
       413         5  SLPC      C25             9.0259094755        6.5846921819        8.4715690156  MEMB      5               0.0000000000
       414         5  SLPC      H5R             9.9389277401        6.0291643301        8.7671182325  MEMB      5               0.0000000000
       415         5  SLPC      H5S             9.6083645921        7.2220425587        8.9955112592  MEMB      5               0.0000000000
       416         5  SLPC      C26             9.0288961644        6.9997968367        7.0622479659  MEMB      5               0.0000000000
       417         5  SLPC      H6R             8.7815350807        7.9710221487        6.6084879172  MEMB      5               0.0000000000
       418         5  SLPC      H6S             8.1023473548        6.7203406550        6.5395111545  MEMB      5               0.0000000000
       419         5  SLPC      C27            10.4015556635        6.4906834710        6.6632013231  MEMB      5               0.0000000000
       420         5  SLPC      H7R             9.9261834250        6.7042220542        5.6832782323  MEMB      5               0.0000000000
       421         5  SLPC      H7S            10.3805116458        5.4433732604        6.5041093475  MEMB      5               0.0000000000
       422         5  SLPC      C28            11.8881202876        7.0255737689        7.2580436666  MEMB      5               0.0000000000
       423         5  SLPC      H8R            12.1374158702        6.8418592754        8.2677378428  MEMB      5               0.0000000000
       424         5  SLPC      H8S            12.3258734897        8.0699393602        7.3206615922  MEMB      5               0.0000000000
       425         5  SLPC      C29            13.1291588289        6.7849938031        6.7157809998  MEMB      5               0.0000000000
       426         5  SLPC      H9R            13.1694726181        7.5501525011        5.9155549132  MEMB      5               0.0000000000
       427         5  SLPC      C210           13.8559839805        5.6605776485        6.8425830075  MEMB      5               0.0000000000
       428         5  SLPC      H10R           14.4171530148        5.2194765983        5.9967187030  MEMB      5               0.0000000000
       429         5  SLPC      C211           13.3817042569        4.5723972287        7.6103640666  MEMB      5               0.0000000000
       430         5  SLPC      H11R           13.4234559997        5.1640302846        8.5261769353  MEMB      5               0.0000000000
       431         5  SLPC      H11S           14.1775328530        3.8294144136        7.4880541880  MEMB      5               0.0000000000
       432         5  SLPC      C212           12.0152892646        4.0085290322        7.4574758400  MEMB      5               0.0000000000
       433         5  SLPC      H12R           11.3049925736        4.5572453203        8.0923558206  MEMB      5               0.0000000000
       434         5  SLPC      C213           11.5888224971        3.0119194812        6.6826628430  MEMB      5               0.0000000000
       435         5  SLPC      H13R           10.5143012894        2.7738821107        6.7023032213  MEMB      5               0.0000000000
       436         5  SLPC      C214           12.4507828012        2.2042597200        5.7553259259  MEMB      5               0.0000000000
       437         5  SLPC      H14R           12.6328443839        1.2043512997        6.1491668032  MEMB      5               0.0000000000
       438         5  SLPC      H14S           13.4723774473        2.6056825643        5.6082572310  MEMB      5               0.0000000000
       439         5  SLPC      C215           11.7759579881        1.9295296416        4.4371754646  MEMB      5               0.0000000000
       440         5  SLPC      H15R           10.7526822213        1.4926282938        4.5563397090  MEMB      5               0.0000000000
       441         5  SLPC      H15S           12.4104320056        1.2257161621        3.8950627437  MEMB      5               0.0000000000
       442         5  SLPC      C216           11.6112998190        3.1247806991        3.5584855769  MEMB      5               0.0000000000
       443         5  SLPC      H16R           11.0806019475        3.8958016446        4.1450282107  MEMB      5               0.0000000000
       444         5  SLPC      H16S           11.0133730510        2.6873643140        2.7870780309  MEMB      5               0.0000000000
       445         5  SLPC      C217           12.8172105181        3.5992402079        2.7801423479  MEMB      5               0.0000000000
       446         5  SLPC      H17R           13.2984568697        2.8837910631        2.1089793501  MEMB      5               0.0000000000
       447         5  SLPC      H17S           13.5439874475        3.6576672525        3.6133885727  MEMB      5               0.0000000000
       448         5  SLPC      C218           12.4913547445        4.8362350693        1.9173434444  MEMB      5               0.0000000000
       449         5  SLPC      H18R           11.5723752287        5.2806348364        2.3294455396  MEMB      5               0.0000000000
       450         5  SLPC      H18S           12.1784881220        4.6796016376        0.8875836575  MEMB      5               0.0000000000
       451         5  SLPC      H18T           13.3033426514        5.6040894931        1.9098095884  MEMB      5               0.0000000000
       452         5  SLPC      C33            11.6837767212        3.5907595957       12.0721934751  MEMB      5               0.0000000000
       453         5  SLPC      H3X            11.9331084170        2.5581172143       11.7852296129  MEMB      5               0.0000000000
       454         5  SLPC      H3Y            12.2584078250        4.2088461649       11.3490870361  MEMB      5               0.0000000000
       455         5  SLPC      C34            10.1286530002        3.7464842258       12.0415556703  MEMB      5               0.0000000000
       456         5  SLPC      H4X             9.7618205447        4.7243688095       12.3893282107  MEMB      5               0.0000000000
       457         5  SLPC      H4Y             9.7245315887        2.9973805421       12.7625262389  MEMB      5               0.0000000000
       458         5  SLPC      C35             9.4941868882        3.5718373747       10.6390407334  MEMB      5               0.0000000000
       459         5  SLPC      H5X            10.0560320710        2.8007299228       10.2191570975  MEMB      5               0.0000000000
       460         5  SLPC      H5Y             9.7110864026        4.3502497259        9.9134505453  MEMB      5               0.0000000000
       461         5  SLPC      C36             8.0057489597        3.3099240805       10.4426615205  MEMB      5               0.0000000000
       462         5  SLPC      H6X             7.3850710555        4.0312054771       10.9876016144  MEMB      5               0.0000000000
       463         5  SLPC      H6Y             7.6005120938        2.5402403008       10.9446544766  MEMB      5               0.0000000000
       464         5  SLPC      C37             7.5708907366        2.6709792180        9.1089067273  MEMB      5               0.0000000000
       465         5  SLPC      H7X             6.7130004489        1.9771877401        9.1821210357  MEMB      5               0.0000000000
       466         5  SLPC      H7Y             8.2938600154        1.9612808241        8.6783403440  MEMB      5               0.0000000000
       467         5  SLPC      C38             7.1982838856        3.8782454599        8.3317741101  MEMB      5               0.0000000000
       468         5  SLPC      H8X             8.1602702185        4.3957341366        8.1515407657  MEMB      5               0.0000000000
       469         5  SLPC      H8Y             6.5458602748        4.5154965660        8.9692097119  MEMB      5               0.0000000000
       470         5  SLPC      C39             6.5616899362        3.6381201829        7.0190805194  MEMB      5               0.0000000000
       471         5  SLPC      H9X             5.8412764806        4.4700954627        6.8315441923  MEMB      5               0.0000000000
       472         5  SLPC      H9Y             5.9996256124        2.6873130749        6.9617811560  MEMB      5               0.0000000000
       473         5  SLPC      C310            7.7053935067        3.6817946624        6.0472506926  MEMB      5               0.0000000000
       474         5  SLPC      H10X            8.5095279118        2.9353828465        6.2153185718  MEMB      5               0.0000000000
       475         5  SLPC      H10Y            8.0281454476        4.7217805334        5.8665684999  MEMB      5               0.0000000000
       476         5  SLPC      C311            7.2262938923        3.2773723759        4.7933394305  MEMB      5               0.0000000000
       477         5  SLPC      H11X            6.2183987338        3.5537906823        4.6875832975  MEMB      5               0.0000000000
       478         5  SLPC      H11Y            6.7804800849        2.3875405502        4.9187322428  MEMB      5               0.0000000000
       479         5  SLPC      C312            8.0939417977        3.5667288576        3.6325683203  MEMB      5               0.0000000000
       480         5  SLPC      H12X            7.3416713592        3.3703104410        2.8430479291  MEMB      5               0.0000000000
       481         5  SLPC      H12Y            8.8435184546        2.7470933373        3.6882833518  MEMB      5               0.0000000000
       482         5  SLPC      C313            8.8741828295        4.9135966155        3.3665417595  MEMB      5               0.0000000000
       483         5  SLPC      H13X            9.5356480346        4.8734614775        2.4812956251  MEMB      5               0.0000000000
       484         5  SLPC      H13Y            9.4415207313        4.7802332959        4.2959778161  MEMB      5               0.0000000000
       485         5  SLPC      C314            8.3171961451        6.3784041506        3.6285342485  MEMB      5               0.0000000000
       486         5  SLPC      H14X            9.3309564994        6.5600129176        3.9298372404  MEMB      5               0.0000000000
       487         5  SLPC      H14Y            7.9904179707        6.5718677377        2.5898978849  MEMB      5               0.0000000000
       488         5  SLPC      C315            8.4268141393        7.7945269636        3.1418536792  MEMB      5               0.0000000000
       489         5  SLPC      H15X            9.3842585886        7.7898866985        2.5452724735  MEMB      5               0.0000000000
       490         5  SLPC      H15Y            8.5396921272        8.2702435657        4.1416628535  MEMB      5               0.0000000000
       491         5  SLPC      C316            7.0873373393        8.4228740587        2.6237116454  MEMB      5               0.0000000000
       492         5  SLPC      H16X            7.4093901222        9.2710166922        3.1025522773  MEMB      5               0.0000000000
       493         5  SLPC      H16Y            6.0752085103        8.2311960931        2.9679506672  MEMB      5               0.0000000000
       494         5  SLPC      C317            7.0647921787        8.8890396532        1.2677343545  MEMB      5               0.0000000000
       495         5  SLPC      H17X            6.1946334260        9.0961139879        0.5933813286  MEMB      5               0.0000000000
       496         5  SLPC      H17Y            7.2915327603        7.8633607351        1.0705542105  MEMB      5               0.0000000000
       497         5  SLPC      C318            8.3809652836        9.5146786174        1.1531490078  MEMB      5               0.0000000000
       498         5  SLPC      H18X            8.5353011705       10.5711955700        1.0752523991  MEMB      5               0.0000000000
       499         5  SLPC      H18Y            8.4472900500        9.3206189536        0.2114259540  MEMB      5               0.0000000000
       500         5  SLPC      H18Z            9.2576099011        8.8998645845        1.2254466714  MEMB      5               0.0000000000
       501         6  CHL1      C3             -3.2073041943       10.3025500654       17.3612074265  MEMB      6               0.0000000000
       502         6  CHL1      H3             -3.8293301032       11.2270715900       17.2928189586  MEMB      6               0.0000000000
       503         6  CHL1      O3             -2.7259791738       10.1437994590       18.6875670750  MEMB      6               0.0000000000
       504         6  CHL1      H3'            -2.7830154803        9.1920952034       18.8033203093  MEMB      6               0.0000000000
       505         6  CHL1      C4             -3.9839358797        9.0338405090       16.9648091999  MEMB      6               0.0000000000
       506         6  CHL1      H4A            -3.3691861711        8.1479612078       17.2302810688  MEMB      6               0.0000000000
       507         6  CHL1      H4B            -4.8833697047        8.9704103800       17.6272393904  MEMB      6               0.0000000000
       508         6  CHL1      C5             -4.3433079146        8.9840881676       15.4838412168  MEMB      6               0.0000000000
       509         6  CHL1      C6             -5.6223080799        8.7974918858       15.1461510115  MEMB      6               0.0000000000
       510         6  CHL1      H6             -6.3325452554        8.5940221081       15.9561277187  MEMB      6               0.0000000000
       511         6  CHL1      C7             -6.1541576848        8.7555622831       13.7437190356  MEMB      6               0.0000000000
       512         6  CHL1      H7A            -6.8177206224        7.8712422329       13.6253846384  MEMB      6               0.0000000000
       513         6  CHL1      H7B            -6.7985943433        9.6394474527       13.5392881168  MEMB      6               0.0000000000
       514         6  CHL1      C8             -5.0024681215        8.6974781311       12.6952722193  MEMB      6               0.0000000000
       515         6  CHL1      H8             -4.6626570508        7.6428725132       12.6524040074  MEMB      6               0.0000000000
       516         6  CHL1      C14            -5.5285014388        9.0591580001       11.3460096404  MEMB      6               0.0000000000
       517         6  CHL1      H14            -5.9792236096       10.0873324426       11.4104833689  MEMB      6               0.0000000000
       518         6  CHL1      C15            -6.6205846198        8.1422047772       10.8728795968  MEMB      6               0.0000000000
       519         6  CHL1      H15A           -6.4140167101        7.0571111568       10.8989615932  MEMB      6               0.0000000000
       520         6  CHL1      H15B           -7.6436274630        8.3406314048       11.2822333148  MEMB      6               0.0000000000
       521         6  CHL1      C16            -6.5304057854        8.5798133554        9.4452248347  MEMB      6               0.0000000000
       522         6  CHL1      H16A           -6.7813211566        7.7220370444        8.7866134669  MEMB      6               0.0000000000
       523         6  CHL1      H16B           -7.2063576648        9.4465197975        9.6000545954  MEMB      6               0.0000000000
       524         6  CHL1      C17            -5.3901606521        9.4831871479        9.0068616149  MEMB      6               0.0000000000
       525         6  CHL1      H17            -5.7038817033       10.5625320737        9.1112394467  MEMB      6               0.0000000000
       526         6  CHL1      C13            -4.5077941882        9.1388744030       10.1810216382  MEMB      6               0.0000000000
       527         6  CHL1      C18            -3.9308911268        7.7505577115        9.8262736722  MEMB      6               0.0000000000
       528         6  CHL1      H18A           -3.1685252345        7.9446024286        9.0465863283  MEMB      6               0.0000000000
       529         6  CHL1      H18B           -3.4734922300        7.2686979066       10.7063098012  MEMB      6               0.0000000000
       530         6  CHL1      H18C           -4.6507860270        7.0290995262        9.3842989231  MEMB      6               0.0000000000
       531         6  CHL1      C12            -3.4331628593       10.1542581470       10.5345993202  MEMB      6               0.0000000000
       532         6  CHL1      H12A           -2.6808664792       10.1835066077        9.7213154393  MEMB      6               0.0000000000
       533         6  CHL1      H12B           -3.9092732519       11.1554953646       10.6214568002  MEMB      6               0.0000000000
       534         6  CHL1      C11            -2.7847437370        9.7677698269       11.8732576306  MEMB      6               0.0000000000
       535         6  CHL1      H11A           -2.2346495311        8.8217116838       11.6911902222  MEMB      6               0.0000000000
       536         6  CHL1      H11B           -2.0295600341       10.5336652128       12.1445133196  MEMB      6               0.0000000000
       537         6  CHL1      C9             -3.8325664023        9.6226060841       13.0340423575  MEMB      6               0.0000000000
       538         6  CHL1      H9             -4.2945181798       10.6385628413       13.0985696165  MEMB      6               0.0000000000
       539         6  CHL1      C10            -3.2443800778        9.2999798307       14.4385054200  MEMB      6               0.0000000000
       540         6  CHL1      C19            -2.3055634621        8.0714752264       14.2765054199  MEMB      6               0.0000000000
       541         6  CHL1      H19A           -1.4938406263        8.3150806011       13.5615735172  MEMB      6               0.0000000000
       542         6  CHL1      H19B           -1.8146984783        7.8149642688       15.2321199562  MEMB      6               0.0000000000
       543         6  CHL1      H19C           -2.8380051756        7.1641988451       13.9208649135  MEMB      6               0.0000000000
       544         6  CHL1      C1             -2.4236507751       10.5170997478       14.9534972108  MEMB      6               0.0000000000
       545         6  CHL1      H1A            -1.5245228342       10.5818934238       14.3049461693  MEMB      6               0.0000000000
       546         6  CHL1      H1B            -3.0176432745       11.4465893324       14.7990102827  MEMB      6               0.0000000000
       547         6  CHL1      C2             -2.0014793356       10.4265977601       16.4376422476  MEMB      6               0.0000000000
       548         6  CHL1      H2A            -1.4182044476       11.3064516161       16.7803345673  MEMB      6               0.0000000000
       549         6  CHL1      H2B            -1.3804627476        9.5151587382       16.5819186186  MEMB      6               0.0000000000
       550         6  CHL1      C20            -4.9788622908        9.2786426408        7.5245904273  MEMB      6               0.0000000000
       551         6  CHL1      H20            -4.5768929140        8.2606471101        7.3794706146  MEMB      6               0.0000000000
       552         6  CHL1      C21            -3.9383869258       10.3471607516        7.1746130377  MEMB      6               0.0000000000
       553         6  CHL1      H21A           -4.2442304152       11.3449512968        7.5513918083  MEMB      6               0.0000000000
       554         6  CHL1      H21B           -3.8158482129       10.4371575897        6.0818366143  MEMB      6               0.0000000000
       555         6  CHL1      H21C           -2.9600842640       10.0633806044        7.5944946960  MEMB      6               0.0000000000
       556         6  CHL1      C22            -6.0890076587        9.3522916040        6.4496535914  MEMB      6               0.0000000000
       557         6  CHL1      H22A           -6.7849525893        8.4946683105        6.5253739707  MEMB      6               0.0000000000
       558         6  CHL1      H22B           -6.5895944195       10.3099464996        6.6564379924  MEMB      6               0.0000000000
       559         6  CHL1      C23            -5.6135653127        9.3427775210        4.9751569207  MEMB      6               0.0000000000
       560         6  CHL1      H23A           -5.2372957129       10.3594679979        4.6896565761  MEMB      6               0.0000000000
       561         6  CHL1      H23B           -4.9181237227        8.5114333771        4.8161975464  MEMB      6               0.0000000000
       562         6  CHL1      C24            -6.6663385617        9.0955919960        3.9217342001  MEMB      6               0.0000000000
       563         6  CHL1      H24A           -7.3483004040        8.2655552700        4.2217748804  MEMB      6               0.0000000000
       564         6  CHL1      H24B           -7.1055754645       10.0647008885        4.1256572443  MEMB      6               0.0000000000
       565         6  CHL1      C25            -6.3073227092        9.3016422330        2.4051196514  MEMB      6               0.0000000000
       566         6  CHL1      H25            -5.8672491273       10.3139750545        2.3001667095  MEMB      6               0.0000000000
       567         6  CHL1      C26            -5.6574146711        8.1391441706        1.9363026508  MEMB      6               0.0000000000
       568         6  CHL1      H26A           -5.3938069460        8.2376785188        0.8638310340  MEMB      6               0.0000000000
       569         6  CHL1      H26B           -4.8776115211        7.8896290476        2.6564368453  MEMB      6               0.0000000000
       570         6  CHL1      H26C           -6.5306999555        7.4461961730        2.0121133874  MEMB      6               0.0000000000
       571         6  CHL1      C27            -7.3084923519        9.1485834557        1.2660380608  MEMB      6               0.0000000000
       572         6  CHL1      H27A           -7.5713411665       10.1676965814        1.3660729413  MEMB      6               0.0000000000
       573         6  CHL1      H27B           -7.2554670713        9.2863694836        0.1869677517  MEMB      6               0.0000000000
       574         6  CHL1      H27C           -8.1261224919        8.4219845153        1.5161854239  MEMB      6               0.0000000000
       575         7  SAPE      N               3.8160881030      -10.6872628867       21.9693154593  MEMB      7               0.0000000000
       576         7  SAPE      HN1             3.6797866828       -9.8286211118       21.3979500049  MEMB      7               0.0000000000
       577         7  SAPE      HN2             3.1938721524      -10.6417596347       22.7961687950  MEMB      7               0.0000000000
       578         7  SAPE      HN3             4.8078371408      -10.7653012900       22.2712881213  MEMB      7               0.0000000000
       579         7  SAPE      C12             3.4542936197      -11.9011739758       21.1309419489  MEMB      7               0.0000000000
       580         7  SAPE      H12A            3.6142436282      -12.7872465611       21.7802165236  MEMB      7               0.0000000000
       581         7  SAPE      H12B            4.1915458809      -11.9061707315       20.2997539305  MEMB      7               0.0000000000
       582         7  SAPE      C11             2.0125284811      -11.9209000094       20.5356641042  MEMB      7               0.0000000000
       583         7  SAPE      H11A            1.3143886789      -12.4289858211       21.2357582473  MEMB      7               0.0000000000
       584         7  SAPE      H11B            1.9980837968      -12.5637244320       19.6194493141  MEMB      7               0.0000000000
       585         7  SAPE      P               0.3238388158      -10.3334699081       19.2670780133  MEMB      7               0.0000000000
       586         7  SAPE      O13            -0.8555636857      -10.9882302436       19.8667927427  MEMB      7               0.0000000000
       587         7  SAPE      O14             0.2758466838       -8.8814208862       18.9989678648  MEMB      7               0.0000000000
       588         7  SAPE      O12             1.5499789304      -10.6017171802       20.2506880416  MEMB      7               0.0000000000
       589         7  SAPE      O11             0.7411648219      -11.1189149993       17.9749269521  MEMB      7               0.0000000000
       590         7  SAPE      C1              1.8657140027      -10.7308781924       17.1964914477  MEMB      7               0.0000000000
       591         7  SAPE      HA              2.6965312317      -10.3137753476       17.8088663072  MEMB      7               0.0000000000
       592         7  SAPE      HB              2.2545730172      -11.6354671551       16.6803193494  MEMB      7               0.0000000000
       593         7  SAPE      C2              1.5260930398       -9.6524436731       16.1360729394  MEMB      7               0.0000000000
       594         7  SAPE      HS              1.6261299454       -8.6677820254       16.6521723615  MEMB      7               0.0000000000
       595         7  SAPE      O21             0.2155479039       -9.7201130730       15.5640686011  MEMB      7               0.0000000000
       596         7  SAPE      C21            -0.2777854902      -10.8735266058       15.1823934035  MEMB      7               0.0000000000
       597         7  SAPE      O22             0.2494100903      -11.9692388311       15.1198336876  MEMB      7               0.0000000000
       598         7  SAPE      C22            -1.7289809143      -10.6300659121       14.8352384690  MEMB      7               0.0000000000
       599         7  SAPE      H2R            -2.2615002637      -10.6962046949       15.8061004576  MEMB      7               0.0000000000
       600         7  SAPE      H2S            -1.8587938943       -9.6257102264       14.3999535949  MEMB      7               0.0000000000
       601         7  SAPE      C3              2.5001332927       -9.6888342329       14.9914606124  MEMB      7               0.0000000000
       602         7  SAPE      HX              3.5615813154       -9.5397427350       15.2873467110  MEMB      7               0.0000000000
       603         7  SAPE      HY              2.1962851343       -8.7419152393       14.4320758629  MEMB      7               0.0000000000
       604         7  SAPE      O31             2.3237199154      -10.9877316409       14.2996335362  MEMB      7               0.0000000000
       605         7  SAPE      C31             2.7291116230      -10.7814178942       13.0908375344  MEMB      7               0.0000000000
       606         7  SAPE      O32             3.2274082628       -9.6647325970       12.9014193097  MEMB      7               0.0000000000
       607         7  SAPE      C32             2.5923315280      -12.1488295088       12.1754617805  MEMB      7               0.0000000000
       608         7  SAPE      H2X             1.5579954945      -12.4994897870       12.3134583846  MEMB      7               0.0000000000
       609         7  SAPE      H2Y             3.2235815363      -12.8904157784       12.7097328324  MEMB      7               0.0000000000
       610         7  SAPE      C23            -2.2947324168      -11.6625741181       13.8642939249  MEMB      7               0.0000000000
       611         7  SAPE      H3R            -3.4022610206      -11.5845522239       13.9031812737  MEMB      7               0.0000000000
       612         7  SAPE      H3S            -1.9764911509      -12.6755337782       14.2154980447  MEMB      7               0.0000000000
       613         7  SAPE      C24            -1.8681829908      -11.5000105828       12.4044366305  MEMB      7               0.0000000000
       614         7  SAPE      H4R            -2.4204985775      -12.2363220656       11.7882411530  MEMB      7               0.0000000000
       615         7  SAPE      H4S            -0.7837368460      -11.7666585603       12.3460548620  MEMB      7               0.0000000000
       616         7  SAPE      C25            -2.3342861777      -10.3652717089       11.6081667649  MEMB      7               0.0000000000
       617         7  SAPE      H5R            -3.4130531274      -10.1933705084       11.7116983239  MEMB      7               0.0000000000
       618         7  SAPE      C26            -1.5695530125       -9.6488840965       10.7889303632  MEMB      7               0.0000000000
       619         7  SAPE      H6R            -2.0870959946       -8.9293739564       10.1422826822  MEMB      7               0.0000000000
       620         7  SAPE      C27            -0.0928444485       -9.8516057372       10.5339736221  MEMB      7               0.0000000000
       621         7  SAPE      H7R             0.0785629412      -10.1523331238        9.4794024986  MEMB      7               0.0000000000
       622         7  SAPE      H7S             0.3660918847      -10.6667162026       11.1342388202  MEMB      7               0.0000000000
       623         7  SAPE      C28             0.5995879210       -8.5555069697       10.8490142796  MEMB      7               0.0000000000
       624         7  SAPE      H8R             0.5162952322       -8.1919153485       11.8926378520  MEMB      7               0.0000000000
       625         7  SAPE      C29             1.3647348920       -7.8815431000        9.9716003337  MEMB      7               0.0000000000
       626         7  SAPE      H9R             1.9196434717       -7.0080741175       10.3457765324  MEMB      7               0.0000000000
       627         7  SAPE      C210            1.6809057421       -8.3034554625        8.5330567549  MEMB      7               0.0000000000
       628         7  SAPE      H10R            1.8500780669       -9.3882303081        8.5485349967  MEMB      7               0.0000000000
       629         7  SAPE      H10S            2.6917345176       -7.8705107575        8.3942886279  MEMB      7               0.0000000000
       630         7  SAPE      C211            0.7213703186       -7.9208232471        7.3754480882  MEMB      7               0.0000000000
       631         7  SAPE      H11R           -0.3426761408       -8.0098920057        7.6925999346  MEMB      7               0.0000000000
       632         7  SAPE      C212            0.9927850218       -7.5828901693        6.0444425332  MEMB      7               0.0000000000
       633         7  SAPE      H12R            0.1411909137       -7.0122003645        5.5697777680  MEMB      7               0.0000000000
       634         7  SAPE      C213            2.3786609600       -7.2208220607        5.3098668713  MEMB      7               0.0000000000
       635         7  SAPE      H13R            2.9260966661       -6.9892932295        6.1830544031  MEMB      7               0.0000000000
       636         7  SAPE      H13S            2.2748188232       -6.2971012185        4.8313067571  MEMB      7               0.0000000000
       637         7  SAPE      C214            3.5004106966       -8.0684395615        4.5098304460  MEMB      7               0.0000000000
       638         7  SAPE      H14R            3.9725726894       -9.0033470587        4.4002374085  MEMB      7               0.0000000000
       639         7  SAPE      C215            4.2556227210       -7.9236813042        3.4754233050  MEMB      7               0.0000000000
       640         7  SAPE      H15R            4.9986608917       -8.7163989539        3.1835540963  MEMB      7               0.0000000000
       641         7  SAPE      C216            3.9441600767       -7.1378417026        2.3922605041  MEMB      7               0.0000000000
       642         7  SAPE      H16R            5.0886348936       -7.1450728629        2.4082249667  MEMB      7               0.0000000000
       643         7  SAPE      H16S            3.5299693861       -6.1977136812        2.8469263037  MEMB      7               0.0000000000
       644         7  SAPE      C217            3.3926994534       -7.9136107656        1.1671668355  MEMB      7               0.0000000000
       645         7  SAPE      H17R            3.9657804655       -7.3607760243        0.4187069142  MEMB      7               0.0000000000
       646         7  SAPE      H17S            2.3061541780       -7.6993490459        1.1360082017  MEMB      7               0.0000000000
       647         7  SAPE      C218            3.6873607062       -9.4428574643        0.6879224885  MEMB      7               0.0000000000
       648         7  SAPE      H18R            2.9708374083      -10.2925852275        0.8851175090  MEMB      7               0.0000000000
       649         7  SAPE      H18S            4.6812457822       -9.7415811835        1.0041320899  MEMB      7               0.0000000000
       650         7  SAPE      C219            3.6369048856       -9.8573523867       -0.7343677658  MEMB      7               0.0000000000
       651         7  SAPE      H19R            3.7517950407      -10.9887746429       -0.7994417781  MEMB      7               0.0000000000
       652         7  SAPE      H19S            4.5439664852       -9.3193744334       -1.0648808877  MEMB      7               0.0000000000
       653         7  SAPE      C220            2.2783567956       -9.4095591105       -1.2043326346  MEMB      7               0.0000000000
       654         7  SAPE      H20R            2.1965225923       -8.3049333867       -1.1001398661  MEMB      7               0.0000000000
       655         7  SAPE      H20S            1.4527094166       -9.8639135356       -0.5941595696  MEMB      7               0.0000000000
       656         7  SAPE      H20T            2.2051965121       -9.7387261542       -2.2492842472  MEMB      7               0.0000000000
       657         7  SAPE      C33             2.8905006456      -12.4188819599       10.6032404506  MEMB      7               0.0000000000
       658         7  SAPE      H3X             3.7933512518      -12.1206437853       10.1101826331  MEMB      7               0.0000000000
       659         7  SAPE      H3Y             2.2117699937      -11.9354564406        9.8954437081  MEMB      7               0.0000000000
       660         7  SAPE      C34             3.5161189424      -13.7494645535       10.2600060187  MEMB      7               0.0000000000
       661         7  SAPE      H4X             4.2728910081      -14.0357151653       11.0354421767  MEMB      7               0.0000000000
       662         7  SAPE      H4Y             4.1035914599      -13.8345543806        9.2987628474  MEMB      7               0.0000000000
       663         7  SAPE      C35             2.3007305563      -14.5485677605       10.1037290786  MEMB      7               0.0000000000
       664         7  SAPE      H5X             1.5073261996      -14.4356097884       10.8588316914  MEMB      7               0.0000000000
       665         7  SAPE      H5Y             2.7970969237      -15.4720362175       10.2184340056  MEMB      7               0.0000000000
       666         7  SAPE      C36             1.8553411320      -14.8470200395        8.7160035647  MEMB      7               0.0000000000
       667         7  SAPE      H6X             1.3943367100      -15.8455724465        8.8558518277  MEMB      7               0.0000000000
       668         7  SAPE      H6Y             2.7620118041      -14.8929850342        8.0734616281  MEMB      7               0.0000000000
       669         7  SAPE      C37             0.9407287533      -13.9158792692        8.0061108197  MEMB      7               0.0000000000
       670         7  SAPE      H7X             0.7413930003      -14.3564954031        6.9999371913  MEMB      7               0.0000000000
       671         7  SAPE      H7Y             1.5762430678      -13.0168604326        7.9160857787  MEMB      7               0.0000000000
       672         7  SAPE      C38            -0.3505060860      -13.6341514379        8.7480137641  MEMB      7               0.0000000000
       673         7  SAPE      H8X            -0.1066347813      -13.4552897724        9.8255000866  MEMB      7               0.0000000000
       674         7  SAPE      H8Y            -1.0460596264      -14.4839765273        8.6809375066  MEMB      7               0.0000000000
       675         7  SAPE      C39            -1.1365916493      -12.4805111444        8.1622633479  MEMB      7               0.0000000000
       676         7  SAPE      H9X            -0.3904914484      -11.6765359248        8.0076535639  MEMB      7               0.0000000000
       677         7  SAPE      H9Y            -1.8999965065      -12.1983957242        8.9194601581  MEMB      7               0.0000000000
       678         7  SAPE      C310           -1.8725720891      -12.7449747452        6.8395377290  MEMB      7               0.0000000000
       679         7  SAPE      H10X           -2.6876917865      -13.4896343711        6.9877678126  MEMB      7               0.0000000000
       680         7  SAPE      H10Y           -1.1529553904      -13.1680678842        6.1040635515  MEMB      7               0.0000000000
       681         7  SAPE      C311           -2.5685275724      -11.4812289601        6.2940190922  MEMB      7               0.0000000000
       682         7  SAPE      H11X           -3.2219463680      -11.0412086150        7.0788725416  MEMB      7               0.0000000000
       683         7  SAPE      H11Y           -3.2349233330      -11.7658064625        5.4531112971  MEMB      7               0.0000000000
       684         7  SAPE      C312           -1.6364729320      -10.3702794270        5.8021234101  MEMB      7               0.0000000000
       685         7  SAPE      H12X           -1.0526505993       -9.9874338840        6.6667808288  MEMB      7               0.0000000000
       686         7  SAPE      H12Y           -2.2679442614       -9.5408206979        5.4144326539  MEMB      7               0.0000000000
       687         7  SAPE      C313           -0.6878132484      -10.7983178722        4.6885549439  MEMB      7               0.0000000000
       688         7  SAPE      H13X            0.0106056053      -11.5771758165        5.0627788279  MEMB      7               0.0000000000
       689         7  SAPE      H13Y           -0.0741712441       -9.9259390792        4.3954650577  MEMB      7               0.0000000000
       690         7  SAPE      C314           -1.3769912522      -11.3188055786        3.4314501948  MEMB      7               0.0000000000
       691         7  SAPE      H14X           -1.9723022838      -10.4987576237        2.9609545219  MEMB      7               0.0000000000
       692         7  SAPE      H14Y           -2.0999604997      -12.1236421232        3.6638094011  MEMB      7               0.0000000000
       693         7  SAPE      C315           -0.3211415579      -11.8495831906        2.4623238600  MEMB      7               0.0000000000
       694         7  SAPE      H15X            0.2790535674      -11.0650653399        2.0313455336  MEMB      7               0.0000000000
       695         7  SAPE      H15Y           -0.7445657631      -12.2668437164        1.5782890231  MEMB      7               0.0000000000
       696         7  SAPE      C316            0.4072378283      -13.1391134832        2.7478262057  MEMB      7               0.0000000000
       697         7  SAPE      H16X           -0.3022518274      -13.9473505550        3.0068003229  MEMB      7               0.0000000000
       698         7  SAPE      H16Y            1.0622001853      -13.0122333775        3.6057677264  MEMB      7               0.0000000000
       699         7  SAPE      C317            1.1250924962      -13.5922310424        1.4775463714  MEMB      7               0.0000000000
       700         7  SAPE      H17X            1.7919059185      -12.7825102802        1.1080184564  MEMB      7               0.0000000000
       701         7  SAPE      H17Y            0.3894880586      -13.7616785995        0.6706877787  MEMB      7               0.0000000000
       702         7  SAPE      C318            1.8331345027      -14.9106736954        1.6929488409  MEMB      7               0.0000000000
       703         7  SAPE      H18X            2.6126022455      -15.0540215260        0.9183682711  MEMB      7               0.0000000000
       704         7  SAPE      H18Y            1.0921836704      -15.7407235952        1.6272370992  MEMB      7               0.0000000000
       705         7  SAPE      H18Z            2.2869085399      -14.9232452165        2.7057081528  MEMB      7               0.0000000000
       706         8  SOPE      N             -11.9283575679       -5.2374337881       19.8731932873  MEMB      8               0.0000000000
       707         8  SOPE      HN1           -12.5691108714       -4.4405928164       20.0634543515  MEMB      8               0.0000000000
       708         8  SOPE      HN2           -12.2601369325       -5.7250258567       19.0215990705  MEMB      8               0.0000000000
       709         8  SOPE      HN3           -11.8784560638       -5.8816561832       20.6913311568  MEMB      8               0.0000000000
       710         8  SOPE      C12           -10.5310684133       -4.7286554289       19.6144593871  MEMB      8               0.0000000000
       711         8  SOPE      H12A          -10.6026035357       -3.8611779761       18.9272850901  MEMB      8               0.0000000000
       712         8  SOPE      H12B          -10.0033498065       -5.5538020586       19.0978788644  MEMB      8               0.0000000000
       713         8  SOPE      C11            -9.8071161890       -4.3280605245       20.9123902668  MEMB      8               0.0000000000
       714         8  SOPE      H11A           -8.8139720897       -3.8701166404       20.7030227645  MEMB      8               0.0000000000
       715         8  SOPE      H11B           -9.5940320931       -5.2351150093       21.5188529933  MEMB      8               0.0000000000
       716         8  SOPE      P             -10.3529235651       -1.8566824546       21.5302313000  MEMB      8               0.0000000000
       717         8  SOPE      O13            -8.9074548073       -1.5481793645       21.5119537988  MEMB      8               0.0000000000
       718         8  SOPE      O14           -11.1862280097       -1.2709253247       22.5871703842  MEMB      8               0.0000000000
       719         8  SOPE      O12           -10.6031053515       -3.4387117269       21.6680344516  MEMB      8               0.0000000000
       720         8  SOPE      O11           -10.9862606368       -1.5221667769       20.1077414865  MEMB      8               0.0000000000
       721         8  SOPE      C1            -10.8165332264       -0.2171352310       19.5122665419  MEMB      8               0.0000000000
       722         8  SOPE      HA            -10.0307736569        0.4070795380       20.0070335130  MEMB      8               0.0000000000
       723         8  SOPE      HB            -11.7772022716        0.3465239471       19.5901370296  MEMB      8               0.0000000000
       724         8  SOPE      C2            -10.4051269566       -0.2744901401       18.0045337107  MEMB      8               0.0000000000
       725         8  SOPE      HS            -10.5889232596        0.7378885237       17.5697772117  MEMB      8               0.0000000000
       726         8  SOPE      O21           -11.1718927821       -1.3009291958       17.3441132753  MEMB      8               0.0000000000
       727         8  SOPE      C21           -11.8439143128       -0.9853748085       16.2475567327  MEMB      8               0.0000000000
       728         8  SOPE      O22           -11.8950084479        0.1043769496       15.7094514917  MEMB      8               0.0000000000
       729         8  SOPE      C22           -12.5424633442       -2.2475762766       15.7765755999  MEMB      8               0.0000000000
       730         8  SOPE      H2R           -13.3433985203       -2.4971241663       16.5035456865  MEMB      8               0.0000000000
       731         8  SOPE      H2S           -11.8073147763       -3.0776385319       15.7313027943  MEMB      8               0.0000000000
       732         8  SOPE      C3             -8.8729509291       -0.5486960490       17.8595452643  MEMB      8               0.0000000000
       733         8  SOPE      HX             -8.5540016390       -1.5100213609       18.3114551703  MEMB      8               0.0000000000
       734         8  SOPE      HY             -8.3334792918        0.2420353557       18.4286410482  MEMB      8               0.0000000000
       735         8  SOPE      O31            -8.4570805667       -0.4463093039       16.4961520798  MEMB      8               0.0000000000
       736         8  SOPE      C31            -8.5649849375       -1.5213411840       15.7401405309  MEMB      8               0.0000000000
       737         8  SOPE      O32            -8.9709071074       -2.6196607838       16.0647340309  MEMB      8               0.0000000000
       738         8  SOPE      C32            -8.1242534102       -1.1119259766       14.3459918827  MEMB      8               0.0000000000
       739         8  SOPE      H2X            -7.0821419786       -1.4246792267       14.1294387278  MEMB      8               0.0000000000
       740         8  SOPE      H2Y            -8.1773686839       -0.0212908427       14.2730727495  MEMB      8               0.0000000000
       741         8  SOPE      C23           -13.1865405052       -1.9655620884       14.4228369623  MEMB      8               0.0000000000
       742         8  SOPE      H3R           -12.4933465998       -1.4067878992       13.7488148109  MEMB      8               0.0000000000
       743         8  SOPE      H3S           -14.0970248928       -1.3442697547       14.5744736931  MEMB      8               0.0000000000
       744         8  SOPE      C24           -13.6506660095       -3.2204056231       13.7325977843  MEMB      8               0.0000000000
       745         8  SOPE      H4R           -12.7934412588       -3.7362983599       13.3579211330  MEMB      8               0.0000000000
       746         8  SOPE      H4S           -14.0760253929       -3.9535045741       14.4429448922  MEMB      8               0.0000000000
       747         8  SOPE      C25           -14.5861055610       -2.9058218466       12.5820361215  MEMB      8               0.0000000000
       748         8  SOPE      H5R           -14.9680471237       -3.8195477291       12.1208209894  MEMB      8               0.0000000000
       749         8  SOPE      H5S           -15.4986539615       -2.4554189659       13.0165360564  MEMB      8               0.0000000000
       750         8  SOPE      C26           -14.0120287291       -1.9046403009       11.5592189645  MEMB      8               0.0000000000
       751         8  SOPE      H6R           -14.6606307719       -1.7331224215       10.7076573944  MEMB      8               0.0000000000
       752         8  SOPE      H6S           -13.9452271474       -0.9327397789       12.0689403868  MEMB      8               0.0000000000
       753         8  SOPE      C27           -12.7037368169       -2.1694349566       10.8502988524  MEMB      8               0.0000000000
       754         8  SOPE      H7R           -11.8993999374       -2.1570459696       11.6046226925  MEMB      8               0.0000000000
       755         8  SOPE      H7S           -12.6874329504       -3.0885442293       10.2658246982  MEMB      8               0.0000000000
       756         8  SOPE      C28           -12.4396863409       -1.2158993654        9.6945203716  MEMB      8               0.0000000000
       757         8  SOPE      H8R           -12.5508432925       -0.1930500697       10.0641372157  MEMB      8               0.0000000000
       758         8  SOPE      H8S           -11.3588037619       -1.3813616641        9.4841316065  MEMB      8               0.0000000000
       759         8  SOPE      C29           -13.3257419000       -1.3878557631        8.4806716869  MEMB      8               0.0000000000
       760         8  SOPE      H91           -14.2703964241       -0.9313283844        8.3901948281  MEMB      8               0.0000000000
       761         8  SOPE      C210          -13.0320630718       -1.9779610495        7.3850051960  MEMB      8               0.0000000000
       762         8  SOPE      H101          -13.6558899714       -2.0316606494        6.4750068167  MEMB      8               0.0000000000
       763         8  SOPE      C211          -11.7588952189       -2.5403234134        7.2828173336  MEMB      8               0.0000000000
       764         8  SOPE      H11R          -11.0473761962       -2.6757191143        8.1470436846  MEMB      8               0.0000000000
       765         8  SOPE      H11S          -11.2870320898       -1.9233825895        6.6613761955  MEMB      8               0.0000000000
       766         8  SOPE      C212          -12.4932821103       -3.7277963548        6.7434025509  MEMB      8               0.0000000000
       767         8  SOPE      H12R          -12.6646481723       -4.5434317668        7.2485532711  MEMB      8               0.0000000000
       768         8  SOPE      H12S          -11.4772279766       -3.8569429314        6.7374867731  MEMB      8               0.0000000000
       769         8  SOPE      C213          -13.2371912314       -4.3052928712        5.5058780700  MEMB      8               0.0000000000
       770         8  SOPE      H13R          -14.1596236202       -4.5415605785        5.9902768475  MEMB      8               0.0000000000
       771         8  SOPE      H13S          -13.0466622755       -5.3461039830        5.1036596073  MEMB      8               0.0000000000
       772         8  SOPE      C214          -13.1625130514       -3.5178505034        4.3022347818  MEMB      8               0.0000000000
       773         8  SOPE      H14R          -12.1599295562       -3.4189592205        4.6282355692  MEMB      8               0.0000000000
       774         8  SOPE      H14S          -13.2734289725       -2.4388081468        4.3388736750  MEMB      8               0.0000000000
       775         8  SOPE      C215          -13.4626370500       -4.3308116433        2.9757721500  MEMB      8               0.0000000000
       776         8  SOPE      H15R          -14.4595329420       -4.6327920661        3.1095181940  MEMB      8               0.0000000000
       777         8  SOPE      H15S          -13.2044710032       -5.4079166044        2.8490637056  MEMB      8               0.0000000000
       778         8  SOPE      C216          -12.9392192585       -3.5906455291        1.6567632016  MEMB      8               0.0000000000
       779         8  SOPE      H16R          -11.8839785427       -3.3524941872        1.3966777197  MEMB      8               0.0000000000
       780         8  SOPE      H16S          -13.0521544711       -2.5011568032        1.6616504988  MEMB      8               0.0000000000
       781         8  SOPE      C217          -13.1984395770       -4.3759087881        0.5265054007  MEMB      8               0.0000000000
       782         8  SOPE      H17R          -14.1875035281       -4.0465332038        0.2870899843  MEMB      8               0.0000000000
       783         8  SOPE      H17S          -13.0677491468       -5.4874343681        0.5961696361  MEMB      8               0.0000000000
       784         8  SOPE      C218          -12.4222472455       -3.6936917520       -0.4901035402  MEMB      8               0.0000000000
       785         8  SOPE      H18R          -11.4175441803       -4.0469166991       -0.6165173776  MEMB      8               0.0000000000
       786         8  SOPE      H18S          -12.3315144616       -2.6147735428       -0.4898440042  MEMB      8               0.0000000000
       787         8  SOPE      H18T          -13.1054689686       -4.0181043502       -1.2712405217  MEMB      8               0.0000000000
       788         8  SOPE      C33            -9.0408188518       -1.5947169785       13.2596817882  MEMB      8               0.0000000000
       789         8  SOPE      H3X            -9.1663562180       -0.8189726491       12.4632874156  MEMB      8               0.0000000000
       790         8  SOPE      H3Y           -10.0695947214       -1.8223990672       13.6274909411  MEMB      8               0.0000000000
       791         8  SOPE      C34            -8.3511178445       -2.7211120048       12.5437900398  MEMB      8               0.0000000000
       792         8  SOPE      H4X            -8.1994645124       -3.6433230553       13.1784165981  MEMB      8               0.0000000000
       793         8  SOPE      H4Y            -7.4249522902       -2.4229264009       12.0271605433  MEMB      8               0.0000000000
       794         8  SOPE      C35            -9.2444751134       -3.0074985114       11.4224520044  MEMB      8               0.0000000000
       795         8  SOPE      H5X            -9.8960671766       -2.2863047727       10.9085396525  MEMB      8               0.0000000000
       796         8  SOPE      H5Y            -9.9515620570       -3.3187822328       12.1704955156  MEMB      8               0.0000000000
       797         8  SOPE      C36            -8.6045538621       -3.9503782863       10.4554627632  MEMB      8               0.0000000000
       798         8  SOPE      H6X            -9.3308918386       -4.0845463355        9.6408054552  MEMB      8               0.0000000000
       799         8  SOPE      H6Y            -8.3188526119       -4.9413588235       10.8803796346  MEMB      8               0.0000000000
       800         8  SOPE      C37            -7.8962179254       -3.3332766654        9.3372983804  MEMB      8               0.0000000000
       801         8  SOPE      H7X            -7.0000005654       -3.0508284765        9.8775865308  MEMB      8               0.0000000000
       802         8  SOPE      H7Y            -8.4860711609       -2.4320043772        9.0486893656  MEMB      8               0.0000000000
       803         8  SOPE      C38            -7.7788385975       -4.2583645179        8.1220371573  MEMB      8               0.0000000000
       804         8  SOPE      H8X            -8.7236031526       -4.2563807497        7.6021717278  MEMB      8               0.0000000000
       805         8  SOPE      H8Y            -7.4285090650       -5.2997623470        8.3373098145  MEMB      8               0.0000000000
       806         8  SOPE      C39            -6.9197414666       -3.6397240605        7.0906510496  MEMB      8               0.0000000000
       807         8  SOPE      H9X            -5.9771088888       -4.0259987506        7.1947318720  MEMB      8               0.0000000000
       808         8  SOPE      H9Y            -6.7611983870       -2.5867148520        7.0948537553  MEMB      8               0.0000000000
       809         8  SOPE      C310           -6.7082592051       -4.2934306095        5.8578123182  MEMB      8               0.0000000000
       810         8  SOPE      H10X           -6.7983461956       -5.3831497030        5.9271919666  MEMB      8               0.0000000000
       811         8  SOPE      H10Y           -5.7849277913       -4.1369764952        5.2795714037  MEMB      8               0.0000000000
       812         8  SOPE      C311           -7.3900024709       -3.4661917053        4.9414079309  MEMB      8               0.0000000000
       813         8  SOPE      H11X           -6.7615112526       -2.6774829785        4.6686557955  MEMB      8               0.0000000000
       814         8  SOPE      H11Y           -8.2620812706       -3.0397680572        5.5311494603  MEMB      8               0.0000000000
       815         8  SOPE      C312           -7.1639998349       -4.5141337142        3.9079444370  MEMB      8               0.0000000000
       816         8  SOPE      H12X           -7.8332282025       -4.5923141177        3.3316854670  MEMB      8               0.0000000000
       817         8  SOPE      H12Y           -7.8992926091       -5.0762444039        4.4483693793  MEMB      8               0.0000000000
       818         8  SOPE      C313           -6.9281426694       -4.6213839847        2.2080699193  MEMB      8               0.0000000000
       819         8  SOPE      H13X           -6.1129944773       -5.1845556247        2.7642154174  MEMB      8               0.0000000000
       820         8  SOPE      H13Y           -6.5432577132       -3.6928050517        1.9108433832  MEMB      8               0.0000000000
       821         8  SOPE      C314           -8.1611499450       -5.4241019733        0.9596654349  MEMB      8               0.0000000000
       822         8  SOPE      H14X           -7.3680936694       -5.8783936261        0.3125571140  MEMB      8               0.0000000000
       823         8  SOPE      H14Y           -8.7692994032       -4.7734052493        0.4610704277  MEMB      8               0.0000000000
       824         8  SOPE      C315           -9.6138517428       -6.7631490966        1.2187945471  MEMB      8               0.0000000000
       825         8  SOPE      H15X          -10.3713042033       -6.5015954921        1.9162520183  MEMB      8               0.0000000000
       826         8  SOPE      H15Y           -9.6338342370       -7.5844787523        1.9016842144  MEMB      8               0.0000000000
       827         8  SOPE      C316           -9.6802028836       -8.4186550937        1.0320343168  MEMB      8               0.0000000000
       828         8  SOPE      H16X          -10.3210663629       -9.2420346562        1.5791523648  MEMB      8               0.0000000000
       829         8  SOPE      H16Y           -8.7592609859       -8.9695668763        0.7523238895  MEMB      8               0.0000000000
       830         8  SOPE      C317          -10.3843780091       -8.0420940512       -0.0820764846  MEMB      8               0.0000000000
       831         8  SOPE      H17X           -9.5022241414       -7.6900963197       -0.6339175629  MEMB      8               0.0000000000
       832         8  SOPE      H17Y          -11.2926067080       -7.3592104810        0.1166882196  MEMB      8               0.0000000000
       833         8  SOPE      C318          -10.7203349297       -9.1903021587       -0.7262055284  MEMB      8               0.0000000000
       834         8  SOPE      H18X          -11.3383582391       -9.4552512346        0.0867720330  MEMB      8               0.0000000000
       835         8  SOPE      H18Y           -9.9256885110       -9.9128976817       -0.8794163876  MEMB      8               0.0000000000
       836         8  SOPE      H18Z          -11.2242228325       -8.7899374107       -1.5649876178  MEMB      8               0.0000000000
       837         9  CHL1      C3              5.0808476676        9.9073553655       17.3847237904  MEMB      9               0.0000000000
       838         9  CHL1      H3              4.1043236459        9.4368492473       17.0926100659  MEMB      9               0.0000000000
       839         9  CHL1      O3              5.3557631009        9.8208586585       18.7661831344  MEMB      9               0.0000000000
       840         9  CHL1      H3'             6.1303210172       10.4222578384       18.8048274560  MEMB      9               0.0000000000
       841         9  CHL1      C4              6.2289236931        9.4490184911       16.4726706496  MEMB      9               0.0000000000
       842         9  CHL1      H4A             7.0989225670       10.0413591550       16.8232002035  MEMB      9               0.0000000000
       843         9  CHL1      H4B             6.3375001666        8.3807287760       16.7138676261  MEMB      9               0.0000000000
       844         9  CHL1      C5              6.0370718649        9.6912922176       14.9736090181  MEMB      9               0.0000000000
       845         9  CHL1      C6              5.8968819157        8.7276796400       14.0865015263  MEMB      9               0.0000000000
       846         9  CHL1      H6              6.2255065343        7.7258811536       14.3859597259  MEMB      9               0.0000000000
       847         9  CHL1      C7              5.7412442274        9.0172623441       12.6295791848  MEMB      9               0.0000000000
       848         9  CHL1      H7A             6.6595017860        8.6472004857       12.2179780908  MEMB      9               0.0000000000
       849         9  CHL1      H7B             4.8613304321        8.4875632454       12.2218262502  MEMB      9               0.0000000000
       850         9  CHL1      C8              5.8280989762       10.4686537651       12.1220453597  MEMB      9               0.0000000000
       851         9  CHL1      H8              6.8979099429       10.7824782100       12.0866118924  MEMB      9               0.0000000000
       852         9  CHL1      C14             5.1846000373       10.6459983090       10.7632176335  MEMB      9               0.0000000000
       853         9  CHL1      H14             4.1159699407       10.3186849789       10.8622462207  MEMB      9               0.0000000000
       854         9  CHL1      C15             5.7996900022        9.7959787214        9.6787432914  MEMB      9               0.0000000000
       855         9  CHL1      H15A            6.8827734276        9.7950956277        9.9259414821  MEMB      9               0.0000000000
       856         9  CHL1      H15B            5.3477610642        8.7880821608        9.7160146945  MEMB      9               0.0000000000
       857         9  CHL1      C16             5.5409795818       10.5312591152        8.3685830860  MEMB      9               0.0000000000
       858         9  CHL1      H16A            6.5148554932       10.8468002074        7.9298200121  MEMB      9               0.0000000000
       859         9  CHL1      H16B            4.9790634247        9.9281083145        7.6338529293  MEMB      9               0.0000000000
       860         9  CHL1      C17             4.7643306859       11.8075361793        8.7515220193  MEMB      9               0.0000000000
       861         9  CHL1      H17             3.6773277240       11.5408703627        8.7445071226  MEMB      9               0.0000000000
       862         9  CHL1      C13             5.1932082014       12.0594462194       10.1968044775  MEMB      9               0.0000000000
       863         9  CHL1      C18             6.6189643347       12.6829317692       10.2306009321  MEMB      9               0.0000000000
       864         9  CHL1      H18A            7.0633652730       12.6889555299       11.2399343297  MEMB      9               0.0000000000
       865         9  CHL1      H18B            7.3250175228       12.1288713661        9.5968467572  MEMB      9               0.0000000000
       866         9  CHL1      H18C            6.5816335147       13.7389973334        9.9023847229  MEMB      9               0.0000000000
       867         9  CHL1      C12             4.2836532876       12.8361682569       11.0967906438  MEMB      9               0.0000000000
       868         9  CHL1      H12A            4.1275025906       13.9042460439       10.8457474566  MEMB      9               0.0000000000
       869         9  CHL1      H12B            3.2800971444       12.3479741557       11.0367679763  MEMB      9               0.0000000000
       870         9  CHL1      C11             4.9932935359       12.7532973688       12.4684556502  MEMB      9               0.0000000000
       871         9  CHL1      H11A            5.8761020734       13.3855520317       12.5654313158  MEMB      9               0.0000000000
       872         9  CHL1      H11B            4.4971377266       13.4367162853       13.0809102849  MEMB      9               0.0000000000
       873         9  CHL1      C9              5.1269065591       11.3157600237       13.0922953247  MEMB      9               0.0000000000
       874         9  CHL1      H9              4.0908293271       10.8771154352       13.1074999649  MEMB      9               0.0000000000
       875         9  CHL1      C10             5.8296784378       11.1089977367       14.5090300220  MEMB      9               0.0000000000
       876         9  CHL1      C19             7.0155989311       12.0833516432       14.5683656412  MEMB      9               0.0000000000
       877         9  CHL1      H19A            6.6820600249       13.1471449502       14.6110726267  MEMB      9               0.0000000000
       878         9  CHL1      H19B            7.5799252430       11.8890222062       15.4991960831  MEMB      9               0.0000000000
       879         9  CHL1      H19C            7.6404890000       11.9550767640       13.6703687759  MEMB      9               0.0000000000
       880         9  CHL1      C1              4.9387760343       11.4318626413       15.6534310614  MEMB      9               0.0000000000
       881         9  CHL1      H1A             5.0158340718       12.5115539561       15.4513330423  MEMB      9               0.0000000000
       882         9  CHL1      H1B             3.9844007704       10.8819443178       15.4754473200  MEMB      9               0.0000000000
       883         9  CHL1      C2              5.0319539902       11.3350910663       17.1435905197  MEMB      9               0.0000000000
       884         9  CHL1      H2A             4.0895535906       11.6330462143       17.6793004904  MEMB      9               0.0000000000
       885         9  CHL1      H2B             5.8323985302       12.0392292536       17.4227486729  MEMB      9               0.0000000000
       886         9  CHL1      C20             5.0796941950       12.9281531443        7.7800236089  MEMB      9               0.0000000000
       887         9  CHL1      H20             6.1743789083       13.1019992151        7.7700464786  MEMB      9               0.0000000000
       888         9  CHL1      C21             4.5116489671       14.2296411746        8.2957428264  MEMB      9               0.0000000000
       889         9  CHL1      H21A            4.9980229719       14.7724690795        9.1057403652  MEMB      9               0.0000000000
       890         9  CHL1      H21B            3.5230794454       13.9868591617        8.7163271988  MEMB      9               0.0000000000
       891         9  CHL1      H21C            4.4616088844       14.8861948141        7.4050984130  MEMB      9               0.0000000000
       892         9  CHL1      C22             4.6723790631       12.6562388643        6.3007160305  MEMB      9               0.0000000000
       893         9  CHL1      H22A            4.9602731217       11.6165656646        6.0564107459  MEMB      9               0.0000000000
       894         9  CHL1      H22B            3.5852837265       12.6484303732        6.1081060434  MEMB      9               0.0000000000
       895         9  CHL1      C23             5.3954031740       13.6008299403        5.3155099340  MEMB      9               0.0000000000
       896         9  CHL1      H23A            4.8873310689       14.5245886332        5.0177930711  MEMB      9               0.0000000000
       897         9  CHL1      H23B            6.2998304646       14.0054621797        5.8032205757  MEMB      9               0.0000000000
       898         9  CHL1      C24             5.6639376148       12.9252631719        3.9949296106  MEMB      9               0.0000000000
       899         9  CHL1      H24A            4.7747542255       12.3201021238        3.6896420925  MEMB      9               0.0000000000
       900         9  CHL1      H24B            5.8638966206       13.6595508370        3.1853135567  MEMB      9               0.0000000000
       901         9  CHL1      C25             6.8852017894       12.0667257664        4.0875668436  MEMB      9               0.0000000000
       902         9  CHL1      H25             6.7574805511       11.2765060760        4.8772257285  MEMB      9               0.0000000000
       903         9  CHL1      C26             6.9942749880       11.4103951396        2.7971897046  MEMB      9               0.0000000000
       904         9  CHL1      H26A            7.9888399293       10.9214749264        2.9919724438  MEMB      9               0.0000000000
       905         9  CHL1      H26B            6.1532122483       10.6800387805        2.6676510871  MEMB      9               0.0000000000
       906         9  CHL1      H26C            7.1739193138       11.9055510964        1.8392670691  MEMB      9               0.0000000000
       907         9  CHL1      C27             8.2084362336       12.8045563361        4.2643525069  MEMB      9               0.0000000000
       908         9  CHL1      H27A            9.0596110589       12.0912621248        4.2292543956  MEMB      9               0.0000000000
       909         9  CHL1      H27B            8.3610193560       13.5477098570        3.4541701279  MEMB      9               0.0000000000
       910         9  CHL1      H27C            8.2195584176       13.3162903341        5.2345968156  MEMB      9               0.0000000000
       911        10  CHL1      C3             -6.5570378131      -10.0950566614       17.2799242579  MEMB      10              0.0000000000
       912        10  CHL1      H3             -6.0470764702       -9.1263290737       17.0617237692  MEMB      10              0.0000000000
       913        10  CHL1      O3             -6.4617404979      -10.3430413999       18.6718037588  MEMB      10              0.0000000000
       914        10  CHL1      H3'            -7.0379426731      -11.1118952965       18.8402483551  MEMB      10              0.0000000000
       915        10  CHL1      C4             -8.0403088303      -10.0296462548       16.8992707404  MEMB      10              0.0000000000
       916        10  CHL1      H4A            -8.5177071199      -11.0190018090       17.0484045456  MEMB      10              0.0000000000
       917        10  CHL1      H4B            -8.5306573460       -9.3140740799       17.5853928677  MEMB      10              0.0000000000
       918        10  CHL1      C5             -8.1836615196       -9.6226673208       15.4608262404  MEMB      10              0.0000000000
       919        10  CHL1      C6             -8.8368858221       -8.5074061479       15.1251940400  MEMB      10              0.0000000000
       920        10  CHL1      H6             -9.3741357361       -7.9182580991       15.8853514335  MEMB      10              0.0000000000
       921        10  CHL1      C7             -8.9068940256       -8.0452915778       13.7114042486  MEMB      10              0.0000000000
       922        10  CHL1      H7A            -9.9307073996       -7.8067540404       13.4542611211  MEMB      10              0.0000000000
       923        10  CHL1      H7B            -8.2925861030       -7.1280285997       13.5718984301  MEMB      10              0.0000000000
       924        10  CHL1      C8             -8.5809412598       -9.1453871665       12.6903890566  MEMB      10              0.0000000000
       925        10  CHL1      H8             -9.4633994370       -9.8280477620       12.6505415360  MEMB      10              0.0000000000
       926        10  CHL1      C14            -8.2970153056       -8.5344153405       11.3591681925  MEMB      10              0.0000000000
       927        10  CHL1      H14            -7.4569037644       -7.7998447003       11.4831379653  MEMB      10              0.0000000000
       928        10  CHL1      C15            -9.3341489395       -7.6908586754       10.8641588734  MEMB      10              0.0000000000
       929        10  CHL1      H15A          -10.3065155618       -8.2107201377       10.9911025098  MEMB      10              0.0000000000
       930        10  CHL1      H15B           -9.2748493172       -6.7515764811       11.4201410837  MEMB      10              0.0000000000
       931        10  CHL1      C16            -8.9782907883       -7.4848277732        9.4188315252  MEMB      10              0.0000000000
       932        10  CHL1      H16A           -9.8353227833       -7.7193981034        8.8008368602  MEMB      10              0.0000000000
       933        10  CHL1      H16B           -8.6559454536       -6.4502479589        9.2793333386  MEMB      10              0.0000000000
       934        10  CHL1      C17            -7.8996021293       -8.4391520531        9.0577396757  MEMB      10              0.0000000000
       935        10  CHL1      H17            -6.9956964351       -7.8010589818        9.1734463440  MEMB      10              0.0000000000
       936        10  CHL1      C13            -8.0010527363       -9.4279641341       10.1864080284  MEMB      10              0.0000000000
       937        10  CHL1      C18            -9.1716683370      -10.3902161925        9.8216302039  MEMB      10              0.0000000000
       938        10  CHL1      H18A           -9.4672452484      -11.0448614313       10.6582991113  MEMB      10              0.0000000000
       939        10  CHL1      H18B          -10.0833613989       -9.8611369377        9.4641775040  MEMB      10              0.0000000000
       940        10  CHL1      H18C           -8.8275030076      -11.0272035646        8.9823071898  MEMB      10              0.0000000000
       941        10  CHL1      C12            -6.6990720915      -10.0811011786       10.5491544959  MEMB      10              0.0000000000
       942        10  CHL1      H12A           -6.4470040584      -10.7921332691        9.7495791348  MEMB      10              0.0000000000
       943        10  CHL1      H12B           -5.9207530207       -9.2835225926       10.5738549853  MEMB      10              0.0000000000
       944        10  CHL1      C11            -6.8584567141      -10.7869363781       11.9031207455  MEMB      10              0.0000000000
       945        10  CHL1      H11A           -7.6259126517      -11.5689800443       11.7267303667  MEMB      10              0.0000000000
       946        10  CHL1      H11B           -5.9258238539      -11.3018440144       12.1778398970  MEMB      10              0.0000000000
       947        10  CHL1      C9             -7.3237290772       -9.8580798266       13.0642547277  MEMB      10              0.0000000000
       948        10  CHL1      H9             -6.5790498528       -9.0227939123       13.1394702402  MEMB      10              0.0000000000
       949        10  CHL1      C10            -7.4227656450      -10.5169251741       14.4587715251  MEMB      10              0.0000000000
       950        10  CHL1      C19            -8.2504560507      -11.8153680048       14.3354389934  MEMB      10              0.0000000000
       951        10  CHL1      H19A           -8.3681969627      -12.3161210873       15.3167630756  MEMB      10              0.0000000000
       952        10  CHL1      H19B           -9.2627626492      -11.6013851403       13.9341461760  MEMB      10              0.0000000000
       953        10  CHL1      H19C           -7.7370195166      -12.5390606637       13.6710167227  MEMB      10              0.0000000000
       954        10  CHL1      C1             -5.9884004261      -10.8581081458       14.9648589098  MEMB      10              0.0000000000
       955        10  CHL1      H1A            -5.5806750525      -11.7016460072       14.3668147075  MEMB      10              0.0000000000
       956        10  CHL1      H1B            -5.3776566881       -9.9487331305       14.7675752421  MEMB      10              0.0000000000
       957        10  CHL1      C2             -5.8933156323      -11.2092310895       16.4646114984  MEMB      10              0.0000000000
       958        10  CHL1      H2A            -4.8432605289      -11.3778186743       16.7852610129  MEMB      10              0.0000000000
       959        10  CHL1      H2B            -6.4607468561      -12.1432803199       16.6642450277  MEMB      10              0.0000000000
       960        10  CHL1      C20            -8.0117145907       -8.9625243230        7.6469976310  MEMB      10              0.0000000000
       961        10  CHL1      H20            -8.9414445235       -9.5513275676        7.4417398301  MEMB      10              0.0000000000
       962        10  CHL1      C21            -6.7688651076       -9.7852334119        7.3215482613  MEMB      10              0.0000000000
       963        10  CHL1      H21A           -6.5360857873       -9.8338336804        6.2416642342  MEMB      10              0.0000000000
       964        10  CHL1      H21B           -6.9623199978      -10.8167193272        7.6581324685  MEMB      10              0.0000000000
       965        10  CHL1      H21C           -5.8950180818       -9.3591193278        7.8528111295  MEMB      10              0.0000000000
       966        10  CHL1      C22            -8.1109402964       -7.8501850743        6.7001791827  MEMB      10              0.0000000000
       967        10  CHL1      H22A           -8.9508564152       -7.2090202293        6.8690094855  MEMB      10              0.0000000000
       968        10  CHL1      H22B           -7.2217047545       -7.1812124363        6.7142425475  MEMB      10              0.0000000000
       969        10  CHL1      C23            -8.4292283436       -8.3916724597        5.3867551223  MEMB      10              0.0000000000
       970        10  CHL1      H23A           -7.8377335840       -9.2234663586        4.9656982097  MEMB      10              0.0000000000
       971        10  CHL1      H23B           -9.5233972118       -8.4920973207        5.0938662181  MEMB      10              0.0000000000
       972        10  CHL1      C24            -7.9095206199       -7.2781105341        4.7146729565  MEMB      10              0.0000000000
       973        10  CHL1      H24A           -8.7202381238       -6.5416549410        4.9663990277  MEMB      10              0.0000000000
       974        10  CHL1      H24B           -6.9076411081       -6.8065858085        4.7646171115  MEMB      10              0.0000000000
       975        10  CHL1      C25            -8.0554874696       -7.8678091169        3.4731969034  MEMB      10              0.0000000000
       976        10  CHL1      H25            -9.1871238129       -7.6246155267        3.4903798673  MEMB      10              0.0000000000
       977        10  CHL1      C26            -7.6055441185       -6.9550559896        2.8360753046  MEMB      10              0.0000000000
       978        10  CHL1      H26A           -6.6986692712       -6.7381745491        2.2807115478  MEMB      10              0.0000000000
       979        10  CHL1      H26B           -7.7226058759       -7.1770554832        1.8059687303  MEMB      10              0.0000000000
       980        10  CHL1      H26C           -8.3731353144       -6.1809457411        2.8864797760  MEMB      10              0.0000000000
       981        10  CHL1      C27            -7.0357948767       -8.7010217145        2.6197138992  MEMB      10              0.0000000000
       982        10  CHL1      H27A           -6.9713317838       -8.5986167778        1.4645007632  MEMB      10              0.0000000000
       983        10  CHL1      H27B           -6.0013638000       -8.2893881416        2.8054816717  MEMB      10              0.0000000000
       984        10  CHL1      H27C           -7.4357008086       -9.6600363111        2.6784653137  MEMB      10              0.0000000000
       985        11  SAPE      N              14.4501955893       -6.1583752944       21.4466785131  MEMB      11              0.0000000000
       986        11  SAPE      HN1            14.0014981022       -5.3486384889       21.9492988973  MEMB      11              0.0000000000
       987        11  SAPE      HN2            13.7069418038       -6.8694792566       21.3340861948  MEMB      11              0.0000000000
       988        11  SAPE      HN3            15.2655490489       -6.5187696522       21.9772939066  MEMB      11              0.0000000000
       989        11  SAPE      C12            14.9238194254       -5.7565149575       20.0724012247  MEMB      11              0.0000000000
       990        11  SAPE      H12A           15.4207166081       -6.6406598251       19.6164994955  MEMB      11              0.0000000000
       991        11  SAPE      H12B           15.6508485190       -4.9282110018       20.1930498181  MEMB      11              0.0000000000
       992        11  SAPE      C11            13.7677147587       -5.3533264579       19.1448564210  MEMB      11              0.0000000000
       993        11  SAPE      H11A           13.2090313078       -6.2695307399       18.8446065896  MEMB      11              0.0000000000
       994        11  SAPE      H11B           14.1846894877       -4.9138964898       18.2109529425  MEMB      11              0.0000000000
       995        11  SAPE      P              13.0997117060       -2.9067503961       19.8959897986  MEMB      11              0.0000000000
       996        11  SAPE      O13            11.8933721584       -2.1411009459       19.5109845362  MEMB      11              0.0000000000
       997        11  SAPE      O14            13.6456299065       -2.6979789350       21.2511893462  MEMB      11              0.0000000000
       998        11  SAPE      O12            12.8571861900       -4.4638096492       19.7631403275  MEMB      11              0.0000000000
       999        11  SAPE      O11            14.2558161553       -2.5795634053       18.8738180306  MEMB      11              0.0000000000
      1000        11  SAPE      C1             14.8042557349       -1.2847138647       19.1250310860  MEMB      11              0.0000000000
      1001        11  SAPE      HA             14.0275755979       -0.4894758955       19.1252086641  MEMB      11              0.0000000000
      1002        11  SAPE      HB             15.3584207337       -1.2219406002       20.1005983147  MEMB      11              0.0000000000
      1003        11  SAPE      C2             15.8356441699       -0.9146538074       18.0821317332  MEMB      11              0.0000000000
      1004        11  SAPE      HS             15.9860762018        0.1599567325       18.3078832888  MEMB      11              0.0000000000
      1005        11  SAPE      O21            15.4696184500       -1.1053204537       16.7089741022  MEMB      11              0.0000000000
      1006        11  SAPE      C21            14.3950923252       -0.5413634819       16.2848858909  MEMB      11              0.0000000000
      1007        11  SAPE      O22            13.7024649150        0.2952685271       16.8636345570  MEMB      11              0.0000000000
      1008        11  SAPE      C22            14.2050225361       -0.9903639898       14.8330830211  MEMB      11              0.0000000000
      1009        11  SAPE      H2R            14.7500265105       -0.4599099554       14.0955764029  MEMB      11              0.0000000000
      1010        11  SAPE      H2S            14.5115010175       -2.0221359600       14.6445220455  MEMB      11              0.0000000000
      1011        11  SAPE      C3             17.1280089907       -1.7188637029       18.3502292044  MEMB      11              0.0000000000
      1012        11  SAPE      HX             17.5820647057       -1.5048152619       19.3367832276  MEMB      11              0.0000000000
      1013        11  SAPE      HY             17.8132677993       -1.1370185418       17.8463386089  MEMB      11              0.0000000000
      1014        11  SAPE      O31            17.1151392211       -3.1311695536       17.9826892552  MEMB      11              0.0000000000
      1015        11  SAPE      C31            17.5600650463       -3.8001856506       16.9197546086  MEMB      11              0.0000000000
      1016        11  SAPE      O32            18.2597054675       -3.5364101373       15.9988847612  MEMB      11              0.0000000000
      1017        11  SAPE      C32            17.1082240860       -5.1683842900       16.8084834286  MEMB      11              0.0000000000
      1018        11  SAPE      H2X            16.1095650611       -5.1964308037       17.2525572462  MEMB      11              0.0000000000
      1019        11  SAPE      H2Y            17.9119523073       -5.7230256640       17.3460653689  MEMB      11              0.0000000000
      1020        11  SAPE      C23            12.8014710595       -0.7253835815       14.4491904919  MEMB      11              0.0000000000
      1021        11  SAPE      H3R            12.3640209825        0.2710813322       14.7164013056  MEMB      11              0.0000000000
      1022        11  SAPE      H3S            12.4581410064       -1.5258766684       15.1133870269  MEMB      11              0.0000000000
      1023        11  SAPE      C24            12.3471910695       -1.1693756675       13.0956616313  MEMB      11              0.0000000000
      1024        11  SAPE      H4R            11.2687614740       -1.3801090155       13.1551372895  MEMB      11              0.0000000000
      1025        11  SAPE      H4S            12.7146580991       -2.1110905178       12.7100266789  MEMB      11              0.0000000000
      1026        11  SAPE      C25            12.5880131444       -0.1891127617       12.0865462172  MEMB      11              0.0000000000
      1027        11  SAPE      H5R            12.1796026425        0.7893385693       12.3265027690  MEMB      11              0.0000000000
      1028        11  SAPE      C26            13.1575584741       -0.4699553436       10.9284737485  MEMB      11              0.0000000000
      1029        11  SAPE      H6R            13.1527404133        0.3190211687       10.1693705761  MEMB      11              0.0000000000
      1030        11  SAPE      C27            13.6738299930       -1.7929367053       10.4655236822  MEMB      11              0.0000000000
      1031        11  SAPE      H7R            14.0375218293       -1.6374351425        9.4254334588  MEMB      11              0.0000000000
      1032        11  SAPE      H7S            12.8997331594       -2.5733609730       10.4774826012  MEMB      11              0.0000000000
      1033        11  SAPE      C28            14.8228944492       -2.2055681468       11.3334366777  MEMB      11              0.0000000000
      1034        11  SAPE      H8R            15.0368577090       -1.6208916872       12.2530955768  MEMB      11              0.0000000000
      1035        11  SAPE      C29            15.7537503408       -3.0327020614       10.9389992258  MEMB      11              0.0000000000
      1036        11  SAPE      H9R            16.5912239648       -2.9101303109       11.5798711885  MEMB      11              0.0000000000
      1037        11  SAPE      C210           15.8920116052       -3.7480854607        9.6199486253  MEMB      11              0.0000000000
      1038        11  SAPE      H10R           15.2193016692       -3.2514619795        8.9202677919  MEMB      11              0.0000000000
      1039        11  SAPE      H10S           15.4492743861       -4.7320897194        9.8099524743  MEMB      11              0.0000000000
      1040        11  SAPE      C211           17.1790488220       -4.0940846373        8.9131970277  MEMB      11              0.0000000000
      1041        11  SAPE      H11R           18.0096974975       -4.1689493195        9.5116756514  MEMB      11              0.0000000000
      1042        11  SAPE      C212           17.5658145780       -4.0080108507        7.6488799449  MEMB      11              0.0000000000
      1043        11  SAPE      H12R           18.6333171315       -4.1271848097        7.3674997250  MEMB      11              0.0000000000
      1044        11  SAPE      C213           16.6433549033       -3.4660639194        6.6161439914  MEMB      11              0.0000000000
      1045        11  SAPE      H13R           15.6839071316       -3.9491052784        6.5645443990  MEMB      11              0.0000000000
      1046        11  SAPE      H13S           17.1424947898       -3.4187109047        5.6304240091  MEMB      11              0.0000000000
      1047        11  SAPE      C214           16.3363896698       -2.1371842140        7.0939597834  MEMB      11              0.0000000000
      1048        11  SAPE      H14R           15.3775072469       -1.7600964748        7.5078424120  MEMB      11              0.0000000000
      1049        11  SAPE      C215           17.2332522183       -1.3327863799        6.7891136837  MEMB      11              0.0000000000
      1050        11  SAPE      H15R           16.7584505169       -0.3872424257        6.9756791348  MEMB      11              0.0000000000
      1051        11  SAPE      C216           18.5420169587       -1.4981351764        5.9971853616  MEMB      11              0.0000000000
      1052        11  SAPE      H16R           19.1497286013       -2.3894758860        6.1103760258  MEMB      11              0.0000000000
      1053        11  SAPE      H16S           19.2767473764       -0.7195304907        6.2962030260  MEMB      11              0.0000000000
      1054        11  SAPE      C217           18.4205834688       -1.5471189605        4.4368972281  MEMB      11              0.0000000000
      1055        11  SAPE      H17R           19.3603958584       -1.7006090259        3.9519395578  MEMB      11              0.0000000000
      1056        11  SAPE      H17S           18.4523602117       -0.5932868590        4.1268315898  MEMB      11              0.0000000000
      1057        11  SAPE      C218           17.2991088712       -2.1291136295        3.5699196205  MEMB      11              0.0000000000
      1058        11  SAPE      H18R           16.2697671766       -1.8479400098        3.9405163283  MEMB      11              0.0000000000
      1059        11  SAPE      H18S           17.7227995966       -3.1224706263        3.5961237284  MEMB      11              0.0000000000
      1060        11  SAPE      C219           17.3043562677       -1.9481675979        2.0685490963  MEMB      11              0.0000000000
      1061        11  SAPE      H19R           18.1774623862       -1.7174315285        1.3635482235  MEMB      11              0.0000000000
      1062        11  SAPE      H19S           16.5782629106       -1.0994840548        2.2596120929  MEMB      11              0.0000000000
      1063        11  SAPE      C220           16.3683153377       -2.3044186601        1.1437935603  MEMB      11              0.0000000000
      1064        11  SAPE      H20R           15.3651597710       -2.4383398966        1.5534952812  MEMB      11              0.0000000000
      1065        11  SAPE      H20S           16.9079365788       -3.1006078617        0.5800343715  MEMB      11              0.0000000000
      1066        11  SAPE      H20T           16.2998145394       -1.3751920726        0.4815513668  MEMB      11              0.0000000000
      1067        11  SAPE      C33            17.2082216175       -5.5187303838       15.2791685503  MEMB      11              0.0000000000
      1068        11  SAPE      H3X            16.9056633872       -6.5679830961       15.1847739022  MEMB      11              0.0000000000
      1069        11  SAPE      H3Y            18.2716189329       -5.4843505788       14.9053927013  MEMB      11              0.0000000000
      1070        11  SAPE      C34            16.3526604708       -4.6671380117       14.3041019815  MEMB      11              0.0000000000
      1071        11  SAPE      H4X            16.7213175144       -4.8330827205       13.2705352079  MEMB      11              0.0000000000
      1072        11  SAPE      H4Y            16.5006207783       -3.5803941313       14.5266876913  MEMB      11              0.0000000000
      1073        11  SAPE      C35            14.8420376029       -4.8877279842       14.3982401806  MEMB      11              0.0000000000
      1074        11  SAPE      H5X            14.3785599310       -3.9542964038       14.0138608492  MEMB      11              0.0000000000
      1075        11  SAPE      H5Y            14.5805365446       -5.0034157774       15.4704961181  MEMB      11              0.0000000000
      1076        11  SAPE      C36            14.2072678814       -6.0287186871       13.5914199204  MEMB      11              0.0000000000
      1077        11  SAPE      H6X            13.1377094989       -6.0925081699       13.8924777634  MEMB      11              0.0000000000
      1078        11  SAPE      H6Y            14.6624595122       -7.0129415818       13.8326394374  MEMB      11              0.0000000000
      1079        11  SAPE      C37            14.2398377476       -5.7841525094       12.0774971622  MEMB      11              0.0000000000
      1080        11  SAPE      H7X            15.3051662959       -5.8804777733       11.7619663346  MEMB      11              0.0000000000
      1081        11  SAPE      H7Y            13.8353003856       -4.7952688020       11.7996574974  MEMB      11              0.0000000000
      1082        11  SAPE      C38            13.4222638809       -6.8261903797       11.3421491096  MEMB      11              0.0000000000
      1083        11  SAPE      H8X            12.3893501193       -6.9292241412       11.7493925111  MEMB      11              0.0000000000
      1084        11  SAPE      H8Y            14.0606927316       -7.6679928872       11.6184438544  MEMB      11              0.0000000000
      1085        11  SAPE      C39            13.4632287399       -6.8674851966        9.8271056571  MEMB      11              0.0000000000
      1086        11  SAPE      H9X            13.0504427140       -7.8273505275        9.4369775783  MEMB      11              0.0000000000
      1087        11  SAPE      H9Y            14.5362315180       -6.8576654098        9.5362369899  MEMB      11              0.0000000000
      1088        11  SAPE      C310           12.6566254677       -5.7310051762        9.2282690661  MEMB      11              0.0000000000
      1089        11  SAPE      H10X           12.8412425222       -4.7894586725        9.7930726045  MEMB      11              0.0000000000
      1090        11  SAPE      H10Y           11.5747534425       -5.9844478843        9.3168886244  MEMB      11              0.0000000000
      1091        11  SAPE      C311           13.0674603109       -5.4800737899        7.7886395358  MEMB      11              0.0000000000
      1092        11  SAPE      H11X           12.9310082882       -6.3810468186        7.1543798967  MEMB      11              0.0000000000
      1093        11  SAPE      H11Y           14.1354855446       -5.1759817648        7.7639079190  MEMB      11              0.0000000000
      1094        11  SAPE      C312           12.2002491124       -4.4617645862        7.1144700935  MEMB      11              0.0000000000
      1095        11  SAPE      H12X           12.3325476943       -3.4617676320        7.5954908035  MEMB      11              0.0000000000
      1096        11  SAPE      H12Y           11.1525705699       -4.7582130102        7.3688677513  MEMB      11              0.0000000000
      1097        11  SAPE      C313           12.4146673090       -4.5545810623        5.5622830778  MEMB      11              0.0000000000
      1098        11  SAPE      H13X           11.7802730126       -5.3788155498        5.1787528483  MEMB      11              0.0000000000
      1099        11  SAPE      H13Y           13.4869182370       -4.6100005207        5.3226454210  MEMB      11              0.0000000000
      1100        11  SAPE      C314           11.9701425885       -3.3384892239        4.8093870401  MEMB      11              0.0000000000
      1101        11  SAPE      H14X           12.4866688396       -2.7884093901        5.5463281440  MEMB      11              0.0000000000
      1102        11  SAPE      H14Y           10.9522944077       -3.1965650113        4.7840153189  MEMB      11              0.0000000000
      1103        11  SAPE      C315           12.4042921313       -2.4240263796        3.7323111700  MEMB      11              0.0000000000
      1104        11  SAPE      H15X           12.3320265084       -3.1643266992        2.9661237547  MEMB      11              0.0000000000
      1105        11  SAPE      H15Y           13.4535124790       -2.1608365927        3.7501451497  MEMB      11              0.0000000000
      1106        11  SAPE      C316           11.4750380719       -1.1747034746        3.5276232664  MEMB      11              0.0000000000
      1107        11  SAPE      H16X           11.1581952416       -0.5483002996        4.3574350560  MEMB      11              0.0000000000
      1108        11  SAPE      H16Y           10.4351364533       -1.2958783799        3.2224559898  MEMB      11              0.0000000000
      1109        11  SAPE      C317           12.0486446053       -0.4349241513        2.3941994977  MEMB      11              0.0000000000
      1110        11  SAPE      H17X           13.0304411896       -0.0277427404        2.6067398569  MEMB      11              0.0000000000
      1111        11  SAPE      H17Y           11.2876368289        0.3329504481        2.0485225074  MEMB      11              0.0000000000
      1112        11  SAPE      C318           12.5235940528       -1.3396536989        1.3513410092  MEMB      11              0.0000000000
      1113        11  SAPE      H18X           12.3725646686       -2.3967581419        1.2041396591  MEMB      11              0.0000000000
      1114        11  SAPE      H18Y           12.9345414286       -0.9206091923        0.4649127876  MEMB      11              0.0000000000
      1115        11  SAPE      H18Z           11.5019643071       -1.2701316528        1.1247785706  MEMB      11              0.0000000000
      1116        12  CHL1      C3              9.1188135024      -10.3371203168       17.4200521144  MEMB      12              0.0000000000
      1117        12  CHL1      H3              8.6395891727       -9.3441421718       17.5674023729  MEMB      12              0.0000000000
      1118        12  CHL1      O3              9.7090025448      -10.8186960939       18.6268481227  MEMB      12              0.0000000000
      1119        12  CHL1      H3'            10.4549143809      -10.2232785552       18.8225977463  MEMB      12              0.0000000000
      1120        12  CHL1      C4              8.0930249183      -11.3688409787       16.9632396828  MEMB      12              0.0000000000
      1121        12  CHL1      H4A             8.5232955662      -12.3907995747       16.9108351405  MEMB      12              0.0000000000
      1122        12  CHL1      H4B             7.3158408852      -11.4097451603       17.7553610445  MEMB      12              0.0000000000
      1123        12  CHL1      C5              7.5323131653      -10.9660365212       15.6269181419  MEMB      12              0.0000000000
      1124        12  CHL1      C6              6.2434490645      -10.7382009688       15.4900425528  MEMB      12              0.0000000000
      1125        12  CHL1      H6              5.5569142594      -10.9437581232       16.3275905981  MEMB      12              0.0000000000
      1126        12  CHL1      C7              5.6793610574      -10.4025979840       14.1633725829  MEMB      12              0.0000000000
      1127        12  CHL1      H7A             4.8013819737      -11.0465195946       14.1369724595  MEMB      12              0.0000000000
      1128        12  CHL1      H7B             5.4282193006       -9.3204918269       14.1021929538  MEMB      12              0.0000000000
      1129        12  CHL1      C8              6.5166591961      -10.7368133116       12.9188365865  MEMB      12              0.0000000000
      1130        12  CHL1      H8              6.5007871122      -11.8497413356       12.8436911828  MEMB      12              0.0000000000
      1131        12  CHL1      C14             6.0470903831      -10.0605864718       11.6152556983  MEMB      12              0.0000000000
      1132        12  CHL1      H14             5.9909524133       -8.9595562928       11.7322169107  MEMB      12              0.0000000000
      1133        12  CHL1      C15             4.7554218898      -10.4114654321       11.0625712800  MEMB      12              0.0000000000
      1134        12  CHL1      H15A            4.7510091011      -11.4223527901       11.4988163080  MEMB      12              0.0000000000
      1135        12  CHL1      H15B            3.7513841890      -10.0123673796       11.0610769070  MEMB      12              0.0000000000
      1136        12  CHL1      C16             4.6061801722       -9.9397108951        9.6722797447  MEMB      12              0.0000000000
      1137        12  CHL1      H16A            3.8609772727      -10.5088387631        9.0626322338  MEMB      12              0.0000000000
      1138        12  CHL1      H16B            4.1845136815       -8.8857255429        9.6731429177  MEMB      12              0.0000000000
      1139        12  CHL1      C17             6.0680033195       -9.8468337335        9.3088276131  MEMB      12              0.0000000000
      1140        12  CHL1      H17             6.2402337261       -8.7439715174        9.3395371549  MEMB      12              0.0000000000
      1141        12  CHL1      C13             6.8593658766      -10.4639707990       10.4062883515  MEMB      12              0.0000000000
      1142        12  CHL1      C18             6.8610478682      -12.0176612928       10.1656256701  MEMB      12              0.0000000000
      1143        12  CHL1      H18A            5.8530389422      -12.4110922703        9.9234489821  MEMB      12              0.0000000000
      1144        12  CHL1      H18B            7.5141551909      -12.3094137394        9.3245484591  MEMB      12              0.0000000000
      1145        12  CHL1      H18C            7.2058597162      -12.5669011064       11.0557843852  MEMB      12              0.0000000000
      1146        12  CHL1      C12             8.1752988319       -9.7818751498       10.6283270983  MEMB      12              0.0000000000
      1147        12  CHL1      H12A            8.8286435339       -9.8443872785        9.7435305082  MEMB      12              0.0000000000
      1148        12  CHL1      H12B            7.9801937530       -8.6970303287       10.8190139723  MEMB      12              0.0000000000
      1149        12  CHL1      C11             8.7791477585      -10.3692252497       11.8926558328  MEMB      12              0.0000000000
      1150        12  CHL1      H11A            9.0062996916      -11.4372298193       11.6933785105  MEMB      12              0.0000000000
      1151        12  CHL1      H11B            9.6891069438       -9.7868306987       12.0361299874  MEMB      12              0.0000000000
      1152        12  CHL1      C9              7.9021535574      -10.2265510251       13.1645241712  MEMB      12              0.0000000000
      1153        12  CHL1      H9              7.7594935843       -9.1284163356       13.3411158157  MEMB      12              0.0000000000
      1154        12  CHL1      C10             8.5136249109      -10.7842337552       14.4699330089  MEMB      12              0.0000000000
      1155        12  CHL1      C19             9.0865743943      -12.2001295645       14.1744214521  MEMB      12              0.0000000000
      1156        12  CHL1      H19A            9.5070572867      -12.6757027498       15.0815437949  MEMB      12              0.0000000000
      1157        12  CHL1      H19B            8.2714440133      -12.8471028491       13.7935443695  MEMB      12              0.0000000000
      1158        12  CHL1      H19C            9.8871094853      -12.2061860114       13.4086085649  MEMB      12              0.0000000000
      1159        12  CHL1      C1              9.5550744326       -9.7617208431       14.9656306266  MEMB      12              0.0000000000
      1160        12  CHL1      H1A            10.2558635479       -9.7196376891       14.1199101470  MEMB      12              0.0000000000
      1161        12  CHL1      H1B             9.1563285938       -8.7280642643       15.0457432100  MEMB      12              0.0000000000
      1162        12  CHL1      C2             10.1610702530      -10.1353796699       16.3302075663  MEMB      12              0.0000000000
      1163        12  CHL1      H2A            10.9492509579       -9.4278234008       16.6636866784  MEMB      12              0.0000000000
      1164        12  CHL1      H2B            10.5525058241      -11.1546554251       16.2198524449  MEMB      12              0.0000000000
      1165        12  CHL1      C20             6.2787899900      -10.3137128866        7.9511253374  MEMB      12              0.0000000000
      1166        12  CHL1      H20             5.8670951374      -11.3564359700        7.8027865877  MEMB      12              0.0000000000
      1167        12  CHL1      C21             7.6429498982      -10.2350668051        7.3210217595  MEMB      12              0.0000000000
      1168        12  CHL1      H21A            8.0771405062       -9.2465504760        7.5615831916  MEMB      12              0.0000000000
      1169        12  CHL1      H21B            7.5764960386      -10.3189047920        6.2092183952  MEMB      12              0.0000000000
      1170        12  CHL1      H21C            8.2114370603      -11.0881126319        7.7190344276  MEMB      12              0.0000000000
      1171        12  CHL1      C22             5.5117721149       -9.3273326287        7.2152464720  MEMB      12              0.0000000000
      1172        12  CHL1      H22A            4.6071430477       -8.8898442117        7.6951818787  MEMB      12              0.0000000000
      1173        12  CHL1      H22B            5.9720176014       -8.4199427710        6.7621403562  MEMB      12              0.0000000000
      1174        12  CHL1      C23             4.9436893615      -10.3791856176        6.1633262127  MEMB      12              0.0000000000
      1175        12  CHL1      H23A            5.6518653749      -10.6968987957        5.3583485459  MEMB      12              0.0000000000
      1176        12  CHL1      H23B            4.4734909465      -11.2073839499        6.6851709309  MEMB      12              0.0000000000
      1177        12  CHL1      C24             3.3997271229      -10.3093604713        5.8307944955  MEMB      12              0.0000000000
      1178        12  CHL1      H24A            3.0121279615       -9.4308713311        6.5039599132  MEMB      12              0.0000000000
      1179        12  CHL1      H24B            4.2318150890       -9.5652000180        5.8650828385  MEMB      12              0.0000000000
      1180        12  CHL1      C25             2.8026193652      -10.7251184522        4.0852400303  MEMB      12              0.0000000000
      1181        12  CHL1      H25             1.9907362354      -11.4499770000        4.1449200766  MEMB      12              0.0000000000
      1182        12  CHL1      C26             1.8485139687       -9.7181283982        3.0401823300  MEMB      12              0.0000000000
      1183        12  CHL1      H26A            2.8089910112       -9.6749595022        2.6736869512  MEMB      12              0.0000000000
      1184        12  CHL1      H26B            1.5888254233       -9.7629652762        1.9299530052  MEMB      12              0.0000000000
      1185        12  CHL1      H26C            1.6466972284       -8.6209289646        3.1007498929  MEMB      12              0.0000000000
      1186        12  CHL1      C27             4.0523912229      -11.2376217281        3.0477011547  MEMB      12              0.0000000000
      1187        12  CHL1      H27A            3.9093275584      -11.5532113106        1.9680494413  MEMB      12              0.0000000000
      1188        12  CHL1      H27B            4.8892165820      -10.5153960036        2.8406821691  MEMB      12              0.0000000000
      1189        12  CHL1      H27C            4.5833787628      -12.0936609699        3.4112979318  MEMB      12              0.0000000000
      1190        13  SLPC      N             -14.2034310787        5.5893534334       18.8398593458  MEMB      13              0.0000000000
      1191        13  SLPC      C13           -12.8047210500        6.1106709165       18.9487928987  MEMB      13              0.0000000000
      1192        13  SLPC      H13A          -12.2408599330        5.4904922005       19.6360174651  MEMB      13              0.0000000000
      1193        13  SLPC      H13B          -12.3239133798        6.0489626757       17.9708299925  MEMB      13              0.0000000000
      1194        13  SLPC      H13C          -12.7723600905        7.1338199915       19.2951186014  MEMB      13              0.0000000000
      1195        13  SLPC      C14           -14.9892305524        6.4021022819       17.8598048048  MEMB      13              0.0000000000
      1196        13  SLPC      H14A          -15.8848724082        6.8267424999       18.2804882344  MEMB      13              0.0000000000
      1197        13  SLPC      H14B          -14.4005665698        7.1641693930       17.3639824838  MEMB      13              0.0000000000
      1198        13  SLPC      H14C          -15.3247253812        5.7558967177       17.0363904593  MEMB      13              0.0000000000
      1199        13  SLPC      C15           -14.8757976111        5.7086752623       20.1680493313  MEMB      13              0.0000000000
      1200        13  SLPC      H15A          -14.5539963470        4.9255849722       20.8598176498  MEMB      13              0.0000000000
      1201        13  SLPC      H15B          -14.6120704660        6.6479993995       20.6226183605  MEMB      13              0.0000000000
      1202        13  SLPC      H15C          -15.9475649627        5.6519447920       20.0332421461  MEMB      13              0.0000000000
      1203        13  SLPC      C12           -14.1474548583        4.1040373165       18.4079247727  MEMB      13              0.0000000000
      1204        13  SLPC      H12A          -15.1458674718        3.7552885508       18.1495040259  MEMB      13              0.0000000000
      1205        13  SLPC      H12B          -13.8092420676        3.5162895449       19.2496836125  MEMB      13              0.0000000000
      1206        13  SLPC      C11           -13.2652701608        3.6553633625       17.2079356503  MEMB      13              0.0000000000
      1207        13  SLPC      H11A          -13.4079400746        2.5655190918       17.0107664449  MEMB      13              0.0000000000
      1208        13  SLPC      H11B          -12.1858628315        3.7875145441       17.4318137810  MEMB      13              0.0000000000
      1209        13  SLPC      P             -14.8681887474        4.0126849815       15.1924815504  MEMB      13              0.0000000000
      1210        13  SLPC      O13           -14.8127508331        2.6361860669       14.6489685644  MEMB      13              0.0000000000
      1211        13  SLPC      O14           -16.0576144160        4.4244765358       15.9776550653  MEMB      13              0.0000000000
      1212        13  SLPC      O12           -13.5807530478        4.3741597561       16.0472012493  MEMB      13              0.0000000000
      1213        13  SLPC      O11           -14.5517199527        4.9997230214       14.0846360458  MEMB      13              0.0000000000
      1214        13  SLPC      C1            -14.4863911781        6.3985312472       14.2070600871  MEMB      13              0.0000000000
      1215        13  SLPC      HA            -14.7327296166        6.7873451455       15.2199732147  MEMB      13              0.0000000000
      1216        13  SLPC      HB            -13.5784005348        6.8055139371       13.7443469374  MEMB      13              0.0000000000
      1217        13  SLPC      C2            -15.4608004869        6.8820696551       13.2485938132  MEMB      13              0.0000000000
      1218        13  SLPC      HS            -16.3156425800        6.9844737320       13.9727626024  MEMB      13              0.0000000000
      1219        13  SLPC      O21           -15.1231452607        5.9009633006       12.0040178476  MEMB      13              0.0000000000
      1220        13  SLPC      C21           -16.2889086124        5.7639894284       11.4002902518  MEMB      13              0.0000000000
      1221        13  SLPC      O22           -17.0556071836        6.3535948412       11.9163923185  MEMB      13              0.0000000000
      1222        13  SLPC      C22           -17.0692180425        5.1711767868       10.1506409662  MEMB      13              0.0000000000
      1223        13  SLPC      H2R           -16.2183381691        5.0461473778        9.5411816311  MEMB      13              0.0000000000
      1224        13  SLPC      H2S           -17.4615410503        4.2898257800       10.6211976482  MEMB      13              0.0000000000
      1225        13  SLPC      C3            -15.4024938615        8.4020476243       12.9794034521  MEMB      13              0.0000000000
      1226        13  SLPC      HX            -15.1993835509        8.9996429072       13.8792328757  MEMB      13              0.0000000000
      1227        13  SLPC      HY            -16.4168571016        8.8445672163       12.7199578482  MEMB      13              0.0000000000
      1228        13  SLPC      O31           -14.3649188068        8.4206443677       12.0272367100  MEMB      13              0.0000000000
      1229        13  SLPC      C31           -14.4366592816        9.2526868477       11.0619946625  MEMB      13              0.0000000000
      1230        13  SLPC      O32           -15.1300401052       10.2605782199       11.0497633151  MEMB      13              0.0000000000
      1231        13  SLPC      C32           -13.5634953010        8.6425974559        9.8509737945  MEMB      13              0.0000000000
      1232        13  SLPC      H2X           -13.3647246903        7.5700388381       10.0753224121  MEMB      13              0.0000000000
      1233        13  SLPC      H2Y           -12.7601688354        9.3206917950       10.0777401114  MEMB      13              0.0000000000
      1234        13  SLPC      C23           -18.3449777735        5.8482298881        9.2923868930  MEMB      13              0.0000000000
      1235        13  SLPC      H3R           -18.2225927369        6.8365446501        8.8219208308  MEMB      13              0.0000000000
      1236        13  SLPC      H3S           -19.2350039409        6.2406760908        9.8043104921  MEMB      13              0.0000000000
      1237        13  SLPC      C24           -18.7734846008        5.0302203517        8.0899139943  MEMB      13              0.0000000000
      1238        13  SLPC      H4R           -19.7125895237        4.5199208906        8.2375452668  MEMB      13              0.0000000000
      1239        13  SLPC      H4S           -17.9796052447        4.2797463166        7.9209980641  MEMB      13              0.0000000000
      1240        13  SLPC      C25           -19.0798742008        5.7938421512        6.8307414510  MEMB      13              0.0000000000
      1241        13  SLPC      H5R           -18.1142761181        6.0561948472        6.5130821303  MEMB      13              0.0000000000
      1242        13  SLPC      H5S           -19.7170765777        6.6975239195        6.9330244636  MEMB      13              0.0000000000
      1243        13  SLPC      C26           -19.2589494801        4.9414606846        5.5989979753  MEMB      13              0.0000000000
      1244        13  SLPC      H6R           -20.0923049067        4.3114152415        5.8756577463  MEMB      13              0.0000000000
      1245        13  SLPC      H6S           -18.3418262027        4.3380252448        5.4004904452  MEMB      13              0.0000000000
      1246        13  SLPC      C27           -19.5049444716        5.7201917155        4.3318210528  MEMB      13              0.0000000000
      1247        13  SLPC      H7R           -20.2389561415        6.5836531234        4.4837344415  MEMB      13              0.0000000000
      1248        13  SLPC      H7S           -19.7175778911        5.1228129310        3.4470654665  MEMB      13              0.0000000000
      1249        13  SLPC      C28           -18.3278864378        6.3745754627        3.8194665709  MEMB      13              0.0000000000
      1250        13  SLPC      H8R           -18.3505201390        6.8276517314        4.7993453411  MEMB      13              0.0000000000
      1251        13  SLPC      H8S           -18.8243498086        7.0369769174        3.1636153868  MEMB      13              0.0000000000
      1252        13  SLPC      C29           -16.9320201970        5.9112882122        3.4766674771  MEMB      13              0.0000000000
      1253        13  SLPC      H9R           -16.7765618659        4.9615286615        3.9797271558  MEMB      13              0.0000000000
      1254        13  SLPC      C210          -15.8134807650        6.5660862108        3.0068215179  MEMB      13              0.0000000000
      1255        13  SLPC      H10R          -14.8535450067        6.1165548643        3.1980506494  MEMB      13              0.0000000000
      1256        13  SLPC      C211          -15.4428607971        7.9723292582        2.6276725743  MEMB      13              0.0000000000
      1257        13  SLPC      H11R          -15.7278207651        8.4429802343        3.4919934676  MEMB      13              0.0000000000
      1258        13  SLPC      H11S          -15.9566992316        8.4314915106        1.7417901533  MEMB      13              0.0000000000
      1259        13  SLPC      C212          -14.2503862332        8.6992686267        3.1181457322  MEMB      13              0.0000000000
      1260        13  SLPC      H12R          -14.3071581629        9.4633394943        3.9512038968  MEMB      13              0.0000000000
      1261        13  SLPC      C213          -13.2742243671        8.8141720519        2.2929426666  MEMB      13              0.0000000000
      1262        13  SLPC      H13R          -12.4088874143        9.3543259434        2.6548481113  MEMB      13              0.0000000000
      1263        13  SLPC      C214          -13.2728281376        8.2972435955        0.9153829498  MEMB      13              0.0000000000
      1264        13  SLPC      H14R          -13.9107778422        7.3914774518        0.8089064841  MEMB      13              0.0000000000
      1265        13  SLPC      H14S          -12.2222548880        8.0903198201        0.6908043638  MEMB      13              0.0000000000
      1266        13  SLPC      C215          -13.6566108714        9.3668421955       -0.0953342733  MEMB      13              0.0000000000
      1267        13  SLPC      H15R          -13.2146257526       10.3343390850        0.1405170638  MEMB      13              0.0000000000
      1268        13  SLPC      H15S          -14.6860722450        9.6962014394        0.1107073884  MEMB      13              0.0000000000
      1269        13  SLPC      C216          -13.1383289006        8.9912703358       -1.5210771192  MEMB      13              0.0000000000
      1270        13  SLPC      H16R          -12.0413233498        9.1154805019       -1.4964957102  MEMB      13              0.0000000000
      1271        13  SLPC      H16S          -13.4410968055        9.6860372809       -2.3036866604  MEMB      13              0.0000000000
      1272        13  SLPC      C217          -13.4792058400        7.5969836137       -2.1357526812  MEMB      13              0.0000000000
      1273        13  SLPC      H17R          -13.5779400198        6.8662883749       -1.3136744063  MEMB      13              0.0000000000
      1274        13  SLPC      H17S          -12.6967652195        7.4419088857       -2.8801081415  MEMB      13              0.0000000000
      1275        13  SLPC      C218          -14.5959381476        7.3615254578       -3.1382004116  MEMB      13              0.0000000000
      1276        13  SLPC      H18R          -14.7911239089        8.2867907434       -3.7393455657  MEMB      13              0.0000000000
      1277        13  SLPC      H18S          -15.2341380717        7.3027537734       -2.2351961413  MEMB      13              0.0000000000
      1278        13  SLPC      H18T          -15.4595343717        6.7025372847       -3.2187518729  MEMB      13              0.0000000000
      1279        13  SLPC      C33           -13.5764317705        9.0241170641        8.2815700054  MEMB      13              0.0000000000
      1280        13  SLPC      H3X           -13.8665862431       10.0667460329        8.1513534149  MEMB      13              0.0000000000
      1281        13  SLPC      H3Y           -14.3379379156        8.7792403831        7.5607868204  MEMB      13              0.0000000000
      1282        13  SLPC      C34           -12.7173728434        8.2278408806        7.2926789336  MEMB      13              0.0000000000
      1283        13  SLPC      H4X           -11.7956316570        8.1626215677        7.8637372983  MEMB      13              0.0000000000
      1284        13  SLPC      H4Y           -12.6597928953        8.8839461820        6.3919775204  MEMB      13              0.0000000000
      1285        13  SLPC      C35           -13.1420403186        6.7727806347        6.9086738931  MEMB      13              0.0000000000
      1286        13  SLPC      H5X           -14.1093217917        6.6511570133        6.3632578881  MEMB      13              0.0000000000
      1287        13  SLPC      H5Y           -13.2434506845        6.2292345146        7.8810322780  MEMB      13              0.0000000000
      1288        13  SLPC      C36           -12.1049594577        6.0095330117        6.1368338289  MEMB      13              0.0000000000
      1289        13  SLPC      H6X           -11.1630498220        6.5104719761        6.4478247222  MEMB      13              0.0000000000
      1290        13  SLPC      H6Y           -12.2605962693        6.1716541279        5.0490156352  MEMB      13              0.0000000000
      1291        13  SLPC      C37           -12.1226236603        4.5090823875        6.4929304308  MEMB      13              0.0000000000
      1292        13  SLPC      H7X           -11.9426456286        4.3822118108        7.5883494634  MEMB      13              0.0000000000
      1293        13  SLPC      H7Y           -11.2798811473        4.0393237734        5.9459218719  MEMB      13              0.0000000000
      1294        13  SLPC      C38           -13.4182417566        3.7582190684        6.1172903602  MEMB      13              0.0000000000
      1295        13  SLPC      H8X           -14.3034489105        4.2794349526        6.5468927508  MEMB      13              0.0000000000
      1296        13  SLPC      H8Y           -13.4045693052        2.7174502972        6.5181005806  MEMB      13              0.0000000000
      1297        13  SLPC      C39           -13.6703672822        3.6795769555        4.6120318654  MEMB      13              0.0000000000
      1298        13  SLPC      H9X           -12.7820084877        3.2921073241        4.0677075049  MEMB      13              0.0000000000
      1299        13  SLPC      H9Y           -13.8438111018        4.7187125550        4.2633277427  MEMB      13              0.0000000000
      1300        13  SLPC      C310          -14.9257902585        2.8507603764        4.3027119274  MEMB      13              0.0000000000
      1301        13  SLPC      H10X          -15.7519097214        3.2724658871        4.9202766469  MEMB      13              0.0000000000
      1302        13  SLPC      H10Y          -14.7646812229        1.7947169654        4.6146480531  MEMB      13              0.0000000000
      1303        13  SLPC      C311          -15.3164392450        2.9360845723        2.8166569152  MEMB      13              0.0000000000
      1304        13  SLPC      H11X          -14.6974945276        2.1961739933        2.2640126396  MEMB      13              0.0000000000
      1305        13  SLPC      H11Y          -15.0557099211        3.9602505621        2.4759962449  MEMB      13              0.0000000000
      1306        13  SLPC      C312          -16.8101009736        2.6918750129        2.5218262814  MEMB      13              0.0000000000
      1307        13  SLPC      H12X          -17.4476375197        3.2323075647        3.2449525401  MEMB      13              0.0000000000
      1308        13  SLPC      H12Y          -16.9797909187        1.6235635814        2.7271700088  MEMB      13              0.0000000000
      1309        13  SLPC      C313          -17.2934921514        2.9884629251        1.0833835141  MEMB      13              0.0000000000
      1310        13  SLPC      H13X          -18.3039567144        2.5557275891        0.9085333375  MEMB      13              0.0000000000
      1311        13  SLPC      H13Y          -16.6143979816        2.5327356367        0.3322887740  MEMB      13              0.0000000000
      1312        13  SLPC      C314          -17.6216608313        4.4343633226        0.7849476868  MEMB      13              0.0000000000
      1313        13  SLPC      H14X          -16.8021643631        5.1088463015        1.1012817123  MEMB      13              0.0000000000
      1314        13  SLPC      H14Y          -18.5755608663        4.7026573128        1.2904275451  MEMB      13              0.0000000000
      1315        13  SLPC      C315          -17.8008179371        4.6481819167       -0.6893316506  MEMB      13              0.0000000000
      1316        13  SLPC      H15X          -18.5169567520        3.9705182642       -1.1858477762  MEMB      13              0.0000000000
      1317        13  SLPC      H15Y          -16.7763059020        4.4775205332       -1.0822601540  MEMB      13              0.0000000000
      1318        13  SLPC      C316          -18.2150089678        6.0607931694       -0.9655560562  MEMB      13              0.0000000000
      1319        13  SLPC      H16X          -17.1929436881        6.5200650495       -0.9207089883  MEMB      13              0.0000000000
      1320        13  SLPC      H16Y          -18.7747401680        6.5699618012       -0.1654168432  MEMB      13              0.0000000000
      1321        13  SLPC      C317          -18.9933637326        6.2071013789       -2.2956866121  MEMB      13              0.0000000000
      1322        13  SLPC      H17X          -18.3374815502        5.9182205036       -3.1354069418  MEMB      13              0.0000000000
      1323        13  SLPC      H17Y          -19.1470155077        7.2556065683       -2.5242391957  MEMB      13              0.0000000000
      1324        13  SLPC      C318          -20.4328095900        5.7456996219       -2.4019782079  MEMB      13              0.0000000000
      1325        13  SLPC      H18X          -20.4990486955        4.6591986528       -2.2293714199  MEMB      13              0.0000000000
      1326        13  SLPC      H18Y          -20.8165320441        5.9953332244       -3.4202691510  MEMB      13              0.0000000000
      1327        13  SLPC      H18Z          -21.0500732208        6.3061490858       -1.6656773032  MEMB      13              0.0000000000
      1328        14  OSM       N             -12.1356948458       11.6209044157       22.2227589315  MEMB      14              0.0000000000
      1329        14  OSM       C15           -11.7756067385       10.3294129969       21.5574827980  MEMB      14              0.0000000000
      1330        14  OSM       H15A          -10.7678068428       10.4144326874       21.1321335138  MEMB      14              0.0000000000
      1331        14  OSM       H15B          -12.4258762849       10.1068501745       20.7240065374  MEMB      14              0.0000000000
      1332        14  OSM       H15C          -11.8065686534        9.5442311859       22.2874307799  MEMB      14              0.0000000000
      1333        14  OSM       C14           -13.3259526923       11.4112064955       23.0813029329  MEMB      14              0.0000000000
      1334        14  OSM       H14A          -13.1744105313       10.6810984636       23.8530265008  MEMB      14              0.0000000000
      1335        14  OSM       H14B          -14.1628995854       11.1335243047       22.4476621721  MEMB      14              0.0000000000
      1336        14  OSM       H14C          -13.6687278174       12.3395511814       23.5447119909  MEMB      14              0.0000000000
      1337        14  OSM       C13           -11.0316332012       12.0220524832       23.1442681686  MEMB      14              0.0000000000
      1338        14  OSM       H13A          -10.1083134269       12.1891369119       22.5871287443  MEMB      14              0.0000000000
      1339        14  OSM       H13B          -10.8687431893       11.2342739195       23.8629814751  MEMB      14              0.0000000000
      1340        14  OSM       H13C          -11.2743496123       12.9358571235       23.6782669944  MEMB      14              0.0000000000
      1341        14  OSM       C12           -12.4184354923       12.6884604139       21.1608682798  MEMB      14              0.0000000000
      1342        14  OSM       H12A          -13.0177519520       13.4938620942       21.5818705976  MEMB      14              0.0000000000
      1343        14  OSM       H12B          -13.0659055439       12.2313451057       20.4200732791  MEMB      14              0.0000000000
      1344        14  OSM       C11           -11.2104717006       13.2949298426       20.3986056413  MEMB      14              0.0000000000
      1345        14  OSM       H11A          -10.6160467548       13.9286002080       21.0962681654  MEMB      14              0.0000000000
      1346        14  OSM       H11B          -11.5688172319       13.9908966551       19.5978655067  MEMB      14              0.0000000000
      1347        14  OSM       P              -8.8962125221       12.0282355074       19.9855251540  MEMB      14              0.0000000000
      1348        14  OSM       O13            -8.5070456131       12.5453761612       21.3183240051  MEMB      14              0.0000000000
      1349        14  OSM       O14            -8.5996705705       10.6223933641       19.6858794181  MEMB      14              0.0000000000
      1350        14  OSM       O11            -8.3591227212       12.9027659505       18.7736079102  MEMB      14              0.0000000000
      1351        14  OSM       O12           -10.4538036311       12.2333634118       19.8213793322  MEMB      14              0.0000000000
      1352        14  OSM       C1S            -9.0173119008       12.7621601606       17.5037600562  MEMB      14              0.0000000000
      1353        14  OSM       H1S           -10.1122130686       12.5855145908       17.6156579877  MEMB      14              0.0000000000
      1354        14  OSM       H1T            -8.4883083733       11.9954226634       16.9253856600  MEMB      14              0.0000000000
      1355        14  OSM       NF             -9.5153776194       13.5589929416       15.2387131031  MEMB      14              0.0000000000
      1356        14  OSM       HNF            -8.8636530095       13.7029957856       14.5095736222  MEMB      14              0.0000000000
      1357        14  OSM       C2S            -9.0351732197       13.9299397582       16.4826706558  MEMB      14              0.0000000000
      1358        14  OSM       H2S            -9.6844732006       14.6662769008       16.9992946395  MEMB      14              0.0000000000
      1359        14  OSM       C3S            -7.7703901480       14.5045802754       16.1180763368  MEMB      14              0.0000000000
      1360        14  OSM       H3S            -6.9630301060       13.7517406780       16.0704059738  MEMB      14              0.0000000000
      1361        14  OSM       O3             -7.6750885786       15.4948323377       16.9418704467  MEMB      14              0.0000000000
      1362        14  OSM       HO3            -7.5781306210       15.0286506629       17.7711130489  MEMB      14              0.0000000000
      1363        14  OSM       C4S            -7.5884642862       15.6687193519       15.2404910636  MEMB      14              0.0000000000
      1364        14  OSM       H4S            -7.5279895631       16.7635134651       15.4721924143  MEMB      14              0.0000000000
      1365        14  OSM       C5S            -7.0770025679       15.5869806599       14.1241895436  MEMB      14              0.0000000000
      1366        14  OSM       H5S            -7.2362432974       14.5882760557       13.8778247266  MEMB      14              0.0000000000
      1367        14  OSM       C6S            -6.7656886182       16.6079494265       13.1034035393  MEMB      14              0.0000000000
      1368        14  OSM       H6S            -6.1408871721       17.5228965831       13.0611073956  MEMB      14              0.0000000000
      1369        14  OSM       H6T            -7.1482264740       17.3507165189       13.6989458910  MEMB      14              0.0000000000
      1370        14  OSM       C7S            -6.9338441319       16.2063889542       11.6951807700  MEMB      14              0.0000000000
      1371        14  OSM       H7S            -6.3173271435       15.4340668114       11.5680132625  MEMB      14              0.0000000000
      1372        14  OSM       H7T            -6.1866550862       16.4995954599       10.9415637704  MEMB      14              0.0000000000
      1373        14  OSM       C8S            -8.3030470190       15.7858803135       11.2245342089  MEMB      14              0.0000000000
      1374        14  OSM       H8S            -8.9144338558       16.6001856127       10.8644925392  MEMB      14              0.0000000000
      1375        14  OSM       H8T            -8.9995751671       15.3790011060       11.9448955570  MEMB      14              0.0000000000
      1376        14  OSM       C9S            -8.4983498757       15.9723694183        9.7952323889  MEMB      14              0.0000000000
      1377        14  OSM       H9S            -7.5322433291       15.5023513054        9.8327091258  MEMB      14              0.0000000000
      1378        14  OSM       H9T            -7.9547545073       16.6722060352        9.1405434761  MEMB      14              0.0000000000
      1379        14  OSM       C10S           -9.9504418032       15.4126801209        9.4728820617  MEMB      14              0.0000000000
      1380        14  OSM       H10S          -10.4357058223       16.3436498840        9.5639931810  MEMB      14              0.0000000000
      1381        14  OSM       H10T          -10.3342377415       14.7175988911       10.2302550304  MEMB      14              0.0000000000
      1382        14  OSM       C11S          -10.3295651819       14.8797022257        8.0659630356  MEMB      14              0.0000000000
      1383        14  OSM       H11S          -10.0846740518       13.7903223878        7.8989390513  MEMB      14              0.0000000000
      1384        14  OSM       H11T           -9.6092386912       15.5574390497        7.5676171051  MEMB      14              0.0000000000
      1385        14  OSM       C12S          -11.6197430721       14.8594244332        7.3884048178  MEMB      14              0.0000000000
      1386        14  OSM       H12S          -11.7293924664       15.9352934283        7.1229966097  MEMB      14              0.0000000000
      1387        14  OSM       H12T          -12.2500297707       14.3804644058        8.1519856348  MEMB      14              0.0000000000
      1388        14  OSM       C13S          -11.7503275019       13.9079742623        6.2154481882  MEMB      14              0.0000000000
      1389        14  OSM       H13S          -11.1803279584       12.9752078164        6.2638638966  MEMB      14              0.0000000000
      1390        14  OSM       H13T          -11.1858523023       14.2552761836        5.4290562611  MEMB      14              0.0000000000
      1391        14  OSM       C14S          -13.0958161140       14.0659772910        5.5428766034  MEMB      14              0.0000000000
      1392        14  OSM       H14S          -13.3670780196       15.1491899608        5.6483576646  MEMB      14              0.0000000000
      1393        14  OSM       H14T          -13.7253638595       13.4283517860        6.1735361366  MEMB      14              0.0000000000
      1394        14  OSM       C15S          -13.1664188215       13.7678515454        4.0321147274  MEMB      14              0.0000000000
      1395        14  OSM       H15S          -12.2846687390       14.0523544415        3.4062329608  MEMB      14              0.0000000000
      1396        14  OSM       H15T          -14.0186172441       14.3155187482        3.5757912250  MEMB      14              0.0000000000
      1397        14  OSM       C16S          -13.3603730391       12.3238207322        3.7991712026  MEMB      14              0.0000000000
      1398        14  OSM       H16S          -14.4567037482       12.1442253306        3.7918969741  MEMB      14              0.0000000000
      1399        14  OSM       H16T          -12.9172856856       11.7339606475        4.6335138623  MEMB      14              0.0000000000
      1400        14  OSM       C17S          -12.7322815031       11.9173387433        2.4889489116  MEMB      14              0.0000000000
      1401        14  OSM       H17S          -13.3515906395       11.0598006140        2.2875236385  MEMB      14              0.0000000000
      1402        14  OSM       H17T          -11.6706133847       11.6225542142        2.5746509277  MEMB      14              0.0000000000
      1403        14  OSM       C18S          -12.9264934979       12.7085368117        1.2240119778  MEMB      14              0.0000000000
      1404        14  OSM       H18S          -12.3552045307       13.6330098464        1.1226853723  MEMB      14              0.0000000000
      1405        14  OSM       H18T          -14.0079487279       12.8744411941        0.9995654371  MEMB      14              0.0000000000
      1406        14  OSM       H18U          -12.4403578211       12.0604434299        0.4652023205  MEMB      14              0.0000000000
      1407        14  OSM       C1F           -10.7800882692       13.4523304918       15.0634519133  MEMB      14              0.0000000000
      1408        14  OSM       OF            -11.5665687569       13.5969604025       15.9908364458  MEMB      14              0.0000000000
      1409        14  OSM       C2F           -11.1654297133       13.2637550628       13.6427201682  MEMB      14              0.0000000000
      1410        14  OSM       H2F           -10.3268387093       12.8216414881       13.0780231510  MEMB      14              0.0000000000
      1411        14  OSM       H2G           -11.4274758210       14.2599866443       13.2063722250  MEMB      14              0.0000000000
      1412        14  OSM       C3F           -12.3273596909       12.2799065644       13.5880737460  MEMB      14              0.0000000000
      1413        14  OSM       H3F           -12.9598799296       12.3438257404       12.6761283134  MEMB      14              0.0000000000
      1414        14  OSM       H3G           -12.8759858795       12.5665944735       14.4795292095  MEMB      14              0.0000000000
      1415        14  OSM       C4F           -12.3106361535       10.9219257705       14.2419465025  MEMB      14              0.0000000000
      1416        14  OSM       H4F           -13.3175348487       10.4849830396       14.0707751580  MEMB      14              0.0000000000
      1417        14  OSM       H4G           -12.1821167871       11.0166708037       15.3557635177  MEMB      14              0.0000000000
      1418        14  OSM       C5F           -11.2439140221       10.1127021207       13.6131812139  MEMB      14              0.0000000000
      1419        14  OSM       H5F           -11.2003563960        9.1653528373       14.1921925616  MEMB      14              0.0000000000
      1420        14  OSM       H5G           -10.3073609807       10.6947872560       13.7026581564  MEMB      14              0.0000000000
      1421        14  OSM       C6F           -11.4709996972        9.9298184016       12.1232013644  MEMB      14              0.0000000000
      1422        14  OSM       H6F           -11.6812761890       10.8864832097       11.5896169669  MEMB      14              0.0000000000
      1423        14  OSM       H6G           -12.3343289768        9.2623125260       12.0530941126  MEMB      14              0.0000000000
      1424        14  OSM       C7F           -10.2840767718        9.2532982387       11.4520499660  MEMB      14              0.0000000000
      1425        14  OSM       H7F           -10.1187903177        8.3238374428       12.0382885962  MEMB      14              0.0000000000
      1426        14  OSM       H7G            -9.4013908998        9.9137076980       11.5475529351  MEMB      14              0.0000000000
      1427        14  OSM       C8F           -10.5379343851        8.9376376281        9.9800571409  MEMB      14              0.0000000000
      1428        14  OSM       H8F           -10.9679765473        9.8265424905        9.4459330395  MEMB      14              0.0000000000
      1429        14  OSM       H8G           -11.2677381643        8.1174211987        9.9349157004  MEMB      14              0.0000000000
      1430        14  OSM       C9F            -9.5831198378        8.3082116177        9.0914820227  MEMB      14              0.0000000000
      1431        14  OSM       H9F            -9.0887266253        7.4050702808        9.4973551098  MEMB      14              0.0000000000
      1432        14  OSM       C10F           -8.9279162881        9.0564198583        8.2334149651  MEMB      14              0.0000000000
      1433        14  OSM       H10F           -8.0858478162        8.6101787067        7.7531885182  MEMB      14              0.0000000000
      1434        14  OSM       C11F           -8.9192400062       10.5180171211        7.9822686779  MEMB      14              0.0000000000
      1435        14  OSM       H11F           -7.8583815055       10.8620953982        7.9432794136  MEMB      14              0.0000000000
      1436        14  OSM       H11G           -9.3182648347       11.1322509654        8.8018017396  MEMB      14              0.0000000000
      1437        14  OSM       C12F           -9.6142923769       10.6925040629        6.6819070831  MEMB      14              0.0000000000
      1438        14  OSM       H12F           -9.5780847072       11.7781779139        6.4397279360  MEMB      14              0.0000000000
      1439        14  OSM       H12G          -10.6220643855       10.2372768637        6.6531625899  MEMB      14              0.0000000000
      1440        14  OSM       C13F           -8.9114140163       10.0597235872        5.5384754819  MEMB      14              0.0000000000
      1441        14  OSM       H13F           -8.5959845887        9.0005592048        5.7127186571  MEMB      14              0.0000000000
      1442        14  OSM       H13G           -8.0387291661       10.7514059923        5.5269218332  MEMB      14              0.0000000000
      1443        14  OSM       C14F           -9.7758654383       10.2262439283        4.2962383417  MEMB      14              0.0000000000
      1444        14  OSM       H14F          -10.0732831062       11.2847390107        4.2080631240  MEMB      14              0.0000000000
      1445        14  OSM       H14G          -10.5039284378        9.3880118820        4.2547647511  MEMB      14              0.0000000000
      1446        14  OSM       C15F           -9.1366409246       10.1516397288        2.9754674670  MEMB      14              0.0000000000
      1447        14  OSM       H15F           -8.8265067076        9.0915542213        3.1354083735  MEMB      14              0.0000000000
      1448        14  OSM       H15G           -8.3011057823       10.9100788790        2.9643093319  MEMB      14              0.0000000000
      1449        14  OSM       C16F           -9.8678872041       10.0904396847        1.6132178756  MEMB      14              0.0000000000
      1450        14  OSM       H16F          -10.6851332596        9.3914423908        1.7607783046  MEMB      14              0.0000000000
      1451        14  OSM       H16G           -9.5303057495        9.4463667670        0.7658725266  MEMB      14              0.0000000000
      1452        14  OSM       C17F           -9.6776802718       11.3818795518        0.7727889216  MEMB      14              0.0000000000
      1453        14  OSM       H17F          -10.0780314587       12.1410529176        1.4624564774  MEMB      14              0.0000000000
      1454        14  OSM       H17G          -10.3010325292       11.1859588716       -0.1240388588  MEMB      14              0.0000000000
      1455        14  OSM       C18F           -8.3108327319       11.9869260346        0.2631933378  MEMB      14              0.0000000000
      1456        14  OSM       H18F           -7.6558237603       11.2966361144       -0.3160954301  MEMB      14              0.0000000000
      1457        14  OSM       H18G           -7.6553316095       12.3301027820        1.0992874497  MEMB      14              0.0000000000
      1458        14  OSM       H18H           -8.5312207193       12.8362222753       -0.4087479103  MEMB      14              0.0000000000
      1459        15  SAPS      N              12.2295272934        6.7894228077       20.8147107577  MEMB      15              0.0000000000
      1460        15  SAPS      HN1            11.4737560890        7.3623106148       21.2484423640  MEMB      15              0.0000000000
      1461        15  SAPS      HN2            11.9254895684        6.4103159034       19.8979922239  MEMB      15              0.0000000000
      1462        15  SAPS      HN3            12.5713478796        6.0242226563       21.4299972857  MEMB      15              0.0000000000
      1463        15  SAPS      C12            13.3920522760        7.6896332047       20.5304063668  MEMB      15              0.0000000000
      1464        15  SAPS      H12A           13.7795536445        7.9883392318       21.4745010112  MEMB      15              0.0000000000
      1465        15  SAPS      C13            14.5680078860        7.0124672758       19.8027301364  MEMB      15              0.0000000000
      1466        15  SAPS      O13A           14.5901703321        5.7520350067       19.7286590056  MEMB      15              0.0000000000
      1467        15  SAPS      O13B           15.4540133655        7.7602966878       19.3064119158  MEMB      15              0.0000000000
      1468        15  SAPS      C11            12.9706829257        8.9930551954       19.8143338626  MEMB      15              0.0000000000
      1469        15  SAPS      H11A           12.7153947246        8.7891477206       18.7520374576  MEMB      15              0.0000000000
      1470        15  SAPS      H11B           13.8744967935        9.6633964960       19.8380939405  MEMB      15              0.0000000000
      1471        15  SAPS      P              11.5768553334       11.1175983409       20.0595439843  MEMB      15              0.0000000000
      1472        15  SAPS      O13            10.2217943256       11.4992463980       20.4967629944  MEMB      15              0.0000000000
      1473        15  SAPS      O14            12.7202439173       11.9117819144       20.5466662490  MEMB      15              0.0000000000
      1474        15  SAPS      O12            11.8541171697        9.5964071788       20.4820864458  MEMB      15              0.0000000000
      1475        15  SAPS      O11            11.6354884630       11.1146507417       18.4696033973  MEMB      15              0.0000000000
      1476        15  SAPS      C1             11.6013253517       12.4036784473       17.8492611595  MEMB      15              0.0000000000
      1477        15  SAPS      HA             10.7458393203       13.0122326520       18.2338460389  MEMB      15              0.0000000000
      1478        15  SAPS      HB             12.5385274536       12.9772033403       18.0616223762  MEMB      15              0.0000000000
      1479        15  SAPS      C2             11.4656716100       12.2718158422       16.3106295743  MEMB      15              0.0000000000
      1480        15  SAPS      HS             10.5802872024       11.6511308886       16.0550813333  MEMB      15              0.0000000000
      1481        15  SAPS      O21            12.7048171867       11.7268259763       15.7841926634  MEMB      15              0.0000000000
      1482        15  SAPS      C21            12.7773022793       10.3996953123       15.7811295794  MEMB      15              0.0000000000
      1483        15  SAPS      O22            11.8623526153        9.6358133517       16.0386574342  MEMB      15              0.0000000000
      1484        15  SAPS      C22            14.1854791405        9.9035681053       15.3642288166  MEMB      15              0.0000000000
      1485        15  SAPS      H2R            14.7557963730       10.7597856731       14.9561308314  MEMB      15              0.0000000000
      1486        15  SAPS      H2S            14.6759363266        9.5440394037       16.2920431074  MEMB      15              0.0000000000
      1487        15  SAPS      C3             11.1743590808       13.6945872993       15.7439085390  MEMB      15              0.0000000000
      1488        15  SAPS      HX             12.1469605621       14.2043521666       15.8388952919  MEMB      15              0.0000000000
      1489        15  SAPS      HY             10.5479248790       14.2162850427       16.4964492553  MEMB      15              0.0000000000
      1490        15  SAPS      O31            10.5173080626       13.7965805048       14.4323012410  MEMB      15              0.0000000000
      1491        15  SAPS      C31            11.1601336630       13.3116738323       13.3454658679  MEMB      15              0.0000000000
      1492        15  SAPS      O32            12.2480542862       12.7841529279       13.3697153322  MEMB      15              0.0000000000
      1493        15  SAPS      C32            10.4316571293       13.6019229250       12.0157972379  MEMB      15              0.0000000000
      1494        15  SAPS      H2X            10.1268914856       14.6608648903       11.9144086110  MEMB      15              0.0000000000
      1495        15  SAPS      H2Y             9.5590158587       12.9229600346       12.0781775241  MEMB      15              0.0000000000
      1496        15  SAPS      C23            14.0473642111        8.7366618784       14.3362090318  MEMB      15              0.0000000000
      1497        15  SAPS      H3R            13.6578364662        9.1315743390       13.3715880819  MEMB      15              0.0000000000
      1498        15  SAPS      H3S            13.3010883351        8.0570336220       14.7310186891  MEMB      15              0.0000000000
      1499        15  SAPS      C24            15.1282186267        7.6772578643       14.0814038823  MEMB      15              0.0000000000
      1500        15  SAPS      H4R            14.8290786998        6.9394980011       13.3322969844  MEMB      15              0.0000000000
      1501        15  SAPS      H4S            15.5334360358        7.1214622871       14.9460357496  MEMB      15              0.0000000000
      1502        15  SAPS      C25            16.1046255650        8.3395944880       13.2971324720  MEMB      15              0.0000000000
      1503        15  SAPS      H5R            16.9743749322        8.5500664325       13.9507913571  MEMB      15              0.0000000000
      1504        15  SAPS      C26            15.9692563003        8.7215553958       11.9899953584  MEMB      15              0.0000000000
      1505        15  SAPS      H6R            16.6075281152        9.4923656247       11.5999839625  MEMB      15              0.0000000000
      1506        15  SAPS      C27            14.9838873245        8.6818414690       10.8964443547  MEMB      15              0.0000000000
      1507        15  SAPS      H7R            14.8105815022        9.7651651754       10.6684931928  MEMB      15              0.0000000000
      1508        15  SAPS      H7S            14.1553347739        8.1811300185       11.3776564327  MEMB      15              0.0000000000
      1509        15  SAPS      C28            15.3891778198        7.9532635278        9.6320443953  MEMB      15              0.0000000000
      1510        15  SAPS      H8R            16.1589647722        7.1854222069        9.8483952975  MEMB      15              0.0000000000
      1511        15  SAPS      C29            15.4185982518        8.4430823736        8.3633337114  MEMB      15              0.0000000000
      1512        15  SAPS      H9R            15.9032513114        7.8222052134        7.5974136690  MEMB      15              0.0000000000
      1513        15  SAPS      C210           15.0794563677        9.7908947715        7.7861942997  MEMB      15              0.0000000000
      1514        15  SAPS      H10R           14.3884816260       10.3143165897        8.4708474377  MEMB      15              0.0000000000
      1515        15  SAPS      H10S           14.5003679969        9.6057124320        6.8585478107  MEMB      15              0.0000000000
      1516        15  SAPS      C211           16.2285762982       10.6874383945        7.3622240421  MEMB      15              0.0000000000
      1517        15  SAPS      H11R           17.1908526015       10.2297556724        7.0743246866  MEMB      15              0.0000000000
      1518        15  SAPS      C212           16.1358229769       12.0210445965        7.3118730319  MEMB      15              0.0000000000
      1519        15  SAPS      H12R           16.9948810955       12.5938926131        6.9147754897  MEMB      15              0.0000000000
      1520        15  SAPS      C213           14.8880531926       12.7970639785        7.6711071836  MEMB      15              0.0000000000
      1521        15  SAPS      H13R           15.0923026392       13.4039640132        8.5828027388  MEMB      15              0.0000000000
      1522        15  SAPS      H13S           14.0113808780       12.1702760934        7.9069076598  MEMB      15              0.0000000000
      1523        15  SAPS      C214           14.4926165008       13.7393925828        6.5957767683  MEMB      15              0.0000000000
      1524        15  SAPS      H14R           15.2660799878       13.8860439687        5.8510148594  MEMB      15              0.0000000000
      1525        15  SAPS      C215           13.3009597619       14.2252742148        6.2753036956  MEMB      15              0.0000000000
      1526        15  SAPS      H15R           13.2606616832       15.0455663757        5.5391334234  MEMB      15              0.0000000000
      1527        15  SAPS      C216           12.0254527488       13.8870645827        6.9669581796  MEMB      15              0.0000000000
      1528        15  SAPS      H16R           11.5997222638       14.7800717633        7.4588640025  MEMB      15              0.0000000000
      1529        15  SAPS      H16S           12.1738746845       13.1115320489        7.7512342771  MEMB      15              0.0000000000
      1530        15  SAPS      C217           11.0684119199       13.3755041068        5.8741820500  MEMB      15              0.0000000000
      1531        15  SAPS      H17R           10.8446690847       14.2080058314        5.1737948158  MEMB      15              0.0000000000
      1532        15  SAPS      H17S           10.0993976061       13.1397919367        6.3697248399  MEMB      15              0.0000000000
      1533        15  SAPS      C218           11.6345218363       12.1963201681        5.0315839688  MEMB      15              0.0000000000
      1534        15  SAPS      H18R           10.8521808340       11.4486875872        4.8113085425  MEMB      15              0.0000000000
      1535        15  SAPS      H18S           12.4276874842       11.6792904790        5.6203230742  MEMB      15              0.0000000000
      1536        15  SAPS      C219           12.1568614647       12.5904302194        3.6525239434  MEMB      15              0.0000000000
      1537        15  SAPS      H19R           12.9369732198       13.3569322879        3.8335860226  MEMB      15              0.0000000000
      1538        15  SAPS      H19S           11.3272586948       13.0678146290        3.0881942395  MEMB      15              0.0000000000
      1539        15  SAPS      C220           12.7653318752       11.4861275541        2.7777096291  MEMB      15              0.0000000000
      1540        15  SAPS      H20R           13.3576801786       11.9896221305        1.9864774897  MEMB      15              0.0000000000
      1541        15  SAPS      H20S           12.0023286957       10.8408643202        2.2901737749  MEMB      15              0.0000000000
      1542        15  SAPS      H20T           13.4521498975       10.8251170335        3.3456399700  MEMB      15              0.0000000000
      1543        15  SAPS      C33            11.2365021911       13.2812823086       10.7201349739  MEMB      15              0.0000000000
      1544        15  SAPS      H3X            12.1079753862       13.9079436017       10.5149515361  MEMB      15              0.0000000000
      1545        15  SAPS      H3Y            10.5980857674       13.4608080203        9.8305705581  MEMB      15              0.0000000000
      1546        15  SAPS      C34            11.7922452086       11.8829885856       10.7156719918  MEMB      15              0.0000000000
      1547        15  SAPS      H4X            12.1396036342       11.5284052004       11.6952045496  MEMB      15              0.0000000000
      1548        15  SAPS      H4Y            12.6815227659       11.7827957521       10.0510234305  MEMB      15              0.0000000000
      1549        15  SAPS      C35            10.7790714645       10.8878775400       10.3420541971  MEMB      15              0.0000000000
      1550        15  SAPS      H5X             9.9761463061       11.2763219957        9.6822439287  MEMB      15              0.0000000000
      1551        15  SAPS      H5Y            10.2781310240       10.4980857579       11.2530359834  MEMB      15              0.0000000000
      1552        15  SAPS      C36            11.5918261326        9.8562143461        9.6486809216  MEMB      15              0.0000000000
      1553        15  SAPS      H6X            12.1306516600        9.1689232064       10.3686865307  MEMB      15              0.0000000000
      1554        15  SAPS      H6Y            12.2340302554       10.1592802370        8.7991150224  MEMB      15              0.0000000000
      1555        15  SAPS      C37            10.5979271055        9.1131246498        8.9449713137  MEMB      15              0.0000000000
      1556        15  SAPS      H7X             9.9810998106        8.8022037595        9.7663433508  MEMB      15              0.0000000000
      1557        15  SAPS      H7Y            11.1093669868        8.2002865977        8.8499515257  MEMB      15              0.0000000000
      1558        15  SAPS      C38             9.6514836508        9.6768880753        7.8624655897  MEMB      15              0.0000000000
      1559        15  SAPS      H8X             8.9507662261       10.4206311935        8.2528475900  MEMB      15              0.0000000000
      1560        15  SAPS      H8Y             8.7248062964        9.1369730335        7.9055808249  MEMB      15              0.0000000000
      1561        15  SAPS      C39            10.1159773785        9.8704104564        6.3461753803  MEMB      15              0.0000000000
      1562        15  SAPS      H9X            10.8137299117       10.7013368980        6.5935249931  MEMB      15              0.0000000000
      1563        15  SAPS      H9Y             9.2602016096        9.9828740711        5.6826613819  MEMB      15              0.0000000000
      1564        15  SAPS      C310           10.8973685716        8.8678202963        5.4207960136  MEMB      15              0.0000000000
      1565        15  SAPS      H10X           11.0174848134        7.8731717618        5.2130096068  MEMB      15              0.0000000000
      1566        15  SAPS      H10Y           11.2950797662        8.9365110836        6.3588262432  MEMB      15              0.0000000000
      1567        15  SAPS      C311           11.7364396744        8.6691831225        4.1510096206  MEMB      15              0.0000000000
      1568        15  SAPS      H11X           12.5939020954        9.2951164638        4.3629955756  MEMB      15              0.0000000000
      1569        15  SAPS      H11Y           10.8563374928        8.9342601252        3.5146085854  MEMB      15              0.0000000000
      1570        15  SAPS      C312           12.1908454739        7.1951817331        3.6513741783  MEMB      15              0.0000000000
      1571        15  SAPS      H12X           12.4584431902        7.3477336134        2.6014860750  MEMB      15              0.0000000000
      1572        15  SAPS      H12Y           11.2975721820        6.4966361599        3.7294225521  MEMB      15              0.0000000000
      1573        15  SAPS      C313           13.4529087797        6.3666922255        4.1324407797  MEMB      15              0.0000000000
      1574        15  SAPS      H13X           13.8184312244        5.3956025077        3.8998385068  MEMB      15              0.0000000000
      1575        15  SAPS      H13Y           12.7397313238        5.7317816185        4.7535422295  MEMB      15              0.0000000000
      1576        15  SAPS      C314           14.8238437591        7.0547769438        4.6444865886  MEMB      15              0.0000000000
      1577        15  SAPS      H14X           15.4985694880        6.5552990133        5.3911494523  MEMB      15              0.0000000000
      1578        15  SAPS      H14Y           14.7001806068        7.9855607308        5.2261317578  MEMB      15              0.0000000000
      1579        15  SAPS      C315           15.7292058538        7.3962839634        3.6255649931  MEMB      15              0.0000000000
      1580        15  SAPS      H15X           14.9544707167        7.6583655702        2.8671335780  MEMB      15              0.0000000000
      1581        15  SAPS      H15Y           16.2531201905        6.4194042222        3.4955852954  MEMB      15              0.0000000000
      1582        15  SAPS      C316           16.5151506305        8.5950406622        4.1457711989  MEMB      15              0.0000000000
      1583        15  SAPS      H16X           17.3258728512        8.3164065665        4.8523683951  MEMB      15              0.0000000000
      1584        15  SAPS      H16Y           15.8770123868        9.3401308016        4.6981691107  MEMB      15              0.0000000000
      1585        15  SAPS      C317           16.9582889791        9.3231579660        2.9206572883  MEMB      15              0.0000000000
      1586        15  SAPS      H17X           16.3699307813        8.8932305851        2.0704650764  MEMB      15              0.0000000000
      1587        15  SAPS      H17Y           18.0339262041        9.1128181424        2.7633472960  MEMB      15              0.0000000000
      1588        15  SAPS      C318           16.7100332728       10.8140639273        3.0347785205  MEMB      15              0.0000000000
      1589        15  SAPS      H18X           16.9108619459       11.2884517568        2.0534968032  MEMB      15              0.0000000000
      1590        15  SAPS      H18Y           17.3956847699       11.2004847070        3.8189096618  MEMB      15              0.0000000000
      1591        15  SAPS      H18Z           15.6674518951       11.0602418820        3.3375039849  MEMB      15              0.0000000000
      1592        16  OSM       N              -0.6242685737       18.1580146911       20.1275384425  MEMB      16              0.0000000000
      1593        16  OSM       C15            -1.2825655595       18.4957025982       21.4111949962  MEMB      16              0.0000000000
      1594        16  OSM       H15A           -2.1970524253       17.9435837905       21.4946993889  MEMB      16              0.0000000000
      1595        16  OSM       H15B           -1.4348413081       19.5595667837       21.5241669222  MEMB      16              0.0000000000
      1596        16  OSM       H15C           -0.6432781359       18.1227196466       22.2163754926  MEMB      16              0.0000000000
      1597        16  OSM       C14            -1.4237298973       18.6586985733       18.9867201643  MEMB      16              0.0000000000
      1598        16  OSM       H14A           -2.1262718362       17.8864167705       18.6829337073  MEMB      16              0.0000000000
      1599        16  OSM       H14B           -0.8143642947       18.9116370096       18.1282957854  MEMB      16              0.0000000000
      1600        16  OSM       H14C           -1.9705823671       19.5379434361       19.2775571951  MEMB      16              0.0000000000
      1601        16  OSM       C13             0.7484821409       18.7666723314       20.1133827692  MEMB      16              0.0000000000
      1602        16  OSM       H13A            1.4617191085       18.1036796975       20.6234539580  MEMB      16              0.0000000000
      1603        16  OSM       H13B            0.7903595398       19.6949813686       20.6709084228  MEMB      16              0.0000000000
      1604        16  OSM       H13C            1.1055386657       18.9126024617       19.1056713313  MEMB      16              0.0000000000
      1605        16  OSM       C12            -0.5399256669       16.6334262859       20.0430248288  MEMB      16              0.0000000000
      1606        16  OSM       H12A            0.1578443420       16.3620752884       19.2612019858  MEMB      16              0.0000000000
      1607        16  OSM       H12B           -1.5090030854       16.2358731322       19.7721019415  MEMB      16              0.0000000000
      1608        16  OSM       C11            -0.1549967537       15.8466996768       21.3216782649  MEMB      16              0.0000000000
      1609        16  OSM       H11A           -0.0374018859       14.7722378559       21.0181408217  MEMB      16              0.0000000000
      1610        16  OSM       H11B           -0.9988635099       15.8522652558       22.0488772171  MEMB      16              0.0000000000
      1611        16  OSM       P               2.4206731720       15.6997899148       21.8855401485  MEMB      16              0.0000000000
      1612        16  OSM       O13             3.3978417155       16.6061364025       22.5136172779  MEMB      16              0.0000000000
      1613        16  OSM       O14             2.3262052598       14.3157812908       22.3856517851  MEMB      16              0.0000000000
      1614        16  OSM       O11             2.5913490693       15.6737931581       20.3151540948  MEMB      16              0.0000000000
      1615        16  OSM       O12             0.9943857712       16.4037536324       21.9628370173  MEMB      16              0.0000000000
      1616        16  OSM       C1S             3.6707851749       16.3269363934       19.6664223932  MEMB      16              0.0000000000
      1617        16  OSM       H1S             4.6434409204       16.1593832931       20.1915686990  MEMB      16              0.0000000000
      1618        16  OSM       H1T             3.4828223730       17.4100023831       19.5805711370  MEMB      16              0.0000000000
      1619        16  OSM       NF              2.6351373745       16.2919480758       17.4441180462  MEMB      16              0.0000000000
      1620        16  OSM       HNF             1.9088669029       15.6276549370       17.3360390730  MEMB      16              0.0000000000
      1621        16  OSM       C2S             3.7391328682       15.7955718711       18.2367435708  MEMB      16              0.0000000000
      1622        16  OSM       H2S             4.7236229494       16.1207912544       17.8007989430  MEMB      16              0.0000000000
      1623        16  OSM       C3S             3.7148682807       14.2903650519       18.2725917612  MEMB      16              0.0000000000
      1624        16  OSM       H3S             2.8002988699       13.8645548851       18.7443732995  MEMB      16              0.0000000000
      1625        16  OSM       O3              4.8631829962       13.7623985147       18.9411099989  MEMB      16              0.0000000000
      1626        16  OSM       HO3             5.2433601910       14.4838639444       19.4460120131  MEMB      16              0.0000000000
      1627        16  OSM       C4S             3.6772587994       13.8640520718       16.8468817837  MEMB      16              0.0000000000
      1628        16  OSM       H4S             4.6795583305       14.0528204320       16.4207073777  MEMB      16              0.0000000000
      1629        16  OSM       C5S             2.6924799442       13.1353891725       16.2152550640  MEMB      16              0.0000000000
      1630        16  OSM       H5S             1.9213240501       12.6541669206       16.8130736008  MEMB      16              0.0000000000
      1631        16  OSM       C6S             2.5970176558       12.6113700178       14.7960499060  MEMB      16              0.0000000000
      1632        16  OSM       H6S             2.2913001445       11.5395063129       14.6835084002  MEMB      16              0.0000000000
      1633        16  OSM       H6T             3.5532069490       12.4718839193       14.3511483429  MEMB      16              0.0000000000
      1634        16  OSM       C7S             2.3314472799       13.5044357473       13.6817114764  MEMB      16              0.0000000000
      1635        16  OSM       H7S             2.5024253298       12.8901916344       12.7609337844  MEMB      16              0.0000000000
      1636        16  OSM       H7T             3.0247538307       14.3872677497       13.7451211362  MEMB      16              0.0000000000
      1637        16  OSM       C8S             0.9447585540       13.8130785612       13.7533587597  MEMB      16              0.0000000000
      1638        16  OSM       H8S             0.8820492361       14.4046579150       14.6883316172  MEMB      16              0.0000000000
      1639        16  OSM       H8T             0.4584688061       12.8086272961       13.8595930861  MEMB      16              0.0000000000
      1640        16  OSM       C9S             0.6390809500       14.5037635285       12.4560921199  MEMB      16              0.0000000000
      1641        16  OSM       H9S             1.5380720561       15.0030491465       12.0131973897  MEMB      16              0.0000000000
      1642        16  OSM       H9T            -0.0961239709       15.2791253931       12.7274313254  MEMB      16              0.0000000000
      1643        16  OSM       C10S            0.1354219605       13.4628219756       11.4561528581  MEMB      16              0.0000000000
      1644        16  OSM       H10S           -0.7736890934       13.0023830121       11.9067332190  MEMB      16              0.0000000000
      1645        16  OSM       H10T            0.9156166266       12.6748281543       11.3379446670  MEMB      16              0.0000000000
      1646        16  OSM       C11S           -0.0966996535       14.0055993947       10.0490744011  MEMB      16              0.0000000000
      1647        16  OSM       H11S           -0.6233569582       14.9809195333       10.0985465039  MEMB      16              0.0000000000
      1648        16  OSM       H11T           -0.7318637856       13.3031431659        9.4662901095  MEMB      16              0.0000000000
      1649        16  OSM       C12S            1.2005876993       14.1251621845        9.2483989323  MEMB      16              0.0000000000
      1650        16  OSM       H12S            1.6653367358       13.1088959514        9.1768610823  MEMB      16              0.0000000000
      1651        16  OSM       H12T            1.9426322488       14.7346610431        9.8150976069  MEMB      16              0.0000000000
      1652        16  OSM       C13S            0.9037948960       14.6777362476        7.8282340499  MEMB      16              0.0000000000
      1653        16  OSM       H13S            0.4297628609       15.6744328235        7.8809421941  MEMB      16              0.0000000000
      1654        16  OSM       H13T            0.2769733541       13.9389501791        7.2872844544  MEMB      16              0.0000000000
      1655        16  OSM       C14S            2.1098002765       14.8091876312        6.9335791848  MEMB      16              0.0000000000
      1656        16  OSM       H14S            2.5087457902       13.7990177556        7.1391486483  MEMB      16              0.0000000000
      1657        16  OSM       H14T            2.7309451998       15.6781910672        7.2564217813  MEMB      16              0.0000000000
      1658        16  OSM       C15S            2.0671872179       14.7083428575        5.4274071326  MEMB      16              0.0000000000
      1659        16  OSM       H15S            1.5565813788       13.7697906840        5.1506948272  MEMB      16              0.0000000000
      1660        16  OSM       H15T            3.0818758718       14.5937135897        5.0278594050  MEMB      16              0.0000000000
      1661        16  OSM       C16S            1.5514583521       15.9995582773        4.8720585751  MEMB      16              0.0000000000
      1662        16  OSM       H16S            2.1355669420       16.8216653082        5.3541266119  MEMB      16              0.0000000000
      1663        16  OSM       H16T            0.5038384624       16.0765886569        5.2198355703  MEMB      16              0.0000000000
      1664        16  OSM       C17S            1.6292823506       16.1333772621        3.3561816148  MEMB      16              0.0000000000
      1665        16  OSM       H17S            2.6456356112       16.4755418444        3.0576849050  MEMB      16              0.0000000000
      1666        16  OSM       H17T            0.8851543375       16.9276810148        3.1128990556  MEMB      16              0.0000000000
      1667        16  OSM       C18S            1.2790250520       14.8984692594        2.5408534269  MEMB      16              0.0000000000
      1668        16  OSM       H18S            1.0068025021       15.2358004239        1.5173499417  MEMB      16              0.0000000000
      1669        16  OSM       H18T            0.3946226791       14.3750333307        2.9660467787  MEMB      16              0.0000000000
      1670        16  OSM       H18U            2.1138840186       14.1728900782        2.4514953855  MEMB      16              0.0000000000
      1671        16  OSM       C1F             2.4565671128       17.5143458465       17.0457905033  MEMB      16              0.0000000000
      1672        16  OSM       OF              3.2424743980       18.4062374458       17.3293072859  MEMB      16              0.0000000000
      1673        16  OSM       C2F             1.2104696877       17.7365135542       16.2782415798  MEMB      16              0.0000000000
      1674        16  OSM       H2F             0.3490205175       17.6933919337       16.9752137582  MEMB      16              0.0000000000
      1675        16  OSM       H2G             1.0905255589       16.8920203891       15.5644958106  MEMB      16              0.0000000000
      1676        16  OSM       C3F             1.2724703502       19.1308829867       15.6368111563  MEMB      16              0.0000000000
      1677        16  OSM       H3F             2.2922572651       19.3433934287       15.2361001337  MEMB      16              0.0000000000
      1678        16  OSM       H3G             1.0768540112       19.8685948852       16.4447980581  MEMB      16              0.0000000000
      1679        16  OSM       C4F             0.3076657385       19.3475056498       14.4681169022  MEMB      16              0.0000000000
      1680        16  OSM       H4F             0.2593320897       20.4405630872       14.2471209337  MEMB      16              0.0000000000
      1681        16  OSM       H4G            -0.7132515404       18.9788861688       14.7039646766  MEMB      16              0.0000000000
      1682        16  OSM       C5F             0.8456217077       18.6972932637       13.1923124450  MEMB      16              0.0000000000
      1683        16  OSM       H5F             0.9162052183       17.5974097987       13.3390543256  MEMB      16              0.0000000000
      1684        16  OSM       H5G             1.8868760967       19.0708897510       13.0609121509  MEMB      16              0.0000000000
      1685        16  OSM       C6F             0.0141774634       19.0648286454       11.9500473186  MEMB      16              0.0000000000
      1686        16  OSM       H6F             0.0646755717       20.1644391493       11.7877011472  MEMB      16              0.0000000000
      1687        16  OSM       H6G            -1.0538571613       18.8141014730       12.1409809051  MEMB      16              0.0000000000
      1688        16  OSM       C7F             0.5134507026       18.3964820922       10.6584793287  MEMB      16              0.0000000000
      1689        16  OSM       H7F            -0.2119383099       18.5686332144        9.8273764874  MEMB      16              0.0000000000
      1690        16  OSM       H7G             0.6023261218       17.3027425039       10.8464996885  MEMB      16              0.0000000000
      1691        16  OSM       C8F             1.8672751603       18.9590009526       10.2029708566  MEMB      16              0.0000000000
      1692        16  OSM       H8F             2.5659925076       18.9442397951       11.0605323362  MEMB      16              0.0000000000
      1693        16  OSM       H8G             1.7154502010       20.0302564674        9.9295300698  MEMB      16              0.0000000000
      1694        16  OSM       C9F             2.4509327927       18.1371350249        9.0855225086  MEMB      16              0.0000000000
      1695        16  OSM       H9F             2.3939928244       17.0491184699        9.1730338929  MEMB      16              0.0000000000
      1696        16  OSM       C10F            2.9264706625       18.6239210108        7.9509144345  MEMB      16              0.0000000000
      1697        16  OSM       H10F            3.4106238227       17.9551503541        7.2199608624  MEMB      16              0.0000000000
      1698        16  OSM       C11F            2.9560603602       20.0711043198        7.6249543236  MEMB      16              0.0000000000
      1699        16  OSM       H11F            4.0000849964       20.0828014123        7.6688625029  MEMB      16              0.0000000000
      1700        16  OSM       H11G            2.7391409952       20.8283938166        8.4068338964  MEMB      16              0.0000000000
      1701        16  OSM       C12F            2.1733699200       20.5160877705        6.4044814753  MEMB      16              0.0000000000
      1702        16  OSM       H12F            2.4270680997       19.9095108433        5.5074952707  MEMB      16              0.0000000000
      1703        16  OSM       H12G            2.3637127227       21.5773836135        6.1164007118  MEMB      16              0.0000000000
      1704        16  OSM       C13F            0.7233293235       20.3905966899        6.8612636176  MEMB      16              0.0000000000
      1705        16  OSM       H13F            0.4880511818       21.1430131998        7.6438118230  MEMB      16              0.0000000000
      1706        16  OSM       H13G            0.5531627375       19.3774873080        7.2909461109  MEMB      16              0.0000000000
      1707        16  OSM       C14F           -0.2349491182       20.5545362166        5.7495202338  MEMB      16              0.0000000000
      1708        16  OSM       H14F            0.1140619432       21.3924166991        5.1156710634  MEMB      16              0.0000000000
      1709        16  OSM       H14G           -1.2552665081       20.7961428003        6.1451882405  MEMB      16              0.0000000000
      1710        16  OSM       C15F           -0.3321538187       19.2636425468        4.9864738979  MEMB      16              0.0000000000
      1711        16  OSM       H15F           -0.6628695374       18.4386157115        5.6756241358  MEMB      16              0.0000000000
      1712        16  OSM       H15G            0.5537956162       18.9376907032        4.4056601625  MEMB      16              0.0000000000
      1713        16  OSM       C16F           -1.3584581244       19.5693734484        3.9684362087  MEMB      16              0.0000000000
      1714        16  OSM       H16F           -2.2571277100       19.7453656425        4.6098818167  MEMB      16              0.0000000000
      1715        16  OSM       H16G           -1.4925731749       18.5680312992        3.4780819233  MEMB      16              0.0000000000
      1716        16  OSM       C17F           -1.0446630586       20.8576564923        3.0299855046  MEMB      16              0.0000000000
      1717        16  OSM       H17F           -0.0920332925       20.5692161520        2.5436185513  MEMB      16              0.0000000000
      1718        16  OSM       H17G           -1.0038453640       21.7286457199        3.6803355736  MEMB      16              0.0000000000
      1719        16  OSM       C18F           -2.0186119771       21.5971098695        1.9897209624  MEMB      16              0.0000000000
      1720        16  OSM       H18F           -1.6516115609       21.6334838729        0.9370794587  MEMB      16              0.0000000000
      1721        16  OSM       H18G           -2.9904627793       21.2720333594        1.5889760393  MEMB      16              0.0000000000
      1722        16  OSM       H18H           -2.2065234718       20.6293912141        2.2866291829  MEMB      16              0.0000000000
      1723        17  CHL1      C3            -14.1120167560       -9.4622307110       17.3818346783  MEMB      17              0.0000000000
      1724        17  CHL1      H3            -13.0742206691       -9.8660615966       17.4235573077  MEMB      17              0.0000000000
      1725        17  CHL1      O3            -14.7757154411       -9.7878987141       18.5852761232  MEMB      17              0.0000000000
      1726        17  CHL1      H3'           -15.5657381265       -9.2301032731       18.5709978857  MEMB      17              0.0000000000
      1727        17  CHL1      C4            -14.0846699232       -7.9378552916       17.2885801973  MEMB      17              0.0000000000
      1728        17  CHL1      H4A           -15.1172161807       -7.5324869038       17.3863610113  MEMB      17              0.0000000000
      1729        17  CHL1      H4B           -13.5348211544       -7.5524380202       18.1689006789  MEMB      17              0.0000000000
      1730        17  CHL1      C5            -13.4460847091       -7.5168703604       15.9911540320  MEMB      17              0.0000000000
      1731        17  CHL1      C6            -12.3577194856       -6.7347165076       15.9926065428  MEMB      17              0.0000000000
      1732        17  CHL1      H6            -11.9150406559       -6.3831918171       16.9295609941  MEMB      17              0.0000000000
      1733        17  CHL1      C7            -11.7363932308       -6.1916154761       14.7568227586  MEMB      17              0.0000000000
      1734        17  CHL1      H7A           -11.4738867263       -5.1208256341       14.8728323845  MEMB      17              0.0000000000
      1735        17  CHL1      H7B           -10.7639700591       -6.6541013323       14.6383464295  MEMB      17              0.0000000000
      1736        17  CHL1      C8            -12.6700047641       -6.4355729328       13.5306353070  MEMB      17              0.0000000000
      1737        17  CHL1      H8            -13.4450295977       -5.6683623530       13.5618948220  MEMB      17              0.0000000000
      1738        17  CHL1      C14           -11.9498554824       -6.3556038791       12.2548541934  MEMB      17              0.0000000000
      1739        17  CHL1      H14           -11.2622272325       -7.1925983735       12.2989937327  MEMB      17              0.0000000000
      1740        17  CHL1      C15           -11.0577420333       -5.2191396402       12.0678476296  MEMB      17              0.0000000000
      1741        17  CHL1      H15A          -11.4646913438       -4.2775562428       12.3786628143  MEMB      17              0.0000000000
      1742        17  CHL1      H15B          -10.0316713151       -5.3117099184       12.5117000378  MEMB      17              0.0000000000
      1743        17  CHL1      C16           -11.0821904462       -5.1022774698       10.5662125556  MEMB      17              0.0000000000
      1744        17  CHL1      H16A          -11.1552552404       -4.0857071751       10.1685833907  MEMB      17              0.0000000000
      1745        17  CHL1      H16B          -10.1605714323       -5.5272746140       10.2465612432  MEMB      17              0.0000000000
      1746        17  CHL1      C17           -11.8044893320       -6.1970212895        9.9138202252  MEMB      17              0.0000000000
      1747        17  CHL1      H17           -11.2863013376       -7.0958342211        9.9037493500  MEMB      17              0.0000000000
      1748        17  CHL1      C13           -12.7583114414       -6.5244135639       10.9625645844  MEMB      17              0.0000000000
      1749        17  CHL1      C18           -13.7979278196       -5.4865660838       10.8231457964  MEMB      17              0.0000000000
      1750        17  CHL1      H18A          -14.5395562593       -5.5819167412       11.6130420676  MEMB      17              0.0000000000
      1751        17  CHL1      H18B          -13.3995834393       -4.5063308008       11.0063986365  MEMB      17              0.0000000000
      1752        17  CHL1      H18C          -14.2404742515       -5.5245250204        9.8141698531  MEMB      17              0.0000000000
      1753        17  CHL1      C12           -13.3135684462       -7.8857154758       10.8634207184  MEMB      17              0.0000000000
      1754        17  CHL1      H12A          -13.9498736435       -7.8781877640        9.9565034898  MEMB      17              0.0000000000
      1755        17  CHL1      H12B          -12.4802497821       -8.6110875218       10.7274339301  MEMB      17              0.0000000000
      1756        17  CHL1      C11           -14.1258985497       -8.0778038726       12.1334899114  MEMB      17              0.0000000000
      1757        17  CHL1      H11A          -15.0203899572       -7.4245997533       12.0550768029  MEMB      17              0.0000000000
      1758        17  CHL1      H11B          -14.4910322811       -9.1108735986       12.1266326754  MEMB      17              0.0000000000
      1759        17  CHL1      C9            -13.3268241549       -7.8020735309       13.4563869443  MEMB      17              0.0000000000
      1760        17  CHL1      H9            -12.4677692777       -8.5169257181       13.3985729029  MEMB      17              0.0000000000
      1761        17  CHL1      C10           -14.1255609877       -8.0889999441       14.7282236105  MEMB      17              0.0000000000
      1762        17  CHL1      C19           -15.5124682755       -7.4001661468       14.6153729963  MEMB      17              0.0000000000
      1763        17  CHL1      H19A          -16.1892007768       -7.9510572440       13.9305101200  MEMB      17              0.0000000000
      1764        17  CHL1      H19B          -16.0516747823       -7.3635847211       15.5802526108  MEMB      17              0.0000000000
      1765        17  CHL1      H19C          -15.4111431133       -6.3539433377       14.2636988701  MEMB      17              0.0000000000
      1766        17  CHL1      C1            -14.2788664598       -9.6289676427       14.8484674894  MEMB      17              0.0000000000
      1767        17  CHL1      H1A           -14.9187244247       -9.9879464575       14.0074863002  MEMB      17              0.0000000000
      1768        17  CHL1      H1B           -13.2793791619      -10.1059338842       14.7434359568  MEMB      17              0.0000000000
      1769        17  CHL1      C2            -14.8727336079      -10.0641047524       16.1932887093  MEMB      17              0.0000000000
      1770        17  CHL1      H2A           -14.8708327896      -11.1692665580       16.2673370365  MEMB      17              0.0000000000
      1771        17  CHL1      H2B           -15.9200379208       -9.6906248708       16.2379370207  MEMB      17              0.0000000000
      1772        17  CHL1      C20           -11.8493734445       -6.2448644256        8.4150679827  MEMB      17              0.0000000000
      1773        17  CHL1      H20           -12.8133308676       -5.7173432666        8.3953088097  MEMB      17              0.0000000000
      1774        17  CHL1      C21           -12.0682908186       -7.5536563915        7.6887250806  MEMB      17              0.0000000000
      1775        17  CHL1      H21A          -12.3617787366       -7.3576107713        6.6386208219  MEMB      17              0.0000000000
      1776        17  CHL1      H21B          -12.8025782653       -8.1584157165        8.2189247028  MEMB      17              0.0000000000
      1777        17  CHL1      H21C          -11.1277179390       -8.1074236485        7.5599538950  MEMB      17              0.0000000000
      1778        17  CHL1      C22           -10.6182749917       -5.6276849470        7.6597588376  MEMB      17              0.0000000000
      1779        17  CHL1      H22A          -10.5197055708       -4.6377331807        8.1361359021  MEMB      17              0.0000000000
      1780        17  CHL1      H22B           -9.6306054374       -5.9062850895        7.8573396529  MEMB      17              0.0000000000
      1781        17  CHL1      C23           -10.5692041545       -5.7293166531        6.0537306035  MEMB      17              0.0000000000
      1782        17  CHL1      H23A          -10.5934078324       -6.6897842133        5.5552751691  MEMB      17              0.0000000000
      1783        17  CHL1      H23B          -11.5378899434       -5.6782181139        5.8394841948  MEMB      17              0.0000000000
      1784        17  CHL1      C24           -10.0306859698       -4.5144796654        5.1898788829  MEMB      17              0.0000000000
      1785        17  CHL1      H24A          -10.2590535965       -3.5416017628        5.5534817536  MEMB      17              0.0000000000
      1786        17  CHL1      H24B           -9.1874888363       -4.6038330603        5.8232886085  MEMB      17              0.0000000000
      1787        17  CHL1      C25            -9.8860877633       -4.4626481924        3.5448351614  MEMB      17              0.0000000000
      1788        17  CHL1      H25            -9.7236611968       -5.5294565968        3.5801010555  MEMB      17              0.0000000000
      1789        17  CHL1      C26           -10.9249243516       -4.6841030291        3.0010421900  MEMB      17              0.0000000000
      1790        17  CHL1      H26A          -10.7663121624       -4.6705768218        1.9216592543  MEMB      17              0.0000000000
      1791        17  CHL1      H26B          -11.5577484719       -5.4068799206        3.5701208338  MEMB      17              0.0000000000
      1792        17  CHL1      H26C          -11.3292797025       -3.7232691962        3.0230972424  MEMB      17              0.0000000000
      1793        17  CHL1      C27            -9.1506371602       -3.3030254775        2.3100384442  MEMB      17              0.0000000000
      1794        17  CHL1      H27A           -9.3204611301       -3.3949699924        1.2952053615  MEMB      17              0.0000000000
      1795        17  CHL1      H27B           -8.9524135868       -2.1976136365        2.2648634730  MEMB      17              0.0000000000
      1796        17  CHL1      H27C           -8.1578199351       -2.9255326270        2.6147211125  MEMB      17              0.0000000000
      1797        18  CHL1      C3             17.4129880479        3.0999279995       17.4097267763  MEMB      18              0.0000000000
      1798        18  CHL1      H3             17.0327899160        4.1264017228       17.2572732300  MEMB      18              0.0000000000
      1799        18  CHL1      O3             17.5144734520        2.7158523445       18.7665653959  MEMB      18              0.0000000000
      1800        18  CHL1      H3'            16.5914566274        2.4754321527       18.9482535050  MEMB      18              0.0000000000
      1801        18  CHL1      C4             16.4623327038        2.0993519253       16.7400800248  MEMB      18              0.0000000000
      1802        18  CHL1      H4A            16.8928874009        1.1305638725       17.0643297787  MEMB      18              0.0000000000
      1803        18  CHL1      H4B            15.4366573287        2.2134861274       17.1256182218  MEMB      18              0.0000000000
      1804        18  CHL1      C5             16.3786216041        2.0873544628       15.2510729468  MEMB      18              0.0000000000
      1805        18  CHL1      C6             15.3131353468        1.8197957857       14.5214144219  MEMB      18              0.0000000000
      1806        18  CHL1      H6             14.4011887699        1.5811879044       15.0545164475  MEMB      18              0.0000000000
      1807        18  CHL1      C7             15.3219517631        1.5567974300       13.0376733099  MEMB      18              0.0000000000
      1808        18  CHL1      H7A            14.6331576869        0.7917601531       12.6835036958  MEMB      18              0.0000000000
      1809        18  CHL1      H7B            15.0725057208        2.4933484551       12.5441365826  MEMB      18              0.0000000000
      1810        18  CHL1      C8             16.6215991641        1.0928680351       12.4332239318  MEMB      18              0.0000000000
      1811        18  CHL1      H8             16.5977682802       -0.0160666166       12.4924779159  MEMB      18              0.0000000000
      1812        18  CHL1      C14            16.6683915120        1.4141753678       10.9692193082  MEMB      18              0.0000000000
      1813        18  CHL1      H14            16.4708036706        2.4967706386       10.9059053422  MEMB      18              0.0000000000
      1814        18  CHL1      C15            15.5653626866        0.8468145674       10.2057500836  MEMB      18              0.0000000000
      1815        18  CHL1      H15A           15.5326261231       -0.1703138155       10.5783357351  MEMB      18              0.0000000000
      1816        18  CHL1      H15B           14.6563643915        1.4403036338       10.3308660759  MEMB      18              0.0000000000
      1817        18  CHL1      C16            15.9991466043        0.7752783808        8.8117121073  MEMB      18              0.0000000000
      1818        18  CHL1      H16A           16.0660959513       -0.3281696928        8.7531828306  MEMB      18              0.0000000000
      1819        18  CHL1      H16B           15.2443057227        1.0954762119        8.0915730753  MEMB      18              0.0000000000
      1820        18  CHL1      C17            17.3362536586        1.5518679954        8.8008345586  MEMB      18              0.0000000000
      1821        18  CHL1      H17            17.1362295682        2.6243500257        8.7372267511  MEMB      18              0.0000000000
      1822        18  CHL1      C13            17.8901969858        1.2511617413       10.1215289551  MEMB      18              0.0000000000
      1823        18  CHL1      C18            18.3193329065       -0.1605275067        9.9075183189  MEMB      18              0.0000000000
      1824        18  CHL1      H18A           19.1617489068       -0.4959041413        9.2979374959  MEMB      18              0.0000000000
      1825        18  CHL1      H18B           19.0878416961       -0.0481507188       10.6143486257  MEMB      18              0.0000000000
      1826        18  CHL1      H18C           17.5933273978       -0.9927524989       10.0488403418  MEMB      18              0.0000000000
      1827        18  CHL1      C12            18.8932117300        2.1884329065       10.7482466595  MEMB      18              0.0000000000
      1828        18  CHL1      H12A           19.8949368979        2.1075820079       10.2781824298  MEMB      18              0.0000000000
      1829        18  CHL1      H12B           18.5415473572        3.2242525134       10.5877811343  MEMB      18              0.0000000000
      1830        18  CHL1      C11            18.8897114219        1.9547355785       12.2745184894  MEMB      18              0.0000000000
      1831        18  CHL1      H11A           19.7710515737        1.3443495172       12.5586523203  MEMB      18              0.0000000000
      1832        18  CHL1      H11B           19.1000377249        2.8980179294       12.7621012494  MEMB      18              0.0000000000
      1833        18  CHL1      C9             17.6223452844        1.9942864110       13.0652195568  MEMB      18              0.0000000000
      1834        18  CHL1      H9             17.2116313930        3.0096329050       12.8302545490  MEMB      18              0.0000000000
      1835        18  CHL1      C10            17.6826754888        2.1853053355       14.6185767920  MEMB      18              0.0000000000
      1836        18  CHL1      C19            18.3249971014        1.0463570484       15.0893126835  MEMB      18              0.0000000000
      1837        18  CHL1      H19A           19.1843112149        0.9103330170       14.4113374836  MEMB      18              0.0000000000
      1838        18  CHL1      H19B           18.7136769510        0.9225170969       16.0709817207  MEMB      18              0.0000000000
      1839        18  CHL1      H19C           17.6101879119        0.2030834160       15.1228641664  MEMB      18              0.0000000000
      1840        18  CHL1      C1             18.6231410943        3.1790412406       15.2858989734  MEMB      18              0.0000000000
      1841        18  CHL1      H1A            19.6016468778        2.8799937789       14.9797173440  MEMB      18              0.0000000000
      1842        18  CHL1      H1B            18.4059206590        4.1763838344       14.9266545272  MEMB      18              0.0000000000
      1843        18  CHL1      C2             18.7821877534        3.0630889614       16.8200480171  MEMB      18              0.0000000000
      1844        18  CHL1      H2A            19.4763839189        3.8408301838       17.1637467148  MEMB      18              0.0000000000
      1845        18  CHL1      H2B            19.2891826607        2.1452956446       17.2196324306  MEMB      18              0.0000000000
      1846        18  CHL1      C20            18.1608628761        1.3128795538        7.6123482456  MEMB      18              0.0000000000
      1847        18  CHL1      H20            18.4539727695        0.2493700741        7.6649136155  MEMB      18              0.0000000000
      1848        18  CHL1      C21            19.5752770686        1.7682038807        7.6639255502  MEMB      18              0.0000000000
      1849        18  CHL1      H21A           20.0163479013        0.9182103317        8.2381755472  MEMB      18              0.0000000000
      1850        18  CHL1      H21B           19.7687121049        2.7272056687        8.1257224384  MEMB      18              0.0000000000
      1851        18  CHL1      H21C           19.9866471122        1.7955210694        6.6465838176  MEMB      18              0.0000000000
      1852        18  CHL1      C22            17.3187935714        1.7948203580        6.3599833225  MEMB      18              0.0000000000
      1853        18  CHL1      H22A           16.2433556319        1.6480307632        6.5187147790  MEMB      18              0.0000000000
      1854        18  CHL1      H22B           17.7267402418        2.7654564046        6.0898448603  MEMB      18              0.0000000000
      1855        18  CHL1      C23            17.3431650978        0.9455724101        5.1079439429  MEMB      18              0.0000000000
      1856        18  CHL1      H23A           18.3312227506        0.7794449297        5.5147457122  MEMB      18              0.0000000000
      1857        18  CHL1      H23B           16.6917130564        0.0790510900        5.2154940819  MEMB      18              0.0000000000
      1858        18  CHL1      C24            17.0679676420        1.0877684296        3.5278200031  MEMB      18              0.0000000000
      1859        18  CHL1      H24A           16.1220702497        0.4436070059        3.5218197983  MEMB      18              0.0000000000
      1860        18  CHL1      H24B           16.7580988606        2.1084003786        3.6597344453  MEMB      18              0.0000000000
      1861        18  CHL1      C25            17.9810404334        0.6127173161        2.1159784843  MEMB      18              0.0000000000
      1862        18  CHL1      H25            18.5715066351       -0.2756502606        2.3815665478  MEMB      18              0.0000000000
      1863        18  CHL1      C26            17.1211617985        0.7987280762        0.9083503278  MEMB      18              0.0000000000
      1864        18  CHL1      H26A           16.0919439681        0.4469103260        1.0734869250  MEMB      18              0.0000000000
      1865        18  CHL1      H26B           17.0656449066        1.8861032738        0.7699773428  MEMB      18              0.0000000000
      1866        18  CHL1      H26C           17.6087007929        0.2417851380        0.0574077851  MEMB      18              0.0000000000
      1867        18  CHL1      C27            19.3493899347        0.7611825194        1.2603429697  MEMB      18              0.0000000000
      1868        18  CHL1      H27A           19.1402067185        1.7650933416        0.9623524765  MEMB      18              0.0000000000
      1869        18  CHL1      H27B           20.3448527999        0.7385931275        1.6992121650  MEMB      18              0.0000000000
      1870        18  CHL1      H27C           19.6985182196        0.1579618868        0.4202539529  MEMB      18              0.0000000000
      1871        19  SAPC      N              -1.9349672253      -15.7551693515       18.8641679380  MEMB      19              0.0000000000
      1872        19  SAPC      C12            -1.8036723276      -16.2091451494       20.3066095637  MEMB      19              0.0000000000
      1873        19  SAPC      H12A           -1.8302910448      -15.3275675758       20.9369884748  MEMB      19              0.0000000000
      1874        19  SAPC      H12B           -0.8405260433      -16.6780565407       20.4422197919  MEMB      19              0.0000000000
      1875        19  SAPC      C13            -1.8902704197      -16.9203406436       17.9285741011  MEMB      19              0.0000000000
      1876        19  SAPC      H13A           -2.2610394638      -16.6791786123       16.9414611659  MEMB      19              0.0000000000
      1877        19  SAPC      H13B           -0.8626205427      -17.2547225393       17.8433964755  MEMB      19              0.0000000000
      1878        19  SAPC      H13C           -2.4675794641      -17.7491275242       18.3424949841  MEMB      19              0.0000000000
      1879        19  SAPC      C14            -3.2247632744      -15.0257963477       18.7052245943  MEMB      19              0.0000000000
      1880        19  SAPC      H14A           -3.1851274851      -14.0889476590       19.2419581725  MEMB      19              0.0000000000
      1881        19  SAPC      H14B           -3.4512898566      -14.8159936213       17.6713603334  MEMB      19              0.0000000000
      1882        19  SAPC      H14C           -4.0293589825      -15.6051695802       19.1507753848  MEMB      19              0.0000000000
      1883        19  SAPC      C15            -0.7559166436      -14.8854149719       18.5404176734  MEMB      19              0.0000000000
      1884        19  SAPC      H15A           -0.8576766892      -14.4389174193       17.5592534269  MEMB      19              0.0000000000
      1885        19  SAPC      H15B           -0.6257791534      -14.0645800932       19.2381711830  MEMB      19              0.0000000000
      1886        19  SAPC      H15C            0.1516754692      -15.4879576308       18.5649806063  MEMB      19              0.0000000000
      1887        19  SAPC      C11            -2.8595533987      -17.1854109764       20.8607828422  MEMB      19              0.0000000000
      1888        19  SAPC      H11A           -3.8673633945      -16.7492259973       20.6781549594  MEMB      19              0.0000000000
      1889        19  SAPC      H11B           -2.7054676029      -17.2041084520       21.9652194409  MEMB      19              0.0000000000
      1890        19  SAPC      P              -2.6350174972      -19.8457260077       21.0326108828  MEMB      19              0.0000000000
      1891        19  SAPC      O13            -1.2293567351      -20.3099451420       21.0340811763  MEMB      19              0.0000000000
      1892        19  SAPC      O14            -3.2711235963      -19.7027574989       22.3469954727  MEMB      19              0.0000000000
      1893        19  SAPC      O12            -2.7359996255      -18.4706196516       20.2441483232  MEMB      19              0.0000000000
      1894        19  SAPC      O11            -3.5263311343      -20.7967284271       20.1402965549  MEMB      19              0.0000000000
      1895        19  SAPC      C1             -4.3825247663      -20.3216795898       19.1111785920  MEMB      19              0.0000000000
      1896        19  SAPC      HA             -5.3988538873      -20.5068926625       19.4599923831  MEMB      19              0.0000000000
      1897        19  SAPC      HB             -4.4324045778      -19.2239111945       18.9762451353  MEMB      19              0.0000000000
      1898        19  SAPC      C2             -4.1431856932      -21.0990424019       17.7808625299  MEMB      19              0.0000000000
      1899        19  SAPC      HS             -4.0408129914      -22.1837128133       18.0397669952  MEMB      19              0.0000000000
      1900        19  SAPC      O21            -2.9774286260      -20.5890285308       17.1097343197  MEMB      19              0.0000000000
      1901        19  SAPC      C21            -1.8143310092      -21.1250705596       17.4656624593  MEMB      19              0.0000000000
      1902        19  SAPC      O22            -1.6700828844      -22.1168477077       18.1520553888  MEMB      19              0.0000000000
      1903        19  SAPC      C22            -0.6576844861      -20.3982841423       16.7613189944  MEMB      19              0.0000000000
      1904        19  SAPC      H2R            -0.2521014702      -19.5933966957       17.4066066102  MEMB      19              0.0000000000
      1905        19  SAPC      H2S             0.1577290683      -21.1364188195       16.6026357534  MEMB      19              0.0000000000
      1906        19  SAPC      C3             -5.3789826970      -20.9361869524       16.8476321625  MEMB      19              0.0000000000
      1907        19  SAPC      HX             -6.3127428945      -21.3436341871       17.2651382050  MEMB      19              0.0000000000
      1908        19  SAPC      HY             -5.2489645274      -21.5154561343       15.9048406615  MEMB      19              0.0000000000
      1909        19  SAPC      O31            -5.6138144296      -19.5351027798       16.6961164399  MEMB      19              0.0000000000
      1910        19  SAPC      C31            -5.3508301107      -19.0355730353       15.5142197695  MEMB      19              0.0000000000
      1911        19  SAPC      O32            -5.0885294155      -19.6656529629       14.5038202480  MEMB      19              0.0000000000
      1912        19  SAPC      C32            -5.4919054326      -17.5292244380       15.6326940230  MEMB      19              0.0000000000
      1913        19  SAPC      H2X            -5.4102871557      -17.2231462301       16.6947847643  MEMB      19              0.0000000000
      1914        19  SAPC      H2Y            -6.4975920933      -17.2197414287       15.2791707246  MEMB      19              0.0000000000
      1915        19  SAPC      C23            -1.0958073693      -19.8419294523       15.3934776659  MEMB      19              0.0000000000
      1916        19  SAPC      H3R            -1.7758455251      -18.9737180081       15.5543308180  MEMB      19              0.0000000000
      1917        19  SAPC      H3S            -1.6835779759      -20.6209317443       14.8634971758  MEMB      19              0.0000000000
      1918        19  SAPC      C24             0.0876582303      -19.4314423206       14.5089014634  MEMB      19              0.0000000000
      1919        19  SAPC      H4R             0.8010509874      -18.8510149997       15.1327243133  MEMB      19              0.0000000000
      1920        19  SAPC      H4S            -0.3002513751      -18.7369528101       13.7341433329  MEMB      19              0.0000000000
      1921        19  SAPC      C25             0.7990046047      -20.5908886674       13.8548593340  MEMB      19              0.0000000000
      1922        19  SAPC      H5R             1.2168531286      -21.3334147270       14.5598529202  MEMB      19              0.0000000000
      1923        19  SAPC      C26             0.7159460367      -20.9616412637       12.5572385432  MEMB      19              0.0000000000
      1924        19  SAPC      H6R             1.0846524384      -21.9784065391       12.3130442087  MEMB      19              0.0000000000
      1925        19  SAPC      C27            -0.1187148481      -20.3120334641       11.4640687541  MEMB      19              0.0000000000
      1926        19  SAPC      H7R            -0.2175017530      -19.2452215485       11.6447007208  MEMB      19              0.0000000000
      1927        19  SAPC      H7S            -1.2009871888      -20.5442671235       11.5203841024  MEMB      19              0.0000000000
      1928        19  SAPC      C28             0.3957163501      -20.6832515405       10.0882314433  MEMB      19              0.0000000000
      1929        19  SAPC      H8R             1.4684181050      -20.8355556228       10.0163212832  MEMB      19              0.0000000000
      1930        19  SAPC      C29            -0.3057949891      -20.9032827406        8.9823927120  MEMB      19              0.0000000000
      1931        19  SAPC      H9R             0.2139017846      -21.2688437329        8.0752432229  MEMB      19              0.0000000000
      1932        19  SAPC      C210           -1.7843116195      -20.8116929926        8.9496402012  MEMB      19              0.0000000000
      1933        19  SAPC      H10R           -2.2589502089      -19.8560840369        8.7214623137  MEMB      19              0.0000000000
      1934        19  SAPC      H10S           -2.2956850895      -21.1627683666        9.8878826470  MEMB      19              0.0000000000
      1935        19  SAPC      C211           -2.0795911730      -21.6429359814        7.8075774832  MEMB      19              0.0000000000
      1936        19  SAPC      H11R           -1.5244561852      -22.6343415925        7.6146094646  MEMB      19              0.0000000000
      1937        19  SAPC      C212           -3.3687588358      -21.6220906508        7.6919210264  MEMB      19              0.0000000000
      1938        19  SAPC      H12R           -3.2493955012      -22.6739325241        7.5249558122  MEMB      19              0.0000000000
      1939        19  SAPC      C213           -4.6316310687      -20.9575049608        8.3947725871  MEMB      19              0.0000000000
      1940        19  SAPC      H13R           -4.2405186439      -20.0155292487        8.6927150301  MEMB      19              0.0000000000
      1941        19  SAPC      H13S           -5.0268182596      -21.4250136880        9.3711665273  MEMB      19              0.0000000000
      1942        19  SAPC      C214           -5.8641867100      -20.3080194154        7.7464579473  MEMB      19              0.0000000000
      1943        19  SAPC      H14R           -6.7084812488      -20.8060300744        8.3100784636  MEMB      19              0.0000000000
      1944        19  SAPC      C215           -6.0945917903      -19.9250532281        6.4013479249  MEMB      19              0.0000000000
      1945        19  SAPC      H15R           -7.0083024166      -20.1481822115        5.8412855466  MEMB      19              0.0000000000
      1946        19  SAPC      C216           -5.2321840612      -20.0445134469        5.1787643314  MEMB      19              0.0000000000
      1947        19  SAPC      H16R           -4.2731773084      -19.9705160950        5.7217082251  MEMB      19              0.0000000000
      1948        19  SAPC      H16S           -5.5005955646      -19.1875985352        4.5426494251  MEMB      19              0.0000000000
      1949        19  SAPC      C217           -4.9914107404      -21.2849108381        4.1605815676  MEMB      19              0.0000000000
      1950        19  SAPC      H17R           -4.9715848215      -22.3502670758        4.3668282409  MEMB      19              0.0000000000
      1951        19  SAPC      H17S           -3.9209485764      -21.1050639800        4.1267472791  MEMB      19              0.0000000000
      1952        19  SAPC      C218           -5.7021202192      -21.6956689673        2.8733503799  MEMB      19              0.0000000000
      1953        19  SAPC      H18R           -6.1991684509      -22.6779494198        2.6446422279  MEMB      19              0.0000000000
      1954        19  SAPC      H18S           -5.2623579069      -22.4962326771        2.2848549310  MEMB      19              0.0000000000
      1955        19  SAPC      C219           -6.4102304631      -20.6094064945        2.3597001503  MEMB      19              0.0000000000
      1956        19  SAPC      H19R           -5.6286863593      -19.8075726539        2.3763824495  MEMB      19              0.0000000000
      1957        19  SAPC      H19S           -7.2853239340      -20.2194040993        2.9061737575  MEMB      19              0.0000000000
      1958        19  SAPC      C220           -6.7618888325      -21.3229502388        1.1274902655  MEMB      19              0.0000000000
      1959        19  SAPC      H20R           -7.5019228333      -22.0285480207        0.8256200384  MEMB      19              0.0000000000
      1960        19  SAPC      H20S           -5.8465949668      -21.4226036661        0.5016028947  MEMB      19              0.0000000000
      1961        19  SAPC      H20T           -7.6145084414      -20.7426091993        0.8122507940  MEMB      19              0.0000000000
      1962        19  SAPC      C33            -4.4371914276      -16.8464936234       14.7696641509  MEMB      19              0.0000000000
      1963        19  SAPC      H3X            -4.5024837115      -17.2914673699       13.7505483226  MEMB      19              0.0000000000
      1964        19  SAPC      H3Y            -3.4039685496      -17.0170040564       15.1459108480  MEMB      19              0.0000000000
      1965        19  SAPC      C34            -4.7294429185      -15.3590478407       14.6801729623  MEMB      19              0.0000000000
      1966        19  SAPC      H4X            -4.9700861091      -14.9884538021       15.7044893377  MEMB      19              0.0000000000
      1967        19  SAPC      H4Y            -5.6244081959      -15.2101045849       14.0335451846  MEMB      19              0.0000000000
      1968        19  SAPC      C35            -3.5570229414      -14.5902925950       14.0827507307  MEMB      19              0.0000000000
      1969        19  SAPC      H5X            -2.6203709745      -14.8365794309       14.6281058021  MEMB      19              0.0000000000
      1970        19  SAPC      H5Y            -3.7933947874      -13.5210570540       14.2282684089  MEMB      19              0.0000000000
      1971        19  SAPC      C36            -3.3749894698      -14.8191090837       12.5777927985  MEMB      19              0.0000000000
      1972        19  SAPC      H6X            -4.1297343006      -14.2038693994       12.0320075414  MEMB      19              0.0000000000
      1973        19  SAPC      H6Y            -3.5424358355      -15.8882546572       12.3377013844  MEMB      19              0.0000000000
      1974        19  SAPC      C37            -1.9913747758      -14.5264929292       12.0097344217  MEMB      19              0.0000000000
      1975        19  SAPC      H7X            -1.4641002947      -13.6856296907       12.4351073635  MEMB      19              0.0000000000
      1976        19  SAPC      H7Y            -2.0980434979      -14.2886020203       10.9289646618  MEMB      19              0.0000000000
      1977        19  SAPC      C38            -0.8999330545      -15.4672460932       12.4224802275  MEMB      19              0.0000000000
      1978        19  SAPC      H8X            -0.9757858125      -15.7012531284       13.5051959649  MEMB      19              0.0000000000
      1979        19  SAPC      H8Y             0.0693979664      -14.9187045421       12.2932966829  MEMB      19              0.0000000000
      1980        19  SAPC      C39            -0.9241884741      -16.7002340446       11.5579996713  MEMB      19              0.0000000000
      1981        19  SAPC      H9X            -1.6479229743      -17.4362687035       11.9294804079  MEMB      19              0.0000000000
      1982        19  SAPC      H9Y             0.0776063047      -17.0981974996       11.7427011276  MEMB      19              0.0000000000
      1983        19  SAPC      C310           -1.1286601083      -16.3860816312       10.0702106422  MEMB      19              0.0000000000
      1984        19  SAPC      H10X           -0.2709635050      -15.6977171195        9.9475688719  MEMB      19              0.0000000000
      1985        19  SAPC      H10Y           -2.0788730073      -15.8964467574        9.7897358703  MEMB      19              0.0000000000
      1986        19  SAPC      C311           -0.8937329131      -17.4989321616        9.0661649571  MEMB      19              0.0000000000
      1987        19  SAPC      H11X           -1.4192897124      -18.4063802684        9.2560892866  MEMB      19              0.0000000000
      1988        19  SAPC      H11Y           -0.0174118721      -17.8075444412        9.5034486603  MEMB      19              0.0000000000
      1989        19  SAPC      C312           -0.4436398477      -17.1527910968        7.6364880573  MEMB      19              0.0000000000
      1990        19  SAPC      H12X            0.3060105724      -17.8184578121        7.1592863774  MEMB      19              0.0000000000
      1991        19  SAPC      H12Y            0.0670262672      -16.1902635344        7.6394088879  MEMB      19              0.0000000000
      1992        19  SAPC      C313           -1.6329972648      -16.8684156668        6.7787934312  MEMB      19              0.0000000000
      1993        19  SAPC      H13X           -1.3591461143      -16.0168115409        6.1213152001  MEMB      19              0.0000000000
      1994        19  SAPC      H13Y           -2.3941857340      -16.5185016476        7.5175446991  MEMB      19              0.0000000000
      1995        19  SAPC      C314           -2.1385376623      -18.0835163218        6.0031537094  MEMB      19              0.0000000000
      1996        19  SAPC      H14X           -3.1718262705      -17.8247120081        5.6895704558  MEMB      19              0.0000000000
      1997        19  SAPC      H14Y           -2.2142284564      -18.9475243824        6.7004343824  MEMB      19              0.0000000000
      1998        19  SAPC      C315           -1.3153911529      -18.4699343678        4.7552355996  MEMB      19              0.0000000000
      1999        19  SAPC      H15X           -1.3695687508      -19.5730058821        4.5952238506  MEMB      19              0.0000000000
      2000        19  SAPC      H15Y           -0.2447541881      -18.1981316423        4.8789837046  MEMB      19              0.0000000000
      2001        19  SAPC      C316           -1.8030162161      -17.7425679606        3.4907525597  MEMB      19              0.0000000000
      2002        19  SAPC      H16X           -1.7211533532      -16.6574449494        3.7009138900  MEMB      19              0.0000000000
      2003        19  SAPC      H16Y           -2.8757379069      -17.9821039295        3.2999370616  MEMB      19              0.0000000000
      2004        19  SAPC      C317           -0.9426682579      -17.9961268870        2.2447564906  MEMB      19              0.0000000000
      2005        19  SAPC      H17X            0.1353202004      -18.0097612626        2.5148161827  MEMB      19              0.0000000000
      2006        19  SAPC      H17Y           -1.1955316870      -17.2718915731        1.4429696066  MEMB      19              0.0000000000
      2007        19  SAPC      C318           -1.2274277590      -19.2998777904        1.6311716105  MEMB      19              0.0000000000
      2008        19  SAPC      H18X           -2.3153039864      -19.2999045084        1.3873820116  MEMB      19              0.0000000000
      2009        19  SAPC      H18Y           -0.9865993774      -20.0337416162        2.4302740442  MEMB      19              0.0000000000
      2010        19  SAPC      H18Z           -0.6718013903      -19.5952402371        0.7126463058  MEMB      19              0.0000000000
      2011        20  OSM       N               6.5869973506      -19.5779553809       21.8829470545  MEMB      20              0.0000000000
      2012        20  OSM       C15             7.0997397081      -20.6065942453       22.8465499121  MEMB      20              0.0000000000
      2013        20  OSM       H15A            7.5942546229      -21.4287069481       22.3465347011  MEMB      20              0.0000000000
      2014        20  OSM       H15B            6.3114736923      -21.0577402785       23.4407742398  MEMB      20              0.0000000000
      2015        20  OSM       H15C            7.7972155856      -20.1586875377       23.5440170063  MEMB      20              0.0000000000
      2016        20  OSM       C14             7.6959725554      -18.9556002754       21.0870988233  MEMB      20              0.0000000000
      2017        20  OSM       H14A            8.5855914084      -18.7507775975       21.6697516038  MEMB      20              0.0000000000
      2018        20  OSM       H14B            7.3332530776      -17.9873388949       20.7244670734  MEMB      20              0.0000000000
      2019        20  OSM       H14C            7.9400782099      -19.5565164369       20.2310894371  MEMB      20              0.0000000000
      2020        20  OSM       C13             5.6282098770      -20.2369268448       20.9386487535  MEMB      20              0.0000000000
      2021        20  OSM       H13A            6.1295477524      -21.0478167795       20.4290943763  MEMB      20              0.0000000000
      2022        20  OSM       H13B            5.2355178027      -19.5451268942       20.1769691047  MEMB      20              0.0000000000
      2023        20  OSM       H13C            4.7536934792      -20.5831707760       21.4797302487  MEMB      20              0.0000000000
      2024        20  OSM       C12             5.8738428220      -18.4706202825       22.6487388969  MEMB      20              0.0000000000
      2025        20  OSM       H12A            6.6048819549      -17.8614810447       23.1721099522  MEMB      20              0.0000000000
      2026        20  OSM       H12B            5.2557480949      -18.9558391855       23.3883140708  MEMB      20              0.0000000000
      2027        20  OSM       C11             4.9418139067      -17.4926881968       21.8764328226  MEMB      20              0.0000000000
      2028        20  OSM       H11A            4.6751363899      -16.6744979603       22.5928727576  MEMB      20              0.0000000000
      2029        20  OSM       H11B            4.0122824093      -18.0531354951       21.6158388494  MEMB      20              0.0000000000
      2030        20  OSM       P               4.8731974217      -15.7023114002       19.9838983123  MEMB      20              0.0000000000
      2031        20  OSM       O13             3.5169758468      -16.0898434084       19.5359521330  MEMB      20              0.0000000000
      2032        20  OSM       O14             4.9958772419      -14.5163179857       20.8726859231  MEMB      20              0.0000000000
      2033        20  OSM       O11             5.7602408937      -15.4099629392       18.7165445065  MEMB      20              0.0000000000
      2034        20  OSM       O12             5.5521890829      -16.9597240306       20.7006719730  MEMB      20              0.0000000000
      2035        20  OSM       C1S             6.5584675160      -16.4200761270       18.1037121706  MEMB      20              0.0000000000
      2036        20  OSM       H1S             6.5728772707      -17.3786752609       18.6651690995  MEMB      20              0.0000000000
      2037        20  OSM       H1T             7.6129050006      -16.0647914689       18.0938106581  MEMB      20              0.0000000000
      2038        20  OSM       NF              6.5900589378      -17.9500296149       16.1941955087  MEMB      20              0.0000000000
      2039        20  OSM       HNF             7.2842776405      -17.9242967404       15.4860355164  MEMB      20              0.0000000000
      2040        20  OSM       C2S             6.0844749508      -16.7009623764       16.6484132668  MEMB      20              0.0000000000
      2041        20  OSM       H2S             4.9706026792      -16.7701744676       16.6068122642  MEMB      20              0.0000000000
      2042        20  OSM       C3S             6.5524345517      -15.5396087615       15.7700499702  MEMB      20              0.0000000000
      2043        20  OSM       H3S             7.6340553039      -15.3706610905       15.9797957427  MEMB      20              0.0000000000
      2044        20  OSM       O3              5.7960837315      -14.3738071176       16.0570702939  MEMB      20              0.0000000000
      2045        20  OSM       HO3             5.4746201585      -14.5557668878       16.9551815448  MEMB      20              0.0000000000
      2046        20  OSM       C4S             6.4024960362      -15.8146431415       14.2953100717  MEMB      20              0.0000000000
      2047        20  OSM       H4S             5.3844025900      -16.0374728531       13.9492967453  MEMB      20              0.0000000000
      2048        20  OSM       C5S             7.3941907041      -15.7852680219       13.3809481674  MEMB      20              0.0000000000
      2049        20  OSM       H5S             8.4228826742      -15.5004365363       13.6653474361  MEMB      20              0.0000000000
      2050        20  OSM       C6S             7.1218569160      -16.0509968370       11.9294322208  MEMB      20              0.0000000000
      2051        20  OSM       H6S             7.1324814456      -15.0651191497       11.4173952873  MEMB      20              0.0000000000
      2052        20  OSM       H6T             6.0778051605      -16.4255524364       11.8067025067  MEMB      20              0.0000000000
      2053        20  OSM       C7S             8.0359806752      -17.0075534562       11.1392418810  MEMB      20              0.0000000000
      2054        20  OSM       H7S             7.9817977141      -18.0161046028       11.6190595686  MEMB      20              0.0000000000
      2055        20  OSM       H7T             9.1072197927      -16.7166233580       11.1549542614  MEMB      20              0.0000000000
      2056        20  OSM       C8S             7.5281019395      -17.1122581694        9.6811739436  MEMB      20              0.0000000000
      2057        20  OSM       H8S             6.4483014145      -17.3753373157        9.7795079163  MEMB      20              0.0000000000
      2058        20  OSM       H8T             8.0196841743      -17.9734798096        9.1791023443  MEMB      20              0.0000000000
      2059        20  OSM       C9S             7.6361742912      -15.8502300337        8.7642935381  MEMB      20              0.0000000000
      2060        20  OSM       H9S             8.6693007762      -15.4483222555        8.7243696966  MEMB      20              0.0000000000
      2061        20  OSM       H9T             6.9712688533      -15.0486739115        9.1569577788  MEMB      20              0.0000000000
      2062        20  OSM       C10S            7.2270620320      -16.1927540990        7.3092660050  MEMB      20              0.0000000000
      2063        20  OSM       H10S            6.2236098562      -16.6599515126        7.3972875606  MEMB      20              0.0000000000
      2064        20  OSM       H10T            7.9395296731      -16.9627169471        6.9371767007  MEMB      20              0.0000000000
      2065        20  OSM       C11S            7.1909644196      -15.0820144452        6.2181273474  MEMB      20              0.0000000000
      2066        20  OSM       H11S            8.2224314299      -14.7288656236        6.0075038048  MEMB      20              0.0000000000
      2067        20  OSM       H11T            6.5911209566      -14.2153323691        6.5704095558  MEMB      20              0.0000000000
      2068        20  OSM       C12S            6.5481938649      -15.6227358178        4.9114500325  MEMB      20              0.0000000000
      2069        20  OSM       H12S            5.4883672531      -15.8211324885        5.1897543066  MEMB      20              0.0000000000
      2070        20  OSM       H12T            7.0254933631      -16.5881147297        4.6236558552  MEMB      20              0.0000000000
      2071        20  OSM       C13S            6.4744886716      -14.7331550437        3.6406026131  MEMB      20              0.0000000000
      2072        20  OSM       H13S            5.9911564526      -13.7669690139        3.8829967299  MEMB      20              0.0000000000
      2073        20  OSM       H13T            5.8138655638      -15.2798290293        2.9228098270  MEMB      20              0.0000000000
      2074        20  OSM       C14S            7.8184247209      -14.4157441080        2.9650014605  MEMB      20              0.0000000000
      2075        20  OSM       H14S            8.4088072925      -15.3414496749        2.8296970528  MEMB      20              0.0000000000
      2076        20  OSM       H14T            8.3872250974      -13.7530812534        3.6535703642  MEMB      20              0.0000000000
      2077        20  OSM       C15S            7.7767937628      -13.7523198325        1.5722927893  MEMB      20              0.0000000000
      2078        20  OSM       H15S            8.8431829075      -13.6401637548        1.2724714216  MEMB      20              0.0000000000
      2079        20  OSM       H15T            7.3411597117      -12.7275397778        1.6266232202  MEMB      20              0.0000000000
      2080        20  OSM       C16S            7.0969130468      -14.5497901230        0.4411310100  MEMB      20              0.0000000000
      2081        20  OSM       H16S            7.1185961462      -13.8771237348       -0.4506230709  MEMB      20              0.0000000000
      2082        20  OSM       H16T            6.0298238673      -14.7354259143        0.6833638466  MEMB      20              0.0000000000
      2083        20  OSM       C17S            7.7807661738      -15.8721157439        0.0145067074  MEMB      20              0.0000000000
      2084        20  OSM       H17S            8.8848018316      -15.7482678482       -0.0515112388  MEMB      20              0.0000000000
      2085        20  OSM       H17T            7.4225469252      -16.0729523474       -1.0219072820  MEMB      20              0.0000000000
      2086        20  OSM       C18S            7.4475688070      -17.1042214593        0.8682322316  MEMB      20              0.0000000000
      2087        20  OSM       H18S            7.8061873279      -18.0490466119        0.4055880486  MEMB      20              0.0000000000
      2088        20  OSM       H18T            6.3528505220      -17.1963765842        1.0120017923  MEMB      20              0.0000000000
      2089        20  OSM       H18U            7.9147776753      -17.0227108592        1.8685352018  MEMB      20              0.0000000000
      2090        20  OSM       C1F             5.9942402637      -19.0692834689       16.5695374739  MEMB      20              0.0000000000
      2091        20  OSM       OF              5.3309843458      -19.2133811254       17.5891489903  MEMB      20              0.0000000000
      2092        20  OSM       C2F             6.2364411895      -20.1969915457       15.6817746230  MEMB      20              0.0000000000
      2093        20  OSM       H2F             6.8163012372      -20.8310221225       16.3243025688  MEMB      20              0.0000000000
      2094        20  OSM       H2G             6.8926477339      -19.9378540233       14.8267140703  MEMB      20              0.0000000000
      2095        20  OSM       C3F             4.9106511091      -20.8794362523       15.3734581006  MEMB      20              0.0000000000
      2096        20  OSM       H3F             4.3483354060      -21.1318071286       16.2944604391  MEMB      20              0.0000000000
      2097        20  OSM       H3G             4.9406497643      -21.8324445865       14.8720385915  MEMB      20              0.0000000000
      2098        20  OSM       C4F             4.0853786469      -20.1791549922       14.3319715986  MEMB      20              0.0000000000
      2099        20  OSM       H4F             3.6402319942      -19.3056058290       14.8435210846  MEMB      20              0.0000000000
      2100        20  OSM       H4G             3.3081526055      -20.9382871619       14.0737834943  MEMB      20              0.0000000000
      2101        20  OSM       C5F             4.8377490583      -19.8293705291       13.0399153877  MEMB      20              0.0000000000
      2102        20  OSM       H5F             5.2152605165      -20.7572652557       12.5551550184  MEMB      20              0.0000000000
      2103        20  OSM       H5G             5.7000840337      -19.1527541358       13.2155379134  MEMB      20              0.0000000000
      2104        20  OSM       C6F             3.9175907049      -19.1752254139       12.0346190916  MEMB      20              0.0000000000
      2105        20  OSM       H6F             3.2198204846      -19.9513283972       11.6472435929  MEMB      20              0.0000000000
      2106        20  OSM       H6G             4.4927272758      -18.8160267907       11.1431326990  MEMB      20              0.0000000000
      2107        20  OSM       C7F             3.1278333473      -18.0153478813       12.6401937390  MEMB      20              0.0000000000
      2108        20  OSM       H7F             3.7935119873      -17.3249842674       13.2060245461  MEMB      20              0.0000000000
      2109        20  OSM       H7G             2.2589429360      -18.2903399662       13.2687078505  MEMB      20              0.0000000000
      2110        20  OSM       C8F             2.6384906336      -17.1877947816       11.5262100927  MEMB      20              0.0000000000
      2111        20  OSM       H8F             3.5925876495      -16.7533078838       11.1737441290  MEMB      20              0.0000000000
      2112        20  OSM       H8G             1.9553255772      -16.3741815656       11.9006467032  MEMB      20              0.0000000000
      2113        20  OSM       C9F             2.0301453320      -17.9998055732       10.4393684707  MEMB      20              0.0000000000
      2114        20  OSM       H9F             1.1010225854      -18.3793792702       10.8146323526  MEMB      20              0.0000000000
      2115        20  OSM       C10F            2.2437252776      -18.1759950148        9.1206522975  MEMB      20              0.0000000000
      2116        20  OSM       H10F            1.4585461223      -18.6928865198        8.5354589173  MEMB      20              0.0000000000
      2117        20  OSM       C11F            3.2798712938      -17.5092197781        8.3016727762  MEMB      20              0.0000000000
      2118        20  OSM       H11F            4.0604245460      -17.1584428344        8.9954261958  MEMB      20              0.0000000000
      2119        20  OSM       H11G            2.8401600814      -16.6786704176        7.7605997200  MEMB      20              0.0000000000
      2120        20  OSM       C12F            3.7536239240      -18.1586726945        7.0188712694  MEMB      20              0.0000000000
      2121        20  OSM       H12F            4.5079633439      -17.4751249551        6.5657409664  MEMB      20              0.0000000000
      2122        20  OSM       H12G            2.9159723612      -18.2517821268        6.2858576511  MEMB      20              0.0000000000
      2123        20  OSM       C13F            4.3529320319      -19.4713867879        7.4199527480  MEMB      20              0.0000000000
      2124        20  OSM       H13F            3.6031475003      -20.0099124349        8.0419612271  MEMB      20              0.0000000000
      2125        20  OSM       H13G            5.2061307765      -19.1984225346        8.0839733204  MEMB      20              0.0000000000
      2126        20  OSM       C14F            4.8176530046      -20.3445099929        6.2601505584  MEMB      20              0.0000000000
      2127        20  OSM       H14F            3.9423281119      -20.7646939800        5.7171248844  MEMB      20              0.0000000000
      2128        20  OSM       H14G            5.3397359458      -21.1922546899        6.7563351152  MEMB      20              0.0000000000
      2129        20  OSM       C15F            5.7026644468      -19.5711140103        5.2585336652  MEMB      20              0.0000000000
      2130        20  OSM       H15F            6.2303181757      -18.7492675080        5.7918927403  MEMB      20              0.0000000000
      2131        20  OSM       H15G            5.0996154523      -19.1450444248        4.4341008575  MEMB      20              0.0000000000
      2132        20  OSM       C16F            6.8374508278      -20.3328308223        4.6102435175  MEMB      20              0.0000000000
      2133        20  OSM       H16F            6.4829152405      -21.2398860569        4.0693793850  MEMB      20              0.0000000000
      2134        20  OSM       H16G            7.3974738175      -20.7237698739        5.5061672970  MEMB      20              0.0000000000
      2135        20  OSM       C17F            7.8051051489      -19.3978406420        3.7340839495  MEMB      20              0.0000000000
      2136        20  OSM       H17F            8.5871112749      -19.0708487720        4.4651848275  MEMB      20              0.0000000000
      2137        20  OSM       H17G            7.1935363282      -18.5905527434        3.3199713284  MEMB      20              0.0000000000
      2138        20  OSM       C18F            8.5433372755      -19.9227138532        2.4636279073  MEMB      20              0.0000000000
      2139        20  OSM       H18F            9.4511137892      -20.4353920189        2.7739581276  MEMB      20              0.0000000000
      2140        20  OSM       H18G            9.1955819372      -19.4115977203        1.7494381840  MEMB      20              0.0000000000
      2141        20  OSM       H18H            7.8561905506      -20.6410697550        1.9830033603  MEMB      20              0.0000000000
      2142        21  SAPE      N             -18.3396304163       -3.8381634892       22.8442132347  MEMB      21              0.0000000000
      2143        21  SAPE      HN1           -17.4245394745       -3.4401038120       23.1477337547  MEMB      21              0.0000000000
      2144        21  SAPE      HN2           -19.0348158582       -3.0751895784       22.9399958279  MEMB      21              0.0000000000
      2145        21  SAPE      HN3           -18.6311891641       -4.6814110873       23.3987187746  MEMB      21              0.0000000000
      2146        21  SAPE      C12           -18.3011928975       -4.1876653649       21.3795508047  MEMB      21              0.0000000000
      2147        21  SAPE      H12A          -19.3579967999       -4.3037814293       21.0493476935  MEMB      21              0.0000000000
      2148        21  SAPE      H12B          -17.7803538788       -5.1586747656       21.2727000395  MEMB      21              0.0000000000
      2149        21  SAPE      C11           -17.6453593147       -3.0545499968       20.5760415853  MEMB      21              0.0000000000
      2150        21  SAPE      H11A          -17.2712185167       -3.4671468128       19.6038924613  MEMB      21              0.0000000000
      2151        21  SAPE      H11B          -16.7632608201       -2.6284659085       21.1031505427  MEMB      21              0.0000000000
      2152        21  SAPE      P             -18.6138643254       -1.1631409600       19.0576036032  MEMB      21              0.0000000000
      2153        21  SAPE      O13           -19.9822076424       -0.6899079229       18.8650256195  MEMB      21              0.0000000000
      2154        21  SAPE      O14           -17.5387915563       -0.1698915388       19.1654032733  MEMB      21              0.0000000000
      2155        21  SAPE      O12           -18.6132808735       -2.0241475616       20.3980999739  MEMB      21              0.0000000000
      2156        21  SAPE      O11           -18.2954275056       -2.2564123053       17.9522255306  MEMB      21              0.0000000000
      2157        21  SAPE      C1            -19.1793896214       -3.2944425098       17.5011366823  MEMB      21              0.0000000000
      2158        21  SAPE      HA            -18.8396531661       -4.2706631019       17.8935103536  MEMB      21              0.0000000000
      2159        21  SAPE      HB            -20.1349562018       -3.2676006107       18.0025062066  MEMB      21              0.0000000000
      2160        21  SAPE      C2            -19.3030742476       -3.3025346383       15.9279221554  MEMB      21              0.0000000000
      2161        21  SAPE      HS            -18.3745225371       -3.8316762857       15.6254111944  MEMB      21              0.0000000000
      2162        21  SAPE      O21           -19.3585329889       -1.9372121571       15.4410454642  MEMB      21              0.0000000000
      2163        21  SAPE      C21           -18.4965795782       -1.6711179246       14.4711999776  MEMB      21              0.0000000000
      2164        21  SAPE      O22           -17.9535147145       -2.5062400534       13.7706920079  MEMB      21              0.0000000000
      2165        21  SAPE      C22           -18.3283594756       -0.1680493167       14.2365202766  MEMB      21              0.0000000000
      2166        21  SAPE      H2R           -18.6894754991        0.4275041812       15.1022829044  MEMB      21              0.0000000000
      2167        21  SAPE      H2S           -17.3289183725        0.1240995030       13.9320014007  MEMB      21              0.0000000000
      2168        21  SAPE      C3            -20.5118718643       -4.0899527638       15.3154242724  MEMB      21              0.0000000000
      2169        21  SAPE      HX            -21.4878285547       -3.5931804644       15.3976614697  MEMB      21              0.0000000000
      2170        21  SAPE      HY            -20.6311576817       -4.9904295774       15.8981476753  MEMB      21              0.0000000000
      2171        21  SAPE      O31           -20.3607622079       -4.4102777163       13.9291241683  MEMB      21              0.0000000000
      2172        21  SAPE      C31           -19.4004746012       -5.2712757015       13.6521981105  MEMB      21              0.0000000000
      2173        21  SAPE      O32           -18.7522970068       -5.9320250936       14.4387593534  MEMB      21              0.0000000000
      2174        21  SAPE      C32           -19.2020164653       -5.3345207819       12.1614473507  MEMB      21              0.0000000000
      2175        21  SAPE      H2X           -18.6796877618       -6.2825062193       11.9212129310  MEMB      21              0.0000000000
      2176        21  SAPE      H2Y           -18.5799335141       -4.4813352302       11.8480627373  MEMB      21              0.0000000000
      2177        21  SAPE      C23           -19.0349862722        0.1277189803       12.9468105226  MEMB      21              0.0000000000
      2178        21  SAPE      H3R           -19.9310457409       -0.0600844515       13.4798342836  MEMB      21              0.0000000000
      2179        21  SAPE      H3S           -18.9226372602       -0.5970979999       12.1169662720  MEMB      21              0.0000000000
      2180        21  SAPE      C24           -19.3279012873        1.5006787810       12.4691288364  MEMB      21              0.0000000000
      2181        21  SAPE      H4R           -18.3763732158        2.0320907083       12.4719083129  MEMB      21              0.0000000000
      2182        21  SAPE      H4S           -20.0152386786        2.0143776724       13.2035012812  MEMB      21              0.0000000000
      2183        21  SAPE      C25           -19.9345623772        1.3462466385       11.0794980910  MEMB      21              0.0000000000
      2184        21  SAPE      H5R           -21.0369996089        1.2935903356       11.0080774534  MEMB      21              0.0000000000
      2185        21  SAPE      C26           -19.4756827068        1.5976832697        9.8775042999  MEMB      21              0.0000000000
      2186        21  SAPE      H6R           -20.2308949714        1.6812596450        9.0674700472  MEMB      21              0.0000000000
      2187        21  SAPE      C27           -18.1783864241        2.1273168070        9.5347225148  MEMB      21              0.0000000000
      2188        21  SAPE      H7R           -18.4123915064        3.1732860954        9.5927856496  MEMB      21              0.0000000000
      2189        21  SAPE      H7S           -18.0603360840        1.9044713705        8.4665346870  MEMB      21              0.0000000000
      2190        21  SAPE      C28           -16.9947499894        1.8301600300       10.4096834681  MEMB      21              0.0000000000
      2191        21  SAPE      H8R           -16.7318880961        2.5984282431       11.1469579993  MEMB      21              0.0000000000
      2192        21  SAPE      C29           -16.3434783351        0.6845079857       10.4665727233  MEMB      21              0.0000000000
      2193        21  SAPE      H9R           -15.5261943200        0.5710998904       11.1938310765  MEMB      21              0.0000000000
      2194        21  SAPE      C210          -16.7025132526       -0.4993121498        9.6382924531  MEMB      21              0.0000000000
      2195        21  SAPE      H10R          -15.8535874965       -0.6148844924        8.9792531420  MEMB      21              0.0000000000
      2196        21  SAPE      H10S          -17.5548856233       -0.3260629478        8.9583954011  MEMB      21              0.0000000000
      2197        21  SAPE      C211          -17.0240796085       -1.6946880758       10.4925746337  MEMB      21              0.0000000000
      2198        21  SAPE      H11R          -17.2812126551       -1.4385256838       11.5311259840  MEMB      21              0.0000000000
      2199        21  SAPE      C212          -16.6777193828       -2.9704227742       10.2427358195  MEMB      21              0.0000000000
      2200        21  SAPE      H12R          -16.8252545173       -3.7068993607       11.0467011804  MEMB      21              0.0000000000
      2201        21  SAPE      C213          -15.8889066884       -3.4400796111        9.0487904547  MEMB      21              0.0000000000
      2202        21  SAPE      H13R          -14.8738624989       -3.7367820712        9.3710672403  MEMB      21              0.0000000000
      2203        21  SAPE      H13S          -15.6881771514       -2.6048596819        8.3565041119  MEMB      21              0.0000000000
      2204        21  SAPE      C214          -16.5411757401       -4.5976585321        8.3582613974  MEMB      21              0.0000000000
      2205        21  SAPE      H14R          -16.7948847801       -5.4544664788        8.9951484972  MEMB      21              0.0000000000
      2206        21  SAPE      C215          -16.7714419989       -4.6618233218        7.0443176911  MEMB      21              0.0000000000
      2207        21  SAPE      H15R          -17.2905598401       -5.5388713505        6.6342885262  MEMB      21              0.0000000000
      2208        21  SAPE      C216          -16.3992769880       -3.5727293160        6.0775071028  MEMB      21              0.0000000000
      2209        21  SAPE      H16R          -15.4408145280       -3.0800119883        6.3726063614  MEMB      21              0.0000000000
      2210        21  SAPE      H16S          -17.1586529059       -2.7677614104        6.0291677195  MEMB      21              0.0000000000
      2211        21  SAPE      C217          -16.2029471132       -4.0759651103        4.6521019840  MEMB      21              0.0000000000
      2212        21  SAPE      H17R          -17.0368926524       -4.6753905507        4.2691723889  MEMB      21              0.0000000000
      2213        21  SAPE      H17S          -15.4137922120       -4.8472779756        4.6868480497  MEMB      21              0.0000000000
      2214        21  SAPE      C218          -15.9894777789       -2.8084610415        3.7835824243  MEMB      21              0.0000000000
      2215        21  SAPE      H18R          -15.2081222128       -2.1506900930        4.2508578564  MEMB      21              0.0000000000
      2216        21  SAPE      H18S          -16.9325679804       -2.2732014353        3.7302704943  MEMB      21              0.0000000000
      2217        21  SAPE      C219          -15.7365928139       -2.8824045814        2.2760388927  MEMB      21              0.0000000000
      2218        21  SAPE      H19R          -14.7270181273       -2.6895987436        2.3452648836  MEMB      21              0.0000000000
      2219        21  SAPE      H19S          -15.6462646407       -1.9652439199        1.6949439209  MEMB      21              0.0000000000
      2220        21  SAPE      C220          -16.2127596337       -4.1407249770        1.5441766852  MEMB      21              0.0000000000
      2221        21  SAPE      H20R          -17.1235845445       -3.8224857261        1.0425152318  MEMB      21              0.0000000000
      2222        21  SAPE      H20S          -16.2033497730       -5.0461669738        2.1793410339  MEMB      21              0.0000000000
      2223        21  SAPE      H20T          -15.7233568652       -4.6336401864        0.7076870534  MEMB      21              0.0000000000
      2224        21  SAPE      C33           -20.4398381792       -5.2112235997       11.2973326035  MEMB      21              0.0000000000
      2225        21  SAPE      H3X           -21.1476672919       -4.4038279650       11.5870882906  MEMB      21              0.0000000000
      2226        21  SAPE      H3Y           -21.0367622476       -6.0952052132       11.3554216017  MEMB      21              0.0000000000
      2227        21  SAPE      C34           -19.9124454122       -5.3238567115        9.8714195771  MEMB      21              0.0000000000
      2228        21  SAPE      H4X           -19.5088274866       -6.3674076271        9.7002913967  MEMB      21              0.0000000000
      2229        21  SAPE      H4Y           -19.3666564241       -4.4462012076        9.5360736148  MEMB      21              0.0000000000
      2230        21  SAPE      C35           -20.9396904596       -5.2419801369        8.8818046548  MEMB      21              0.0000000000
      2231        21  SAPE      H5X           -21.5804210742       -4.3239249217        9.0290506309  MEMB      21              0.0000000000
      2232        21  SAPE      H5Y           -21.3258223439       -6.2530449055        9.2440725486  MEMB      21              0.0000000000
      2233        21  SAPE      C36           -20.8185142047       -5.2875323770        7.4225682875  MEMB      21              0.0000000000
      2234        21  SAPE      H6X           -20.9524711109       -4.3125826339        6.9270168212  MEMB      21              0.0000000000
      2235        21  SAPE      H6Y           -21.8217922081       -5.3953478067        7.0997228811  MEMB      21              0.0000000000
      2236        21  SAPE      C37           -20.3316884455       -6.6253132920        6.8958845223  MEMB      21              0.0000000000
      2237        21  SAPE      H7X           -20.9657290431       -7.5501357517        7.0002977946  MEMB      21              0.0000000000
      2238        21  SAPE      H7Y           -19.4418722461       -6.7907851317        7.4956058130  MEMB      21              0.0000000000
      2239        21  SAPE      C38           -20.0893279717       -6.4231995539        5.4652737684  MEMB      21              0.0000000000
      2240        21  SAPE      H8X           -19.4122607654       -7.1343231343        4.9772867930  MEMB      21              0.0000000000
      2241        21  SAPE      H8Y           -19.8440800558       -5.3480251368        5.3507570749  MEMB      21              0.0000000000
      2242        21  SAPE      C39           -21.3395445522       -6.6397656921        4.7882817717  MEMB      21              0.0000000000
      2243        21  SAPE      H9X           -22.0260410602       -5.7991511474        5.0554868159  MEMB      21              0.0000000000
      2244        21  SAPE      H9Y           -21.7568192873       -7.6948637522        4.8072742221  MEMB      21              0.0000000000
      2245        21  SAPE      C310          -21.3085426498       -6.2941218978        3.5000372372  MEMB      21              0.0000000000
      2246        21  SAPE      H10X          -21.9613893976       -6.8256117072        2.8470870599  MEMB      21              0.0000000000
      2247        21  SAPE      H10Y          -20.9236423677       -7.2337325200        3.1477431848  MEMB      21              0.0000000000
      2248        21  SAPE      C311          -20.9827745581       -4.7711826232        3.3546290021  MEMB      21              0.0000000000
      2249        21  SAPE      H11X          -20.7827143513       -4.2479416352        2.4163140416  MEMB      21              0.0000000000
      2250        21  SAPE      H11Y          -20.1831242456       -4.3091956338        3.8890534047  MEMB      21              0.0000000000
      2251        21  SAPE      C312          -22.0332213746       -3.9079430065        3.2584260612  MEMB      21              0.0000000000
      2252        21  SAPE      H12X          -21.9022741816       -2.8844424830        2.8694149835  MEMB      21              0.0000000000
      2253        21  SAPE      H12Y          -22.6706617567       -4.2517961016        4.0973059483  MEMB      21              0.0000000000
      2254        21  SAPE      C313          -22.8668266454       -3.8561986621        2.1818788115  MEMB      21              0.0000000000
      2255        21  SAPE      H13X          -23.8166191834       -4.1347064368        2.6837772867  MEMB      21              0.0000000000
      2256        21  SAPE      H13Y          -23.3380179395       -4.8484188929        2.2874426790  MEMB      21              0.0000000000
      2257        21  SAPE      C314          -22.6050172711       -2.8149478248        0.8487341421  MEMB      21              0.0000000000
      2258        21  SAPE      H14X          -23.3626868376       -2.6833728746       -0.0056410761  MEMB      21              0.0000000000
      2259        21  SAPE      H14Y          -21.8434655446       -3.1596348995        0.1698101201  MEMB      21              0.0000000000
      2260        21  SAPE      C315          -22.7161733634       -1.3904459878        0.7221127061  MEMB      21              0.0000000000
      2261        21  SAPE      H15X          -21.6748140681       -1.2237487837        0.9831375545  MEMB      21              0.0000000000
      2262        21  SAPE      H15Y          -23.4330656371       -0.8856206513        1.3464298867  MEMB      21              0.0000000000
      2263        21  SAPE      C316          -23.2026778026       -0.7714719179       -0.5605652761  MEMB      21              0.0000000000
      2264        21  SAPE      H16X          -24.2920409523       -0.9523205211       -0.8346824271  MEMB      21              0.0000000000
      2265        21  SAPE      H16Y          -22.6479196197       -1.0934296949       -1.4693953984  MEMB      21              0.0000000000
      2266        21  SAPE      C317          -22.9255591663        0.6435209477       -0.0201837683  MEMB      21              0.0000000000
      2267        21  SAPE      H17X          -22.5428649366        1.2650804396       -0.8344138286  MEMB      21              0.0000000000
      2268        21  SAPE      H17Y          -22.0216417597        0.5952155592        0.6095415343  MEMB      21              0.0000000000
      2269        21  SAPE      C318          -24.1485704648        1.2512531790        0.7221143536  MEMB      21              0.0000000000
      2270        21  SAPE      H18X          -25.0391445062        1.1207509984        0.0956437250  MEMB      21              0.0000000000
      2271        21  SAPE      H18Y          -24.0622808556        2.3273425294        0.9007039861  MEMB      21              0.0000000000
      2272        21  SAPE      H18Z          -24.4238024983        0.7478637782        1.6764662484  MEMB      21              0.0000000000
      2273        22  CHL1      C3              9.1484493980       16.8158711769       17.4087467538  MEMB      22              0.0000000000
      2274        22  CHL1      H3              9.5008181741       15.8234502831       17.0660210597  MEMB      22              0.0000000000
      2275        22  CHL1      O3              8.4783056649       16.6431914626       18.6416503369  MEMB      22              0.0000000000
      2276        22  CHL1      H3'             9.1443456083       16.2462625097       19.2420152136  MEMB      22              0.0000000000
      2277        22  CHL1      C4             10.3422855773       17.7178949418       17.6329666969  MEMB      22              0.0000000000
      2278        22  CHL1      H4A            10.0682139679       18.6173855325       18.2101310621  MEMB      22              0.0000000000
      2279        22  CHL1      H4B            11.0729086887       17.1454727891       18.2670179447  MEMB      22              0.0000000000
      2280        22  CHL1      C5             10.9101681874       18.2777931584       16.3526494809  MEMB      22              0.0000000000
      2281        22  CHL1      C6             12.1638727271       18.3309747318       16.1946297519  MEMB      22              0.0000000000
      2282        22  CHL1      H6             12.6149496788       17.6335697204       16.9326301110  MEMB      22              0.0000000000
      2283        22  CHL1      C7             12.8607282832       18.8096428238       14.8953610555  MEMB      22              0.0000000000
      2284        22  CHL1      H7A            13.8950118352       19.0584717557       14.9270439113  MEMB      22              0.0000000000
      2285        22  CHL1      H7B            13.0282272079       18.0987256309       14.0944960283  MEMB      22              0.0000000000
      2286        22  CHL1      C8             12.1352346896       19.4958165450       13.8702151098  MEMB      22              0.0000000000
      2287        22  CHL1      H8             12.1418526479       20.4778863502       14.3248704492  MEMB      22              0.0000000000
      2288        22  CHL1      C14            12.8640927138       19.5732763137       12.5291719983  MEMB      22              0.0000000000
      2289        22  CHL1      H14            12.5192560691       18.7635370959       12.0053756209  MEMB      22              0.0000000000
      2290        22  CHL1      C15            14.3974775366       19.5038384463       12.3262500149  MEMB      22              0.0000000000
      2291        22  CHL1      H15A           14.6510287692       20.1857559906       13.1304385140  MEMB      22              0.0000000000
      2292        22  CHL1      H15B           15.0985929952       18.6325757543       12.4931437919  MEMB      22              0.0000000000
      2293        22  CHL1      C16            14.4038081448       19.8862079391       10.8469472094  MEMB      22              0.0000000000
      2294        22  CHL1      H16A           14.6346550262       20.9105774693       10.7464350914  MEMB      22              0.0000000000
      2295        22  CHL1      H16B           15.0887314498       19.3460381325       10.1910157312  MEMB      22              0.0000000000
      2296        22  CHL1      C17            12.9657586025       19.9548832380       10.2250194679  MEMB      22              0.0000000000
      2297        22  CHL1      H17            12.5673844590       19.0450226708        9.7483351686  MEMB      22              0.0000000000
      2298        22  CHL1      C13            12.1406976372       20.2833575415       11.4383327344  MEMB      22              0.0000000000
      2299        22  CHL1      C18            12.3062113283       21.6868601691       11.8806775682  MEMB      22              0.0000000000
      2300        22  CHL1      H18A           11.8636624389       22.3142359557       11.0990407739  MEMB      22              0.0000000000
      2301        22  CHL1      H18B           11.8079286256       21.7912501724       12.8562128086  MEMB      22              0.0000000000
      2302        22  CHL1      H18C           13.3611464283       21.9046903127       12.0737070594  MEMB      22              0.0000000000
      2303        22  CHL1      C12            10.6902499078       19.7633101145       11.3768973032  MEMB      22              0.0000000000
      2304        22  CHL1      H12A           10.1488805124       20.5110875851       10.7808206532  MEMB      22              0.0000000000
      2305        22  CHL1      H12B           10.6470355807       18.7624310459       10.8801946753  MEMB      22              0.0000000000
      2306        22  CHL1      C11            10.0342061427       19.6769579333       12.7649087267  MEMB      22              0.0000000000
      2307        22  CHL1      H11A           10.0951328882       20.6959829216       13.1966613518  MEMB      22              0.0000000000
      2308        22  CHL1      H11B            8.9810022452       19.3793176651       12.6952463791  MEMB      22              0.0000000000
      2309        22  CHL1      C9             10.7826100201       18.8199731059       13.7799115125  MEMB      22              0.0000000000
      2310        22  CHL1      H9             10.8307789164       17.7735397328       13.3701356717  MEMB      22              0.0000000000
      2311        22  CHL1      C10            10.0967556052       18.6986520200       15.1821546273  MEMB      22              0.0000000000
      2312        22  CHL1      C19             9.7311951893       20.1072619193       15.6763444004  MEMB      22              0.0000000000
      2313        22  CHL1      H19A           10.6053500221       20.7983310551       15.6135701216  MEMB      22              0.0000000000
      2314        22  CHL1      H19B            8.9277121733       20.4557420549       15.0134807041  MEMB      22              0.0000000000
      2315        22  CHL1      H19C            9.3816589689       20.1547813709       16.7266802983  MEMB      22              0.0000000000
      2316        22  CHL1      C1              8.9487427287       17.6890696919       15.0437367935  MEMB      22              0.0000000000
      2317        22  CHL1      H1A             8.2485156588       18.1001952913       14.2928904245  MEMB      22              0.0000000000
      2318        22  CHL1      H1B             9.3556475706       16.7241322074       14.6505319614  MEMB      22              0.0000000000
      2319        22  CHL1      C2              8.2069753410       17.3945973236       16.3516364993  MEMB      22              0.0000000000
      2320        22  CHL1      H2A             7.4087103127       16.6542644827       16.1539050202  MEMB      22              0.0000000000
      2321        22  CHL1      H2B             7.7529913997       18.3357418798       16.7231582312  MEMB      22              0.0000000000
      2322        22  CHL1      C20            12.9479567001       20.6704950443        8.9485064879  MEMB      22              0.0000000000
      2323        22  CHL1      H20            13.4210405991       21.6343219156        9.2452809789  MEMB      22              0.0000000000
      2324        22  CHL1      C21            11.6586771767       21.0354748988        8.3385247703  MEMB      22              0.0000000000
      2325        22  CHL1      H21A           11.1589594362       20.1045686288        8.0060792858  MEMB      22              0.0000000000
      2326        22  CHL1      H21B           11.9452113575       21.6653919977        7.4583081470  MEMB      22              0.0000000000
      2327        22  CHL1      H21C           11.1112001256       21.5879557045        9.1125732769  MEMB      22              0.0000000000
      2328        22  CHL1      C22            13.6633455776       19.8444370949        7.8339675000  MEMB      22              0.0000000000
      2329        22  CHL1      H22A           13.7701046519       20.6371383039        7.0877416553  MEMB      22              0.0000000000
      2330        22  CHL1      H22B           14.6442393930       19.5241043961        8.1687105800  MEMB      22              0.0000000000
      2331        22  CHL1      C23            13.0379564693       18.7439401764        7.0186689839  MEMB      22              0.0000000000
      2332        22  CHL1      H23A           12.7607525974       17.9567700350        7.7405952289  MEMB      22              0.0000000000
      2333        22  CHL1      H23B           12.2277009769       19.2795637055        6.5067795464  MEMB      22              0.0000000000
      2334        22  CHL1      C24            13.7910330228       18.0904504097        5.8572508236  MEMB      22              0.0000000000
      2335        22  CHL1      H24A           14.6396637208       17.5395319239        6.2541820455  MEMB      22              0.0000000000
      2336        22  CHL1      H24B           13.1353350055       17.3585130883        5.3697848587  MEMB      22              0.0000000000
      2337        22  CHL1      C25            14.3309611509       19.0081302530        4.7886947265  MEMB      22              0.0000000000
      2338        22  CHL1      H25            15.2951426686       19.3132745176        5.2688186639  MEMB      22              0.0000000000
      2339        22  CHL1      C26            14.9100248261       18.3490046450        3.5915562881  MEMB      22              0.0000000000
      2340        22  CHL1      H26A           15.5848821801       17.8279732358        4.2788761481  MEMB      22              0.0000000000
      2341        22  CHL1      H26B           14.2685605379       17.7149221383        2.9771898796  MEMB      22              0.0000000000
      2342        22  CHL1      H26C           15.7178886897       18.7712510999        2.9722921271  MEMB      22              0.0000000000
      2343        22  CHL1      C27            13.4468286226       20.1033491519        4.2633628982  MEMB      22              0.0000000000
      2344        22  CHL1      H27A           13.3112297514       20.8788866872        5.0401302876  MEMB      22              0.0000000000
      2345        22  CHL1      H27B           13.8866662469       20.5653325832        3.3583951684  MEMB      22              0.0000000000
      2346        22  CHL1      H27C           12.5364250495       19.6692740100        3.8393784350  MEMB      22              0.0000000000
      2347        23  CHL1      C3            -10.2621698666      -16.9625488817       17.3600180377  MEMB      23              0.0000000000
      2348        23  CHL1      H3            -11.0950054427      -17.7059742708       17.2898110780  MEMB      23              0.0000000000
      2349        23  CHL1      O3             -9.9385342208      -16.8482487632       18.7298096421  MEMB      23              0.0000000000
      2350        23  CHL1      H3'           -10.8108894747      -16.8278334382       19.1407885309  MEMB      23              0.0000000000
      2351        23  CHL1      C4             -9.0450890625      -17.4767928065       16.5578625073  MEMB      23              0.0000000000
      2352        23  CHL1      H4A            -8.1891309344      -16.7909562990       16.7096048198  MEMB      23              0.0000000000
      2353        23  CHL1      H4B            -8.7427140888      -18.4529191485       17.0022637267  MEMB      23              0.0000000000
      2354        23  CHL1      C5             -9.3744218425      -17.6132358551       15.0832413250  MEMB      23              0.0000000000
      2355        23  CHL1      C6             -9.1971774679      -18.7789007334       14.4383767415  MEMB      23              0.0000000000
      2356        23  CHL1      H6             -8.6695600826      -19.6158759599       14.9253097759  MEMB      23              0.0000000000
      2357        23  CHL1      C7             -9.6514275656      -18.9753301970       13.0232373615  MEMB      23              0.0000000000
      2358        23  CHL1      H7A            -9.0482852323      -19.7396015306       12.4946886525  MEMB      23              0.0000000000
      2359        23  CHL1      H7B           -10.7042874426      -19.3416919140       13.0676551160  MEMB      23              0.0000000000
      2360        23  CHL1      C8             -9.7114475359      -17.6333709336       12.2505379194  MEMB      23              0.0000000000
      2361        23  CHL1      H8             -8.6959421864      -17.1927249377       12.1886380184  MEMB      23              0.0000000000
      2362        23  CHL1      C14           -10.1550102918      -17.8281899922       10.8219827103  MEMB      23              0.0000000000
      2363        23  CHL1      H14           -11.1473203897      -18.3277803043       10.8749995412  MEMB      23              0.0000000000
      2364        23  CHL1      C15            -9.2663114077      -18.6987230105        9.9399698864  MEMB      23              0.0000000000
      2365        23  CHL1      H15A           -8.1941504581      -18.4970944333       10.0297131224  MEMB      23              0.0000000000
      2366        23  CHL1      H15B           -9.3061649168      -19.7748162474       10.1889863028  MEMB      23              0.0000000000
      2367        23  CHL1      C16            -9.7547670555      -18.2386188209        8.5530376310  MEMB      23              0.0000000000
      2368        23  CHL1      H16A           -9.0646019717      -18.2830298288        7.7057052145  MEMB      23              0.0000000000
      2369        23  CHL1      H16B          -10.5637162943      -18.8376331594        8.2690431818  MEMB      23              0.0000000000
      2370        23  CHL1      C17           -10.7054115306      -17.0430128736        8.6497761257  MEMB      23              0.0000000000
      2371        23  CHL1      H17           -11.7282087183      -17.3552049490        8.7555799219  MEMB      23              0.0000000000
      2372        23  CHL1      C13           -10.3504151971      -16.5309810195       10.0121028870  MEMB      23              0.0000000000
      2373        23  CHL1      C18            -9.0398856527      -15.7706244072        9.7587579788  MEMB      23              0.0000000000
      2374        23  CHL1      H18A           -8.3892026082      -16.2553766638        9.0005097962  MEMB      23              0.0000000000
      2375        23  CHL1      H18B           -9.3303910210      -14.7769818255        9.3670548335  MEMB      23              0.0000000000
      2376        23  CHL1      H18C           -8.4473272297      -15.6411935482       10.6750041935  MEMB      23              0.0000000000
      2377        23  CHL1      C12           -11.4116308099      -15.6978343806       10.6987199143  MEMB      23              0.0000000000
      2378        23  CHL1      H12A          -11.6344981533      -14.7959934239       10.1257609862  MEMB      23              0.0000000000
      2379        23  CHL1      H12B          -12.3569914755      -16.1593712736       10.6192891807  MEMB      23              0.0000000000
      2380        23  CHL1      C11           -11.0352023897      -15.4344408786       12.1565191939  MEMB      23              0.0000000000
      2381        23  CHL1      H11A          -10.1611805991      -14.7703697851       12.0619091951  MEMB      23              0.0000000000
      2382        23  CHL1      H11B          -11.8568562886      -14.8982996621       12.6650724710  MEMB      23              0.0000000000
      2383        23  CHL1      C9            -10.6357927400      -16.6786060074       13.0054374309  MEMB      23              0.0000000000
      2384        23  CHL1      H9            -11.6023782406      -17.2140817289       13.1550173003  MEMB      23              0.0000000000
      2385        23  CHL1      C10           -10.0342710701      -16.3703483341       14.4225467689  MEMB      23              0.0000000000
      2386        23  CHL1      C19            -8.9112867230      -15.3244532729       14.2534165209  MEMB      23              0.0000000000
      2387        23  CHL1      H19A           -8.4545915625      -15.0686025329       15.2281843698  MEMB      23              0.0000000000
      2388        23  CHL1      H19B           -8.1151652493      -15.6496349756       13.5529322968  MEMB      23              0.0000000000
      2389        23  CHL1      H19C           -9.3436584689      -14.3806915093       13.8769066992  MEMB      23              0.0000000000
      2390        23  CHL1      C1            -11.0998685771      -15.7340584023       15.3574262714  MEMB      23              0.0000000000
      2391        23  CHL1      H1A           -11.5076120607      -14.7979966522       14.9315118484  MEMB      23              0.0000000000
      2392        23  CHL1      H1B           -11.8909054280      -16.4523099083       15.4539793053  MEMB      23              0.0000000000
      2393        23  CHL1      C2            -10.7820417649      -15.6102227214       16.8476632549  MEMB      23              0.0000000000
      2394        23  CHL1      H2A           -11.7257387417      -15.3784963089       17.3989026479  MEMB      23              0.0000000000
      2395        23  CHL1      H2B           -10.0836728071      -14.7717387317       17.0119872154  MEMB      23              0.0000000000
      2396        23  CHL1      C20           -10.7847690091      -16.2507703707        7.3514998375  MEMB      23              0.0000000000
      2397        23  CHL1      H20            -9.7301338149      -16.0364789462        7.1006999601  MEMB      23              0.0000000000
      2398        23  CHL1      C21           -11.6142311377      -14.9845829239        7.5184734719  MEMB      23              0.0000000000
      2399        23  CHL1      H21A          -12.6006775919      -15.2033201087        7.9861827361  MEMB      23              0.0000000000
      2400        23  CHL1      H21B          -11.7815799142      -14.5543660229        6.5139019428  MEMB      23              0.0000000000
      2401        23  CHL1      H21C          -11.0725234914      -14.2356438508        8.1234640116  MEMB      23              0.0000000000
      2402        23  CHL1      C22           -11.3924221124      -17.0257437741        6.1477907601  MEMB      23              0.0000000000
      2403        23  CHL1      H22A          -10.9759829439      -18.0091187261        6.2014649561  MEMB      23              0.0000000000
      2404        23  CHL1      H22B          -12.4911512337      -17.1572165674        6.2444441157  MEMB      23              0.0000000000
      2405        23  CHL1      C23           -10.9835289174      -16.4917301818        4.7515572974  MEMB      23              0.0000000000
      2406        23  CHL1      H23A          -11.5831700888      -15.5800655773        4.5670496439  MEMB      23              0.0000000000
      2407        23  CHL1      H23B           -9.9012351136      -16.2489449322        4.7634551662  MEMB      23              0.0000000000
      2408        23  CHL1      C24           -11.2080813882      -17.5055961330        3.6167088593  MEMB      23              0.0000000000
      2409        23  CHL1      H24A          -10.5072112114      -18.3460995197        3.7455964060  MEMB      23              0.0000000000
      2410        23  CHL1      H24B          -12.2655459258      -17.8119404018        3.7436454275  MEMB      23              0.0000000000
      2411        23  CHL1      C25           -11.0401519082      -17.1055075273        2.1379927412  MEMB      23              0.0000000000
      2412        23  CHL1      H25           -11.6348008096      -16.1800984151        2.0157580108  MEMB      23              0.0000000000
      2413        23  CHL1      C26            -9.6050730060      -16.8024974495        1.7791557014  MEMB      23              0.0000000000
      2414        23  CHL1      H26A           -8.9501375488      -17.6898791855        1.9172879422  MEMB      23              0.0000000000
      2415        23  CHL1      H26B           -9.5786232820      -16.5198282997        0.7039148116  MEMB      23              0.0000000000
      2416        23  CHL1      H26C           -9.2706593372      -15.9765852421        2.4347162071  MEMB      23              0.0000000000
      2417        23  CHL1      C27           -11.5162488793      -18.1695603362        1.1329950986  MEMB      23              0.0000000000
      2418        23  CHL1      H27A          -10.7360367430      -18.9028012509        0.8738700432  MEMB      23              0.0000000000
      2419        23  CHL1      H27B          -12.4072249927      -18.6901827383        1.5301042832  MEMB      23              0.0000000000
      2420        23  CHL1      H27C          -11.8085756472      -17.7087250159        0.1660653830  MEMB      23              0.0000000000
      2421        24  SAPE      N              -4.2603840165       18.9943403502       20.8687095662  MEMB      24              0.0000000000
      2422        24  SAPE      HN1            -5.0999653632       19.0314961874       21.4793810252  MEMB      24              0.0000000000
      2423        24  SAPE      HN2            -3.5673094928       18.3855079239       21.3306444419  MEMB      24              0.0000000000
      2424        24  SAPE      HN3            -3.9240240474       19.9724193326       20.7837186548  MEMB      24              0.0000000000
      2425        24  SAPE      C12            -4.7537435393       18.5484251406       19.5246556901  MEMB      24              0.0000000000
      2426        24  SAPE      H12A           -5.4156074873       17.6768317890       19.6984571212  MEMB      24              0.0000000000
      2427        24  SAPE      H12B           -3.9094617742       18.2052938071       18.9071162578  MEMB      24              0.0000000000
      2428        24  SAPE      C11            -5.5212519687       19.7133380098       18.8833736273  MEMB      24              0.0000000000
      2429        24  SAPE      H11A           -6.0067766814       19.4109883046       17.9287282613  MEMB      24              0.0000000000
      2430        24  SAPE      H11B           -4.8388461037       20.5544416724       18.6233579737  MEMB      24              0.0000000000
      2431        24  SAPE      P              -7.8307013728       19.5753432965       20.2029317648  MEMB      24              0.0000000000
      2432        24  SAPE      O13            -7.7698406451       19.3264349056       21.6626252614  MEMB      24              0.0000000000
      2433        24  SAPE      O14            -8.9626601153       20.3527837456       19.6635374816  MEMB      24              0.0000000000
      2434        24  SAPE      O12            -6.4621019124       20.2352042529       19.7961298022  MEMB      24              0.0000000000
      2435        24  SAPE      O11            -7.7885977319       18.1546808911       19.5096774105  MEMB      24              0.0000000000
      2436        24  SAPE      C1             -8.1773083266       17.0217563864       20.3325395069  MEMB      24              0.0000000000
      2437        24  SAPE      HA             -7.2661475446       16.5802925365       20.7966292871  MEMB      24              0.0000000000
      2438        24  SAPE      HB             -8.9515874836       17.2609592525       21.0903004974  MEMB      24              0.0000000000
      2439        24  SAPE      C2             -8.8390506679       15.8791835664       19.5924542767  MEMB      24              0.0000000000
      2440        24  SAPE      HS             -9.3785924166       15.0978251639       20.1319347643  MEMB      24              0.0000000000
      2441        24  SAPE      O21            -7.6805587037       15.2168829505       19.0979482187  MEMB      24              0.0000000000
      2442        24  SAPE      C21            -6.4130491026       14.6831413240       19.2371551331  MEMB      24              0.0000000000
      2443        24  SAPE      O22            -6.0823396595       14.1912818191       20.2823915207  MEMB      24              0.0000000000
      2444        24  SAPE      C22            -5.3736760961       14.7544244295       17.9044647787  MEMB      24              0.0000000000
      2445        24  SAPE      H2R            -4.3562817603       14.4825685997       18.1870939762  MEMB      24              0.0000000000
      2446        24  SAPE      H2S            -5.5454923036       13.8884533894       17.2266558958  MEMB      24              0.0000000000
      2447        24  SAPE      C3             -9.9397376957       16.4912863657       18.5010176829  MEMB      24              0.0000000000
      2448        24  SAPE      HX            -10.5563472709       17.1788910784       19.1246093690  MEMB      24              0.0000000000
      2449        24  SAPE      HY            -10.7020407483       15.7424396105       18.1814441359  MEMB      24              0.0000000000
      2450        24  SAPE      O31            -9.4862872607       17.3226338679       17.3877726967  MEMB      24              0.0000000000
      2451        24  SAPE      C31            -9.8662002202       17.1122443301       16.1221246209  MEMB      24              0.0000000000
      2452        24  SAPE      O32           -10.5349401033       16.2230956985       15.6585826528  MEMB      24              0.0000000000
      2453        24  SAPE      C32            -9.3151471684       18.1161728889       15.1639267435  MEMB      24              0.0000000000
      2454        24  SAPE      H2X            -8.2895365333       18.4492729326       15.4667877639  MEMB      24              0.0000000000
      2455        24  SAPE      H2Y           -10.0212461985       18.9356664641       15.2125177032  MEMB      24              0.0000000000
      2456        24  SAPE      C23            -5.1246819930       16.1084079105       17.0440267040  MEMB      24              0.0000000000
      2457        24  SAPE      H3R            -5.4861429393       16.9841234082       17.5689301079  MEMB      24              0.0000000000
      2458        24  SAPE      H3S            -5.8100296726       16.4235170705       16.3023224186  MEMB      24              0.0000000000
      2459        24  SAPE      C24            -4.1355158859       16.0861087706       15.8479147093  MEMB      24              0.0000000000
      2460        24  SAPE      H4R            -4.1641150805       15.0809803844       15.3679421367  MEMB      24              0.0000000000
      2461        24  SAPE      H4S            -3.2600330102       16.2270646952       16.4658335208  MEMB      24              0.0000000000
      2462        24  SAPE      C25            -4.0388935395       17.0956314773       14.7247634194  MEMB      24              0.0000000000
      2463        24  SAPE      H5R            -4.3327673497       18.1450836849       15.0067216013  MEMB      24              0.0000000000
      2464        24  SAPE      C26            -4.0732533624       16.7183880704       13.4097876318  MEMB      24              0.0000000000
      2465        24  SAPE      H6R            -4.2741772274       17.6112872544       12.7543972446  MEMB      24              0.0000000000
      2466        24  SAPE      C27            -4.2420606119       15.2830372365       12.7106158002  MEMB      24              0.0000000000
      2467        24  SAPE      H7R            -3.2687973902       14.8420283748       12.7747068914  MEMB      24              0.0000000000
      2468        24  SAPE      H7S            -4.3971226848       15.6311169394       11.6584430527  MEMB      24              0.0000000000
      2469        24  SAPE      C28            -5.2371931464       14.0323684752       12.9783602711  MEMB      24              0.0000000000
      2470        24  SAPE      H8R            -5.3419698750       13.9691065219       14.0781142459  MEMB      24              0.0000000000
      2471        24  SAPE      C29            -6.2217772114       13.2600232429       12.2507873975  MEMB      24              0.0000000000
      2472        24  SAPE      H9R            -7.2213675526       13.1021337503       12.7684411043  MEMB      24              0.0000000000
      2473        24  SAPE      C210           -6.6464382121       13.3911693579       10.7758852019  MEMB      24              0.0000000000
      2474        24  SAPE      H10R           -6.1604296636       12.5192904228       10.4206189657  MEMB      24              0.0000000000
      2475        24  SAPE      H10S           -6.0437562109       14.1773255066       10.2926309913  MEMB      24              0.0000000000
      2476        24  SAPE      C211           -7.7275896366       13.0354130062        9.8117101075  MEMB      24              0.0000000000
      2477        24  SAPE      H11R           -8.7233488170       13.2380516170       10.3534380310  MEMB      24              0.0000000000
      2478        24  SAPE      C212           -7.7089429496       13.6898235957        8.6022916096  MEMB      24              0.0000000000
      2479        24  SAPE      H12R           -8.5086666363       14.1716906835        8.5138528684  MEMB      24              0.0000000000
      2480        24  SAPE      C213           -7.0020830972       14.8018497025        7.7589468527  MEMB      24              0.0000000000
      2481        24  SAPE      H13R           -6.2160182973       15.4236333693        8.2426052946  MEMB      24              0.0000000000
      2482        24  SAPE      H13S           -7.6328194982       15.7228535848        7.4355736561  MEMB      24              0.0000000000
      2483        24  SAPE      C214           -6.7739375851       14.1718860456        6.5062560821  MEMB      24              0.0000000000
      2484        24  SAPE      H14R           -5.7127015992       14.0373115155        6.4549195291  MEMB      24              0.0000000000
      2485        24  SAPE      C215           -7.5720156429       14.0462344875        5.4421027796  MEMB      24              0.0000000000
      2486        24  SAPE      H15R           -7.3563416037       13.1811545483        4.8373829642  MEMB      24              0.0000000000
      2487        24  SAPE      C216           -8.9567109736       14.4899222815        5.1472953047  MEMB      24              0.0000000000
      2488        24  SAPE      H16R           -9.4316808862       14.7722136395        6.0262828691  MEMB      24              0.0000000000
      2489        24  SAPE      H16S           -9.5350930714       13.6083757511        4.8216784113  MEMB      24              0.0000000000
      2490        24  SAPE      C217           -9.3335240813       15.7752989443        4.4139343671  MEMB      24              0.0000000000
      2491        24  SAPE      H17R           -8.9694719379       15.6533724110        3.3929997648  MEMB      24              0.0000000000
      2492        24  SAPE      H17S           -8.8145753153       16.6471261589        4.9015399907  MEMB      24              0.0000000000
      2493        24  SAPE      C218          -10.8332726601       16.0824086573        4.2997759396  MEMB      24              0.0000000000
      2494        24  SAPE      H18R          -11.2265853278       16.4456535736        5.2637491491  MEMB      24              0.0000000000
      2495        24  SAPE      H18S          -11.7091028568       15.5099349748        4.2681165840  MEMB      24              0.0000000000
      2496        24  SAPE      C219          -11.1699540888       16.8897990268        3.1072036216  MEMB      24              0.0000000000
      2497        24  SAPE      H19R          -10.3023548256       17.4431727124        2.7069332551  MEMB      24              0.0000000000
      2498        24  SAPE      H19S          -11.7596484503       17.5575442862        3.7066749925  MEMB      24              0.0000000000
      2499        24  SAPE      C220          -12.2816587707       16.4306455461        2.2531723668  MEMB      24              0.0000000000
      2500        24  SAPE      H20R          -11.8557886007       15.5293614738        1.8048552871  MEMB      24              0.0000000000
      2501        24  SAPE      H20S          -12.5310352117       17.1920628976        1.5012583167  MEMB      24              0.0000000000
      2502        24  SAPE      H20T          -13.1721643732       16.2849496521        2.9285342235  MEMB      24              0.0000000000
      2503        24  SAPE      C33            -9.3841330337       17.6371911090       13.6996870875  MEMB      24              0.0000000000
      2504        24  SAPE      H3X           -10.3278039380       17.2438045680       13.3117329566  MEMB      24              0.0000000000
      2505        24  SAPE      H3Y            -9.0457899982       16.5991753402       13.5610052105  MEMB      24              0.0000000000
      2506        24  SAPE      C34            -8.6151800586       18.8182651223       12.9198239565  MEMB      24              0.0000000000
      2507        24  SAPE      H4X            -7.5754887238       19.0395762736       13.2515235039  MEMB      24              0.0000000000
      2508        24  SAPE      H4Y            -9.2495079196       19.6693492359       13.0210839785  MEMB      24              0.0000000000
      2509        24  SAPE      C35            -8.3467047499       18.7108070957       11.4260991977  MEMB      24              0.0000000000
      2510        24  SAPE      H5X            -9.2173099088       18.6156935122       10.8500608197  MEMB      24              0.0000000000
      2511        24  SAPE      H5Y            -8.4531458135       17.8187124264       11.8991143614  MEMB      24              0.0000000000
      2512        24  SAPE      C36            -7.0175422684       18.7319275811       10.5959718821  MEMB      24              0.0000000000
      2513        24  SAPE      H6X            -7.1476102592       18.3881571655        9.5417064439  MEMB      24              0.0000000000
      2514        24  SAPE      H6Y            -6.0842402071       18.2329554814       10.9049149658  MEMB      24              0.0000000000
      2515        24  SAPE      C37            -6.4538082912       20.0581183891       10.8194838366  MEMB      24              0.0000000000
      2516        24  SAPE      H7X            -5.4842544711       20.1674567415       10.2975294771  MEMB      24              0.0000000000
      2517        24  SAPE      H7Y            -6.2650379048       20.0284411618       11.9202970921  MEMB      24              0.0000000000
      2518        24  SAPE      C38            -7.4668402591       21.1108360609       10.4536915432  MEMB      24              0.0000000000
      2519        24  SAPE      H8X            -7.0052765284       22.0290453762       10.8417043808  MEMB      24              0.0000000000
      2520        24  SAPE      H8Y            -8.4460036782       20.9950298415       10.9768055254  MEMB      24              0.0000000000
      2521        24  SAPE      C39            -7.7075297929       21.1859890634        8.9468916288  MEMB      24              0.0000000000
      2522        24  SAPE      H9X            -8.4907731879       21.9259576079        8.6995824416  MEMB      24              0.0000000000
      2523        24  SAPE      H9Y            -8.0855646835       20.2405834102        8.5763484835  MEMB      24              0.0000000000
      2524        24  SAPE      C310           -6.4752285466       21.3835918965        8.0735663192  MEMB      24              0.0000000000
      2525        24  SAPE      H10X           -5.8981895203       20.4277259780        8.0475147321  MEMB      24              0.0000000000
      2526        24  SAPE      H10Y           -5.8399386276       22.1564295914        8.5477709363  MEMB      24              0.0000000000
      2527        24  SAPE      C311           -6.9460396940       21.7968913371        6.6664017492  MEMB      24              0.0000000000
      2528        24  SAPE      H11X           -7.5479268412       22.7293607910        6.7533765878  MEMB      24              0.0000000000
      2529        24  SAPE      H11Y           -7.6323156184       21.0151442450        6.2747475223  MEMB      24              0.0000000000
      2530        24  SAPE      C312           -5.8429911421       22.1230671912        5.6534872023  MEMB      24              0.0000000000
      2531        24  SAPE      H12X           -5.3613038556       23.0563144659        6.0278065983  MEMB      24              0.0000000000
      2532        24  SAPE      H12Y           -6.2923016167       22.3469479731        4.6615712115  MEMB      24              0.0000000000
      2533        24  SAPE      C313           -4.7787567770       21.0329779098        5.4983273278  MEMB      24              0.0000000000
      2534        24  SAPE      H13X           -4.4266718779       20.8198763483        6.5347232601  MEMB      24              0.0000000000
      2535        24  SAPE      H13Y           -3.8979617916       21.4238915774        4.9435178799  MEMB      24              0.0000000000
      2536        24  SAPE      C314           -5.2867889860       19.7006906322        4.8935207116  MEMB      24              0.0000000000
      2537        24  SAPE      H14X           -6.1539000822       19.3751970153        5.5132255200  MEMB      24              0.0000000000
      2538        24  SAPE      H14Y           -4.4806765420       18.9511296516        5.0488695616  MEMB      24              0.0000000000
      2539        24  SAPE      C315           -5.7631980746       19.6526141420        3.4080989424  MEMB      24              0.0000000000
      2540        24  SAPE      H15X           -6.5973108058       20.3866998952        3.2663631016  MEMB      24              0.0000000000
      2541        24  SAPE      H15Y           -6.1573590833       18.6415089277        3.1940756604  MEMB      24              0.0000000000
      2542        24  SAPE      C316           -4.7307124068       19.9019244314        2.2727777536  MEMB      24              0.0000000000
      2543        24  SAPE      H16X           -4.5345303220       20.9788136379        2.5501051182  MEMB      24              0.0000000000
      2544        24  SAPE      H16Y           -5.1945600786       19.9488338360        1.2913502488  MEMB      24              0.0000000000
      2545        24  SAPE      C317           -3.4930418325       18.8778556118        2.1178347060  MEMB      24              0.0000000000
      2546        24  SAPE      H17X           -3.5091194113       17.8570683244        2.4999848261  MEMB      24              0.0000000000
      2547        24  SAPE      H17Y           -3.3201011965       19.3650277884        3.0820001781  MEMB      24              0.0000000000
      2548        24  SAPE      C318           -2.2403835899       18.8229556422        1.0442962924  MEMB      24              0.0000000000
      2549        24  SAPE      H18X           -1.8353895353       19.7530124678        0.6459341923  MEMB      24              0.0000000000
      2550        24  SAPE      H18Y           -2.5402131393       18.9814410575        0.0339545545  MEMB      24              0.0000000000
      2551        24  SAPE      H18Z           -1.1731602466       18.8501617574        1.4081029027  MEMB      24              0.0000000000
      2552        25  POPC      N              19.3363630707      -10.1389959993       20.3996912326  MEMB      25              0.0000000000
      2553        25  POPC      C12            18.1196112637      -10.9704543871       20.7599067831  MEMB      25              0.0000000000
      2554        25  POPC      H12A           17.8680096368      -10.7872012405       21.7871186757  MEMB      25              0.0000000000
      2555        25  POPC      H12B           18.3881618298      -12.0203942109       20.6478116292  MEMB      25              0.0000000000
      2556        25  POPC      C13            20.0677654119      -10.8306341763       19.2775100397  MEMB      25              0.0000000000
      2557        25  POPC      H13A           20.0527805729      -11.9011897999       19.4395636811  MEMB      25              0.0000000000
      2558        25  POPC      H13B           19.5105169640      -10.7101994722       18.3462651369  MEMB      25              0.0000000000
      2559        25  POPC      H13C           21.0835494213      -10.4890073446       19.1372657137  MEMB      25              0.0000000000
      2560        25  POPC      C14            19.0001760012       -8.7051886782       20.0900134859  MEMB      25              0.0000000000
      2561        25  POPC      H14A           18.4481412070       -8.5932548386       19.1584286795  MEMB      25              0.0000000000
      2562        25  POPC      H14B           18.4120510438       -8.2973990330       20.8945106406  MEMB      25              0.0000000000
      2563        25  POPC      H14C           19.8903915239       -8.0820295640       20.0365225985  MEMB      25              0.0000000000
      2564        25  POPC      C15            20.2068980055      -10.0621870885       21.6029818207  MEMB      25              0.0000000000
      2565        25  POPC      H15A           21.0960296405       -9.4770950357       21.3774018735  MEMB      25              0.0000000000
      2566        25  POPC      H15B           20.4894216456      -11.0358539258       21.9476404333  MEMB      25              0.0000000000
      2567        25  POPC      H15C           19.6662582193       -9.5566612123       22.4003365055  MEMB      25              0.0000000000
      2568        25  POPC      C11            16.8693319377      -10.8797957429       19.8919085416  MEMB      25              0.0000000000
      2569        25  POPC      H11A           16.4362966521       -9.8548515751       19.8817389867  MEMB      25              0.0000000000
      2570        25  POPC      H11B           16.0916700697      -11.5595725302       20.3184699027  MEMB      25              0.0000000000
      2571        25  POPC      P              16.5117306191      -10.8432715491       17.3309898341  MEMB      25              0.0000000000
      2572        25  POPC      O13            17.2250940392      -11.3628290925       16.1435352742  MEMB      25              0.0000000000
      2573        25  POPC      O14            16.3265398628       -9.3707228757       17.4663303815  MEMB      25              0.0000000000
      2574        25  POPC      O12            17.2701879916      -11.3415014153       18.6114335712  MEMB      25              0.0000000000
      2575        25  POPC      O11            15.1309239627      -11.5720418432       17.5437018441  MEMB      25              0.0000000000
      2576        25  POPC      C1             14.9516850524      -12.9414022364       17.8757072007  MEMB      25              0.0000000000
      2577        25  POPC      HA             14.4124367832      -13.0293402850       18.8456099093  MEMB      25              0.0000000000
      2578        25  POPC      HB             15.9035291696      -13.5104774797       18.0034039033  MEMB      25              0.0000000000
      2579        25  POPC      C2             14.0593037463      -13.6399786536       16.8257073518  MEMB      25              0.0000000000
      2580        25  POPC      HS             14.0573912984      -14.6725456372       17.1284207314  MEMB      25              0.0000000000
      2581        25  POPC      O21            14.5393915306      -13.5642002578       15.4905066342  MEMB      25              0.0000000000
      2582        25  POPC      C21            15.6228902726      -14.2211507393       15.2977429000  MEMB      25              0.0000000000
      2583        25  POPC      O22            16.3052358078      -14.8150318932       16.1190631350  MEMB      25              0.0000000000
      2584        25  POPC      C22            15.7777484626      -14.3634167261       13.8185235709  MEMB      25              0.0000000000
      2585        25  POPC      H2R            15.0252776807      -13.8096312180       13.2341207591  MEMB      25              0.0000000000
      2586        25  POPC      H2S            15.8096269073      -15.4275529710       13.4931948836  MEMB      25              0.0000000000
      2587        25  POPC      C3             12.6137176517      -13.1219759710       16.7933260664  MEMB      25              0.0000000000
      2588        25  POPC      HX             12.1629840779      -13.2220512948       17.7988962493  MEMB      25              0.0000000000
      2589        25  POPC      HY             11.9993569683      -13.7555836514       16.1128595984  MEMB      25              0.0000000000
      2590        25  POPC      O31            12.6261472353      -11.7439662537       16.4096820847  MEMB      25              0.0000000000
      2591        25  POPC      C31            12.6083695038      -11.5228217263       15.1053926477  MEMB      25              0.0000000000
      2592        25  POPC      O32            12.3725750384      -12.3593294042       14.2455337759  MEMB      25              0.0000000000
      2593        25  POPC      C32            12.8719516833      -10.0482166382       14.8451771669  MEMB      25              0.0000000000
      2594        25  POPC      H2X            13.1756994931       -9.5502099141       15.7815397489  MEMB      25              0.0000000000
      2595        25  POPC      H2Y            12.0136985450       -9.4439499725       14.5477557115  MEMB      25              0.0000000000
      2596        25  POPC      C23            17.1123922479      -13.8035447955       13.6061147600  MEMB      25              0.0000000000
      2597        25  POPC      H3R            17.8014940108      -14.3534512146       14.3148049036  MEMB      25              0.0000000000
      2598        25  POPC      H3S            17.2204909703      -12.7135359380       13.8133880925  MEMB      25              0.0000000000
      2599        25  POPC      C24            17.4536538070      -14.0577428113       12.1729882610  MEMB      25              0.0000000000
      2600        25  POPC      H4R            17.3654680770      -15.1000490681       11.8086285964  MEMB      25              0.0000000000
      2601        25  POPC      H4S            18.4651214229      -13.9112228453       12.4175981985  MEMB      25              0.0000000000
      2602        25  POPC      C25            17.1470549695      -12.9986912623       11.1161362237  MEMB      25              0.0000000000
      2603        25  POPC      H5R            16.0961526853      -12.7603664512       11.2378367211  MEMB      25              0.0000000000
      2604        25  POPC      H5S            17.1378320940      -13.4714682533       10.1132426156  MEMB      25              0.0000000000
      2605        25  POPC      C26            17.9668519630      -11.6883458960       11.1794278797  MEMB      25              0.0000000000
      2606        25  POPC      H6R            19.0265759725      -11.6706035666       11.4314976271  MEMB      25              0.0000000000
      2607        25  POPC      H6S            17.5522802749      -11.1311734932       12.0304350481  MEMB      25              0.0000000000
      2608        25  POPC      C27            17.9641068431      -10.8614997272        9.9036799999  MEMB      25              0.0000000000
      2609        25  POPC      H7R            16.9225849392      -10.7196639998        9.5872057074  MEMB      25              0.0000000000
      2610        25  POPC      H7S            18.4509498118      -11.4254607894        9.0850908703  MEMB      25              0.0000000000
      2611        25  POPC      C28            18.5867083594       -9.4891617270       10.1865767262  MEMB      25              0.0000000000
      2612        25  POPC      H8R            17.9849130057       -8.9495263754       10.9280302393  MEMB      25              0.0000000000
      2613        25  POPC      H8S            18.5564558088       -8.8666032256        9.2628057952  MEMB      25              0.0000000000
      2614        25  POPC      C29            19.9557205357       -9.5160517642       10.7679446975  MEMB      25              0.0000000000
      2615        25  POPC      H91            20.2187055866       -8.8935149631       11.6411674476  MEMB      25              0.0000000000
      2616        25  POPC      C210           20.9262350956       -9.9182218462       10.0192408590  MEMB      25              0.0000000000
      2617        25  POPC      H101           21.8973940420       -9.7986320695       10.5528620670  MEMB      25              0.0000000000
      2618        25  POPC      C211           20.8025273825      -10.4071969941        8.5412727178  MEMB      25              0.0000000000
      2619        25  POPC      H11R           20.1005159311      -11.2188547533        8.4009353648  MEMB      25              0.0000000000
      2620        25  POPC      H11S           21.6692445475      -10.9614610955        8.2129555397  MEMB      25              0.0000000000
      2621        25  POPC      C212           20.4844530413       -9.6717860115        7.2480138804  MEMB      25              0.0000000000
      2622        25  POPC      H12R           21.3634907343       -9.0119606365        7.0216915635  MEMB      25              0.0000000000
      2623        25  POPC      H12S           19.5389571610       -9.1770282061        7.4929681576  MEMB      25              0.0000000000
      2624        25  POPC      C213           20.3194946455      -10.5021807343        5.9965804984  MEMB      25              0.0000000000
      2625        25  POPC      H13R           19.9860048314      -11.5390072632        6.1316248574  MEMB      25              0.0000000000
      2626        25  POPC      H13S           21.2849849245      -10.7207363654        5.6542610988  MEMB      25              0.0000000000
      2627        25  POPC      C214           20.3487341888       -9.7162871180        4.6945271338  MEMB      25              0.0000000000
      2628        25  POPC      H14R           20.9611682978       -8.7846562607        4.7935646049  MEMB      25              0.0000000000
      2629        25  POPC      H14S           19.2801571397       -9.4592468164        4.6392216075  MEMB      25              0.0000000000
      2630        25  POPC      C215           20.9516957146      -10.5081449107        3.4965128730  MEMB      25              0.0000000000
      2631        25  POPC      H15R           20.7884480067      -11.6019171445        3.6384450366  MEMB      25              0.0000000000
      2632        25  POPC      H15S           22.0250091129      -10.3593621798        3.2509134088  MEMB      25              0.0000000000
      2633        25  POPC      C216           20.1350704340      -10.1223821903        2.3292282391  MEMB      25              0.0000000000
      2634        25  POPC      H16R           19.9985487309       -9.0114044251        2.2952669914  MEMB      25              0.0000000000
      2635        25  POPC      H16S           19.2164925560      -10.6354020055        2.6847017364  MEMB      25              0.0000000000
      2636        25  POPC      C217           20.4813626303      -10.6533762398        0.9562666193  MEMB      25              0.0000000000
      2637        25  POPC      H17R           19.5567918836      -11.1238185351        0.5469615333  MEMB      25              0.0000000000
      2638        25  POPC      H17S           21.1988336719      -11.4882880034        0.9627413980  MEMB      25              0.0000000000
      2639        25  POPC      C218           20.9150395032       -9.4713171779        0.0901643529  MEMB      25              0.0000000000
      2640        25  POPC      H18R           21.8874285086       -9.0462711494        0.3615241875  MEMB      25              0.0000000000
      2641        25  POPC      H18S           20.1486280564       -8.6613210449        0.0604179202  MEMB      25              0.0000000000
      2642        25  POPC      H18T           21.0644346125       -9.7779813919       -0.9288034349  MEMB      25              0.0000000000
      2643        25  POPC      C33            13.8811844123       -9.9832512519       13.7189364018  MEMB      25              0.0000000000
      2644        25  POPC      H3X            14.3891382590      -10.9474860871       13.5157022027  MEMB      25              0.0000000000
      2645        25  POPC      H3Y            14.6502492810       -9.2300704190       13.9998041335  MEMB      25              0.0000000000
      2646        25  POPC      C34            13.2445288107       -9.6286989404       12.3890198415  MEMB      25              0.0000000000
      2647        25  POPC      H4X            14.1300268786       -9.5330270819       11.7151536457  MEMB      25              0.0000000000
      2648        25  POPC      H4Y            12.6787180855       -8.6944671471       12.6040048796  MEMB      25              0.0000000000
      2649        25  POPC      C35            12.2507617800      -10.5965318506       11.7836847218  MEMB      25              0.0000000000
      2650        25  POPC      H5X            11.3654675741      -10.4779630339       12.4193445780  MEMB      25              0.0000000000
      2651        25  POPC      H5Y            12.6367038118      -11.6179332276       11.9386248741  MEMB      25              0.0000000000
      2652        25  POPC      C36            11.8856926856      -10.4005794740       10.3022641020  MEMB      25              0.0000000000
      2653        25  POPC      H6X            11.6901626249       -9.3332428856       10.0650446162  MEMB      25              0.0000000000
      2654        25  POPC      H6Y            10.9319983962      -10.9409643786       10.0962739656  MEMB      25              0.0000000000
      2655        25  POPC      C37            12.9675593229      -10.9454478576        9.3636354865  MEMB      25              0.0000000000
      2656        25  POPC      H7X            13.2979059057      -11.9625945526        9.6769679533  MEMB      25              0.0000000000
      2657        25  POPC      H7Y            13.8508186135      -10.2750308084        9.4277814201  MEMB      25              0.0000000000
      2658        25  POPC      C38            12.5030723767      -11.0190698813        7.9041081799  MEMB      25              0.0000000000
      2659        25  POPC      H8X            11.8278572551      -10.1513691351        7.7162335441  MEMB      25              0.0000000000
      2660        25  POPC      H8Y            11.8955970019      -11.9443241002        7.7982163041  MEMB      25              0.0000000000
      2661        25  POPC      C39            13.6792556558      -11.0766656027        6.8996045405  MEMB      25              0.0000000000
      2662        25  POPC      H9X            14.2824922227      -10.1484105956        7.0058982296  MEMB      25              0.0000000000
      2663        25  POPC      H9Y            13.2766817706      -11.1326684579        5.8628003799  MEMB      25              0.0000000000
      2664        25  POPC      C310           14.6113897743      -12.2798938951        7.1511220350  MEMB      25              0.0000000000
      2665        25  POPC      H10X           14.0806345401      -13.2107795322        6.8522662136  MEMB      25              0.0000000000
      2666        25  POPC      H10Y           14.8186447501      -12.3099939594        8.2413206591  MEMB      25              0.0000000000
      2667        25  POPC      C311           15.9927213820      -12.3041861423        6.4706789073  MEMB      25              0.0000000000
      2668        25  POPC      H11X           16.4970367714      -13.2280544002        6.8423223656  MEMB      25              0.0000000000
      2669        25  POPC      H11Y           16.6041033642      -11.4249132604        6.7663450324  MEMB      25              0.0000000000
      2670        25  POPC      C312           15.9326928627      -12.3555170870        4.9525964341  MEMB      25              0.0000000000
      2671        25  POPC      H12X           15.6043795724      -11.3592989809        4.5774800786  MEMB      25              0.0000000000
      2672        25  POPC      H12Y           15.1974023567      -13.1322341692        4.6414273879  MEMB      25              0.0000000000
      2673        25  POPC      C313           17.2377632793      -12.7648067630        4.2783373894  MEMB      25              0.0000000000
      2674        25  POPC      H13X           17.3858702536      -13.8473683295        4.5155975342  MEMB      25              0.0000000000
      2675        25  POPC      H13Y           18.1116218238      -12.2132956051        4.6849350112  MEMB      25              0.0000000000
      2676        25  POPC      C314           17.0512451631      -12.5981277704        2.7651973839  MEMB      25              0.0000000000
      2677        25  POPC      H14X           17.8740119647      -12.6858099082        2.0701211154  MEMB      25              0.0000000000
      2678        25  POPC      H14Y           16.9181165862      -11.5486361706        2.4967036959  MEMB      25              0.0000000000
      2679        25  POPC      C315           15.9994303106      -13.5929307158        2.2945304628  MEMB      25              0.0000000000
      2680        25  POPC      H15X           15.0406352289      -13.1655378857        2.6466826659  MEMB      25              0.0000000000
      2681        25  POPC      H15Y           16.1806164504      -14.6503412865        2.5661597201  MEMB      25              0.0000000000
      2682        25  POPC      C316           15.8075790794      -13.6082424029        0.8578731998  MEMB      25              0.0000000000
      2683        25  POPC      H16X           16.3499459231      -14.3546106988        0.2561851634  MEMB      25              0.0000000000
      2684        25  POPC      H16Y           16.1458896433      -12.5762002779        0.6882613391  MEMB      25              0.0000000000
      2685        25  POPC      H16Z           14.7387389742      -13.6775500828        0.5916722898  MEMB      25              0.0000000000
      2686        26  SAPS      N             -16.4631422061       10.2775999529       19.7495760876  MEMB      26              0.0000000000
      2687        26  SAPS      HN1           -15.5216489780       10.2258038739       20.1937724715  MEMB      26              0.0000000000
      2688        26  SAPS      HN2           -16.7837772237        9.4062872117       19.2976078840  MEMB      26              0.0000000000
      2689        26  SAPS      HN3           -16.4732150260       11.0297595883       19.0327944867  MEMB      26              0.0000000000
      2690        26  SAPS      C12           -17.3890244244       10.7144342289       20.8476379808  MEMB      26              0.0000000000
      2691        26  SAPS      H12A          -17.6255752862        9.8571892620       21.4540953833  MEMB      26              0.0000000000
      2692        26  SAPS      C13           -16.7377859989       11.7196841070       21.7910834686  MEMB      26              0.0000000000
      2693        26  SAPS      O13A          -15.5217179011       11.9831065964       21.6080140920  MEMB      26              0.0000000000
      2694        26  SAPS      O13B          -17.4043254998       12.1250341280       22.7684786939  MEMB      26              0.0000000000
      2695        26  SAPS      C11           -18.6670168704       11.3183164821       20.2413721841  MEMB      26              0.0000000000
      2696        26  SAPS      H11A          -18.4302006458       12.2806316122       19.7208138948  MEMB      26              0.0000000000
      2697        26  SAPS      H11B          -19.3732396495       11.5601728572       21.0771446495  MEMB      26              0.0000000000
      2698        26  SAPS      P             -20.5641343073       10.7327635619       18.5741714339  MEMB      26              0.0000000000
      2699        26  SAPS      O13           -21.6765644084       10.1970402979       19.3744615947  MEMB      26              0.0000000000
      2700        26  SAPS      O14           -20.5561294111       12.1650322115       18.2232955678  MEMB      26              0.0000000000
      2701        26  SAPS      O12           -19.2117119716       10.3522904687       19.3387879130  MEMB      26              0.0000000000
      2702        26  SAPS      O11           -20.4699779643        9.8990311070       17.2841869189  MEMB      26              0.0000000000
      2703        26  SAPS      C1            -20.2131598966        8.5150838026       17.3477626595  MEMB      26              0.0000000000
      2704        26  SAPS      HA            -20.4984398900        8.0372721850       18.2990040061  MEMB      26              0.0000000000
      2705        26  SAPS      HB            -20.9970798816        8.0965443459       16.7223542680  MEMB      26              0.0000000000
      2706        26  SAPS      C2            -18.7377992394        8.2572905007       16.9565432413  MEMB      26              0.0000000000
      2707        26  SAPS      HS            -18.1718905715        8.1803377334       17.8992809029  MEMB      26              0.0000000000
      2708        26  SAPS      O21           -18.3498106935        9.4115847569       16.2315516147  MEMB      26              0.0000000000
      2709        26  SAPS      C21           -17.1164991639        9.5411808614       16.1029776343  MEMB      26              0.0000000000
      2710        26  SAPS      O22           -16.2273146404        9.0260662037       16.7800155126  MEMB      26              0.0000000000
      2711        26  SAPS      C22           -16.9713488412       10.6143216727       15.1493618464  MEMB      26              0.0000000000
      2712        26  SAPS      H2R           -16.9685713380       10.2783409064       14.0884512412  MEMB      26              0.0000000000
      2713        26  SAPS      H2S           -17.8116428066       11.3367817919       15.2959724452  MEMB      26              0.0000000000
      2714        26  SAPS      C3            -18.3445862089        7.0496074956       16.0952935586  MEMB      26              0.0000000000
      2715        26  SAPS      HX            -18.9900267643        6.2068206471       16.4699307746  MEMB      26              0.0000000000
      2716        26  SAPS      HY            -17.3135895466        6.6874068966       16.2244910169  MEMB      26              0.0000000000
      2717        26  SAPS      O31           -18.4360213748        7.5492197236       14.7201935183  MEMB      26              0.0000000000
      2718        26  SAPS      C31           -18.4340985301        6.6505619218       13.7854383969  MEMB      26              0.0000000000
      2719        26  SAPS      O32           -17.8911388614        5.5597969844       14.0129579598  MEMB      26              0.0000000000
      2720        26  SAPS      C32           -19.1967738323        7.1002545196       12.2988974122  MEMB      26              0.0000000000
      2721        26  SAPS      H2X           -20.2626431338        7.0027068577       12.2277358053  MEMB      26              0.0000000000
      2722        26  SAPS      H2Y           -19.0627051406        6.2105283605       11.6757623268  MEMB      26              0.0000000000
      2723        26  SAPS      C23           -15.6607945057       11.2198634487       15.4411053100  MEMB      26              0.0000000000
      2724        26  SAPS      H3R           -14.7989069872       10.5181488386       15.3431202142  MEMB      26              0.0000000000
      2725        26  SAPS      H3S           -15.5397103012       11.8352022346       16.3666393411  MEMB      26              0.0000000000
      2726        26  SAPS      C24           -15.6403694285       12.1804642602       14.3464943605  MEMB      26              0.0000000000
      2727        26  SAPS      H4R           -15.2857296761       11.6918106521       13.3959054226  MEMB      26              0.0000000000
      2728        26  SAPS      H4S           -14.6934320041       12.5740448552       14.7227152427  MEMB      26              0.0000000000
      2729        26  SAPS      C25           -16.8716527376       13.1736213296       14.2719849487  MEMB      26              0.0000000000
      2730        26  SAPS      H5R           -16.7810517209       14.1506368839       14.7303894481  MEMB      26              0.0000000000
      2731        26  SAPS      C26           -17.6880599209       13.4388392383       13.2538178028  MEMB      26              0.0000000000
      2732        26  SAPS      H6R           -18.0779371522       14.4883010391       13.2615673796  MEMB      26              0.0000000000
      2733        26  SAPS      C27           -17.5804660366       12.7926866530       11.8787557617  MEMB      26              0.0000000000
      2734        26  SAPS      H7R           -17.1250280131       11.7962506310       11.9674690677  MEMB      26              0.0000000000
      2735        26  SAPS      H7S           -16.9214367645       13.2690222840       11.0944963529  MEMB      26              0.0000000000
      2736        26  SAPS      C28           -18.9904966132       12.8606516761       11.4644890362  MEMB      26              0.0000000000
      2737        26  SAPS      H8R           -19.6883091645       12.7873821164       12.3039001946  MEMB      26              0.0000000000
      2738        26  SAPS      C29           -19.4783725199       12.9588122883       10.2342305637  MEMB      26              0.0000000000
      2739        26  SAPS      H9R           -20.5705366691       12.9187323552       10.1739398274  MEMB      26              0.0000000000
      2740        26  SAPS      C210          -18.6749249343       13.0139611079        8.9579066737  MEMB      26              0.0000000000
      2741        26  SAPS      H10R          -18.2272931041       12.0104080418        8.8322649208  MEMB      26              0.0000000000
      2742        26  SAPS      H10S          -17.8133376825       13.7217184608        9.0191923335  MEMB      26              0.0000000000
      2743        26  SAPS      C211          -19.4929495161       13.3277463291        7.7395490158  MEMB      26              0.0000000000
      2744        26  SAPS      H11R          -20.0525697128       14.2778872984        7.7682270187  MEMB      26              0.0000000000
      2745        26  SAPS      C212          -19.7654894250       12.5143888719        6.7086032784  MEMB      26              0.0000000000
      2746        26  SAPS      H12R          -20.3845115207       12.9832366194        5.9377100528  MEMB      26              0.0000000000
      2747        26  SAPS      C213          -19.3807441849       11.0680956166        6.4077884405  MEMB      26              0.0000000000
      2748        26  SAPS      H13R          -18.5064880035       10.7172699704        7.0006190345  MEMB      26              0.0000000000
      2749        26  SAPS      H13S          -19.0453306918       10.9842516604        5.3488824629  MEMB      26              0.0000000000
      2750        26  SAPS      C214          -20.4878918469       10.0647009410        6.6623816206  MEMB      26              0.0000000000
      2751        26  SAPS      H14R          -20.1933664570        9.2062122967        7.2852659537  MEMB      26              0.0000000000
      2752        26  SAPS      C215          -21.7797767850       10.1518002796        6.3003683118  MEMB      26              0.0000000000
      2753        26  SAPS      H15R          -22.4769795452        9.3545666839        6.5981378822  MEMB      26              0.0000000000
      2754        26  SAPS      C216          -22.4112760943       11.2889454019        5.5440470317  MEMB      26              0.0000000000
      2755        26  SAPS      H16R          -21.6622915877       11.8999246689        4.9864979089  MEMB      26              0.0000000000
      2756        26  SAPS      H16S          -22.9595330191       11.9513627984        6.2410297830  MEMB      26              0.0000000000
      2757        26  SAPS      C217          -23.4184916997       10.8229994559        4.5154182704  MEMB      26              0.0000000000
      2758        26  SAPS      H17R          -23.5365313528       11.7029125362        3.8410110281  MEMB      26              0.0000000000
      2759        26  SAPS      H17S          -24.4293551974       10.6900081864        4.9357682075  MEMB      26              0.0000000000
      2760        26  SAPS      C218          -22.9274984131        9.5402967209        3.8447999764  MEMB      26              0.0000000000
      2761        26  SAPS      H18R          -23.0458570686        8.6004955023        4.4096582128  MEMB      26              0.0000000000
      2762        26  SAPS      H18S          -21.8443802973        9.6641537896        3.5579823587  MEMB      26              0.0000000000
      2763        26  SAPS      C219          -23.6168590558        9.2830094363        2.5900643170  MEMB      26              0.0000000000
      2764        26  SAPS      H19R          -24.7264821029        9.3860817529        2.5421151691  MEMB      26              0.0000000000
      2765        26  SAPS      H19S          -23.3438024053        8.2473172998        2.2797459083  MEMB      26              0.0000000000
      2766        26  SAPS      C220          -23.0196881480       10.3383958837        1.7457523230  MEMB      26              0.0000000000
      2767        26  SAPS      H20R          -22.9703678896       11.2711285976        2.2103243034  MEMB      26              0.0000000000
      2768        26  SAPS      H20S          -23.8245210558       10.6076110160        1.0538104972  MEMB      26              0.0000000000
      2769        26  SAPS      H20T          -22.0754563628       10.1039403215        1.1926388326  MEMB      26              0.0000000000
      2770        26  SAPS      C33           -18.7329840935        8.3162652951       11.4487429748  MEMB      26              0.0000000000
      2771        26  SAPS      H3X           -18.6201990945        9.1367789721       12.1716165673  MEMB      26              0.0000000000
      2772        26  SAPS      H3Y           -19.5100974500        8.3642408605       10.6506656258  MEMB      26              0.0000000000
      2773        26  SAPS      C34           -17.4760779598        8.3589245459       10.5834956366  MEMB      26              0.0000000000
      2774        26  SAPS      H4X           -17.1305565367        7.4893044549       10.1142239106  MEMB      26              0.0000000000
      2775        26  SAPS      H4Y           -16.5234749166        8.2955421326       11.0285605196  MEMB      26              0.0000000000
      2776        26  SAPS      C35           -17.5152159907        9.2175588340        9.4484763372  MEMB      26              0.0000000000
      2777        26  SAPS      H5X           -17.4390273939       10.1842563791        9.9960940948  MEMB      26              0.0000000000
      2778        26  SAPS      H5Y           -18.3953047369        8.9731046840        8.8496726347  MEMB      26              0.0000000000
      2779        26  SAPS      C36           -16.3496661749        8.8634753897        8.6168022903  MEMB      26              0.0000000000
      2780        26  SAPS      H6X           -15.6434415384        8.9477459139        9.3152437187  MEMB      26              0.0000000000
      2781        26  SAPS      H6Y           -16.0302142736        9.7300380178        8.0581207151  MEMB      26              0.0000000000
      2782        26  SAPS      C37           -15.9812860535        7.4485090784        8.1513755154  MEMB      26              0.0000000000
      2783        26  SAPS      H7X           -15.8573618244        6.6369063886        8.8300813436  MEMB      26              0.0000000000
      2784        26  SAPS      H7Y           -14.9634016154        7.1524109623        8.0839993634  MEMB      26              0.0000000000
      2785        26  SAPS      C38           -16.5104176502        7.4766595386        6.8072381948  MEMB      26              0.0000000000
      2786        26  SAPS      H8X           -17.5656201729        7.6823206399        7.1200968188  MEMB      26              0.0000000000
      2787        26  SAPS      H8Y           -16.3181583661        6.4749682033        6.3420983607  MEMB      26              0.0000000000
      2788        26  SAPS      C39           -16.2427006062        8.6899498734        5.8836844065  MEMB      26              0.0000000000
      2789        26  SAPS      H9X           -15.2424151284        8.4134272724        5.4801573807  MEMB      26              0.0000000000
      2790        26  SAPS      H9Y           -16.3040384358        9.6979653725        6.2770067759  MEMB      26              0.0000000000
      2791        26  SAPS      C310          -17.4199262876        8.8356074992        4.8957143680  MEMB      26              0.0000000000
      2792        26  SAPS      H10X          -18.4048899621        8.6740223167        5.3562671985  MEMB      26              0.0000000000
      2793        26  SAPS      H10Y          -16.9634926775        7.8803072539        4.6954926882  MEMB      26              0.0000000000
      2794        26  SAPS      C311          -17.5808022771        9.6097462070        3.5309106182  MEMB      26              0.0000000000
      2795        26  SAPS      H11X          -16.7243648284        9.8465812926        2.9070037081  MEMB      26              0.0000000000
      2796        26  SAPS      H11Y          -17.5429839560       10.6513002041        3.7647559337  MEMB      26              0.0000000000
      2797        26  SAPS      C312          -18.3630923420        8.9830641598        2.3350192805  MEMB      26              0.0000000000
      2798        26  SAPS      H12X          -19.3929832850        8.7892232329        2.6834233859  MEMB      26              0.0000000000
      2799        26  SAPS      H12Y          -17.9486623378        8.0176617258        1.8866053153  MEMB      26              0.0000000000
      2800        26  SAPS      C313          -18.4224490502        9.8611969529        1.1426508501  MEMB      26              0.0000000000
      2801        26  SAPS      H13X          -19.0502509150        9.3324132852        0.3866121140  MEMB      26              0.0000000000
      2802        26  SAPS      H13Y          -17.3752915998        9.9462462504        0.7799993440  MEMB      26              0.0000000000
      2803        26  SAPS      C314          -18.9867841585       11.2153729304        1.5220589139  MEMB      26              0.0000000000
      2804        26  SAPS      H14X          -18.3025556510       11.7481556379        2.2130652920  MEMB      26              0.0000000000
      2805        26  SAPS      H14Y          -19.9769814599       11.0790898479        2.0205254682  MEMB      26              0.0000000000
      2806        26  SAPS      C315          -19.1109778272       12.0499572035        0.2731259037  MEMB      26              0.0000000000
      2807        26  SAPS      H15X          -19.6048690732       13.0189813303        0.4657320455  MEMB      26              0.0000000000
      2808        26  SAPS      H15Y          -19.8673443142       11.4767660328       -0.3016541508  MEMB      26              0.0000000000
      2809        26  SAPS      C316          -17.7094532145       12.3441898966       -0.3578453759  MEMB      26              0.0000000000
      2810        26  SAPS      H16X          -16.9642166866       11.5551368918       -0.1693615805  MEMB      26              0.0000000000
      2811        26  SAPS      H16Y          -17.3895019314       13.3439721081       -0.0200110767  MEMB      26              0.0000000000
      2812        26  SAPS      C317          -17.6327479116       12.6919688989       -1.8180498191  MEMB      26              0.0000000000
      2813        26  SAPS      H17X          -18.2210265751       13.5600789528       -2.1046193427  MEMB      26              0.0000000000
      2814        26  SAPS      H17Y          -17.9646253684       11.8473288600       -2.2910257571  MEMB      26              0.0000000000
      2815        26  SAPS      C318          -16.5911186365       12.5867869213       -2.7840032926  MEMB      26              0.0000000000
      2816        26  SAPS      H18X          -16.1114271659       13.5466758893       -2.5721261906  MEMB      26              0.0000000000
      2817        26  SAPS      H18Y          -16.7835473705       12.5188576441       -3.8565894001  MEMB      26              0.0000000000
      2818        26  SAPS      H18Z          -16.0377541436       11.6459659288       -2.7186435356  MEMB      26              0.0000000000
      2819        27  CHL1      C3             13.7130185294      -17.2648279288       17.3087336382  MEMB      27              0.0000000000
      2820        27  CHL1      H3             13.2959137863      -16.2740037906       17.1392580122  MEMB      27              0.0000000000
      2821        27  CHL1      O3             13.6799587325      -17.4826779063       18.7112260847  MEMB      27              0.0000000000
      2822        27  CHL1      H3'            13.9248248018      -16.6539076473       19.1409787542  MEMB      27              0.0000000000
      2823        27  CHL1      C4             12.6992142250      -18.1423409867       16.5605229690  MEMB      27              0.0000000000
      2824        27  CHL1      H4A            12.7729656921      -19.1795872919       16.9354863235  MEMB      27              0.0000000000
      2825        27  CHL1      H4B            11.7207767618      -17.7303859316       16.8996047068  MEMB      27              0.0000000000
      2826        27  CHL1      C5             12.8208409284      -18.1633995372       15.0455563801  MEMB      27              0.0000000000
      2827        27  CHL1      C6             11.7520120691      -18.1320737539       14.2471244950  MEMB      27              0.0000000000
      2828        27  CHL1      H6             10.7766682317      -18.1016830070       14.7368869184  MEMB      27              0.0000000000
      2829        27  CHL1      C7             11.7879507354      -18.2553198056       12.7428416206  MEMB      27              0.0000000000
      2830        27  CHL1      H7A            11.0385224032      -18.9863844745       12.3579569479  MEMB      27              0.0000000000
      2831        27  CHL1      H7B            11.5370776234      -17.2772124250       12.2785508929  MEMB      27              0.0000000000
      2832        27  CHL1      C8             13.1745315406      -18.6797789314       12.1983496383  MEMB      27              0.0000000000
      2833        27  CHL1      H8             13.2627222814      -19.7807304013       12.3796117699  MEMB      27              0.0000000000
      2834        27  CHL1      C14            13.2324057400      -18.3115146172       10.7012359281  MEMB      27              0.0000000000
      2835        27  CHL1      H14            13.1557602939      -17.2123928688       10.6298777374  MEMB      27              0.0000000000
      2836        27  CHL1      C15            12.1725773858      -18.8980334576        9.7255132583  MEMB      27              0.0000000000
      2837        27  CHL1      H15A           11.8919661954      -19.9573292393        9.9327907415  MEMB      27              0.0000000000
      2838        27  CHL1      H15B           11.2737940565      -18.2684836872        9.7634123892  MEMB      27              0.0000000000
      2839        27  CHL1      C16            12.8359892665      -18.8423851521        8.3367528737  MEMB      27              0.0000000000
      2840        27  CHL1      H16A           12.8151974053      -19.8555567076        7.8689854112  MEMB      27              0.0000000000
      2841        27  CHL1      H16B           12.3405565250      -18.1256626561        7.6602182951  MEMB      27              0.0000000000
      2842        27  CHL1      C17            14.3000425997      -18.3715479171        8.5517323361  MEMB      27              0.0000000000
      2843        27  CHL1      H17            14.3474648076      -17.2704076195        8.4425640723  MEMB      27              0.0000000000
      2844        27  CHL1      C13            14.5273993051      -18.5836478538       10.0326321745  MEMB      27              0.0000000000
      2845        27  CHL1      C18            14.4925052707      -20.0110204055       10.1769042481  MEMB      27              0.0000000000
      2846        27  CHL1      H18A           15.1057443074      -20.4546351073        9.4939639382  MEMB      27              0.0000000000
      2847        27  CHL1      H18B           15.0529024923      -19.9764308063       11.0837553372  MEMB      27              0.0000000000
      2848        27  CHL1      H18C           13.6587521905      -20.7092542199       10.3383872704  MEMB      27              0.0000000000
      2849        27  CHL1      C12            15.7342297023      -17.9252685483       10.7886874758  MEMB      27              0.0000000000
      2850        27  CHL1      H12A           16.7221851808      -18.2631820914       10.4091111546  MEMB      27              0.0000000000
      2851        27  CHL1      H12B           15.6430261828      -16.8422845903       10.6101413179  MEMB      27              0.0000000000
      2852        27  CHL1      C11            15.7239413659      -18.1778251025       12.3275060805  MEMB      27              0.0000000000
      2853        27  CHL1      H11A           16.0728518768      -19.2076491011       12.5418636578  MEMB      27              0.0000000000
      2854        27  CHL1      H11B           16.4748543005      -17.5236538933       12.7995872495  MEMB      27              0.0000000000
      2855        27  CHL1      C9             14.3157244902      -17.9675903441       12.9603082109  MEMB      27              0.0000000000
      2856        27  CHL1      H9             14.1256863142      -16.8830168407       12.8193615954  MEMB      27              0.0000000000
      2857        27  CHL1      C10            14.2418182659      -18.1836172608       14.4970051264  MEMB      27              0.0000000000
      2858        27  CHL1      C19            14.8036282456      -19.4785704297       14.8358488987  MEMB      27              0.0000000000
      2859        27  CHL1      H19A           15.9158408608      -19.5413732070       14.7814647897  MEMB      27              0.0000000000
      2860        27  CHL1      H19B           14.4809990582      -19.8850488847       15.8230737600  MEMB      27              0.0000000000
      2861        27  CHL1      H19C           14.4167506948      -20.1058530769       14.0608381788  MEMB      27              0.0000000000
      2862        27  CHL1      C1             15.1774279502      -17.2822628746       15.2513353907  MEMB      27              0.0000000000
      2863        27  CHL1      H1A            16.2224061091      -17.4157095424       14.8801336536  MEMB      27              0.0000000000
      2864        27  CHL1      H1B            14.7474448768      -16.3376072377       14.9270168757  MEMB      27              0.0000000000
      2865        27  CHL1      C2             15.1359391821      -17.4354155950       16.7805062679  MEMB      27              0.0000000000
      2866        27  CHL1      H2A            15.8068805638      -16.7132522362       17.2820492795  MEMB      27              0.0000000000
      2867        27  CHL1      H2B            15.5148058501      -18.4358360417       17.0749673204  MEMB      27              0.0000000000
      2868        27  CHL1      C20            15.1835788655      -18.9756234789        7.4542928178  MEMB      27              0.0000000000
      2869        27  CHL1      H20            14.9918630549      -20.0742293560        7.3434850132  MEMB      27              0.0000000000
      2870        27  CHL1      C21            16.6863476352      -18.8449880957        7.7402901819  MEMB      27              0.0000000000
      2871        27  CHL1      H21A           17.0244201394      -17.8022786587        7.8456894129  MEMB      27              0.0000000000
      2872        27  CHL1      H21B           17.2803639626      -19.3673592262        6.9533752867  MEMB      27              0.0000000000
      2873        27  CHL1      H21C           16.8927995349      -19.3581813983        8.6963094011  MEMB      27              0.0000000000
      2874        27  CHL1      C22            14.7605325836      -18.2992781330        6.1483651740  MEMB      27              0.0000000000
      2875        27  CHL1      H22A           13.7791545815      -18.7174525865        5.8287626563  MEMB      27              0.0000000000
      2876        27  CHL1      H22B           14.5914787518      -17.2124621743        6.3272061152  MEMB      27              0.0000000000
      2877        27  CHL1      C23            15.7853349416      -18.4315286651        5.0403546019  MEMB      27              0.0000000000
      2878        27  CHL1      H23A           16.6699851600      -17.7934731633        5.2284577403  MEMB      27              0.0000000000
      2879        27  CHL1      H23B           16.0470349567      -19.4964734543        4.8737432194  MEMB      27              0.0000000000
      2880        27  CHL1      C24            15.2242687917      -17.8668763957        3.8152918453  MEMB      27              0.0000000000
      2881        27  CHL1      H24A           14.8313032628      -16.8375353283        4.0626285499  MEMB      27              0.0000000000
      2882        27  CHL1      H24B           15.9493706878      -17.7149835737        2.9803464644  MEMB      27              0.0000000000
      2883        27  CHL1      C25            14.1064509810      -18.7203861038        3.3168869079  MEMB      27              0.0000000000
      2884        27  CHL1      H25            13.3435804737      -19.2042637149        3.9684593051  MEMB      27              0.0000000000
      2885        27  CHL1      C26            13.2039681690      -17.4733012434        2.9354960638  MEMB      27              0.0000000000
      2886        27  CHL1      H26A           14.0944749624      -17.0987950541        2.3080775175  MEMB      27              0.0000000000
      2887        27  CHL1      H26B           12.5168088789      -18.2086486139        2.5070858546  MEMB      27              0.0000000000
      2888        27  CHL1      H26C           13.0044513168      -16.6343940343        2.2393867262  MEMB      27              0.0000000000
      2889        27  CHL1      C27            14.7128016621      -19.9715958887        2.5206112842  MEMB      27              0.0000000000
      2890        27  CHL1      H27A           15.6831425266      -19.6960739695        2.0507411575  MEMB      27              0.0000000000
      2891        27  CHL1      H27B           14.9572269513      -20.8172731575        3.2029373240  MEMB      27              0.0000000000
      2892        27  CHL1      H27C           14.1034162920      -20.4245384546        1.7114557944  MEMB      27              0.0000000000
      2893        28  SAPE      N              20.5108576303       -1.7924260735       22.5003145551  MEMB      28              0.0000000000
      2894        28  SAPE      HN1            21.4881124358       -2.1135644649       22.6807652132  MEMB      28              0.0000000000
      2895        28  SAPE      HN2            20.5142122068       -0.7515343754       22.4393723098  MEMB      28              0.0000000000
      2896        28  SAPE      HN3            19.8646772649       -2.1265228143       23.2472295792  MEMB      28              0.0000000000
      2897        28  SAPE      C12            20.0560705195       -2.2747622872       21.1470390848  MEMB      28              0.0000000000
      2898        28  SAPE      H12A           20.2335460144       -1.4587731335       20.4220732492  MEMB      28              0.0000000000
      2899        28  SAPE      H12B           18.9618371612       -2.4439740345       21.1868153720  MEMB      28              0.0000000000
      2900        28  SAPE      C11            20.7662057989       -3.5784379428       20.7526468894  MEMB      28              0.0000000000
      2901        28  SAPE      H11A           20.2632016648       -3.9703251303       19.8309302329  MEMB      28              0.0000000000
      2902        28  SAPE      H11B           20.5970633903       -4.3348024911       21.5476966269  MEMB      28              0.0000000000
      2903        28  SAPE      P              22.7879480618       -3.4905490164       19.1030449116  MEMB      28              0.0000000000
      2904        28  SAPE      O13            24.2340178111       -3.1953730203       19.0688555304  MEMB      28              0.0000000000
      2905        28  SAPE      O14            22.2369391461       -4.6793387823       18.4275104299  MEMB      28              0.0000000000
      2906        28  SAPE      O12            22.1795083018       -3.3925018837       20.5835878957  MEMB      28              0.0000000000
      2907        28  SAPE      O11            22.0634500060       -2.2750229210       18.5014330324  MEMB      28              0.0000000000
      2908        28  SAPE      C1             22.5251457586       -0.9819989258       18.8135050428  MEMB      28              0.0000000000
      2909        28  SAPE      HA             21.9705348101       -0.5398695763       19.6773327036  MEMB      28              0.0000000000
      2910        28  SAPE      HB             23.6285775735       -0.8345645493       18.9459193130  MEMB      28              0.0000000000
      2911        28  SAPE      C2             22.2533099331       -0.1601138955       17.6148590417  MEMB      28              0.0000000000
      2912        28  SAPE      HS             22.0270593770        0.8207112227       18.1226544397  MEMB      28              0.0000000000
      2913        28  SAPE      O21            21.1968293172       -0.5118025336       16.7764447409  MEMB      28              0.0000000000
      2914        28  SAPE      C21            20.0783429786       -0.5765715998       17.2743499035  MEMB      28              0.0000000000
      2915        28  SAPE      O22            19.6965583420       -0.3063678366       18.4095977327  MEMB      28              0.0000000000
      2916        28  SAPE      C22            19.2966521508       -1.2926793833       16.1872536328  MEMB      28              0.0000000000
      2917        28  SAPE      H2R            19.5450961981       -2.2008529896       16.7022904074  MEMB      28              0.0000000000
      2918        28  SAPE      H2S            18.1964691652       -1.1775037235       16.1521758481  MEMB      28              0.0000000000
      2919        28  SAPE      C3             23.3568535411       -0.0893733364       16.5361017559  MEMB      28              0.0000000000
      2920        28  SAPE      HX             24.3262556370        0.2198816994       16.8824301736  MEMB      28              0.0000000000
      2921        28  SAPE      HY             23.0524491039        0.5658272724       15.6870221073  MEMB      28              0.0000000000
      2922        28  SAPE      O31            23.7399288488       -1.3045763997       16.0707798406  MEMB      28              0.0000000000
      2923        28  SAPE      C31            23.1688681619       -1.6817502144       14.9936916992  MEMB      28              0.0000000000
      2924        28  SAPE      O32            22.5040162302       -1.0230646216       14.2079705732  MEMB      28              0.0000000000
      2925        28  SAPE      C32            23.8102170577       -3.0297109281       14.8650817217  MEMB      28              0.0000000000
      2926        28  SAPE      H2X            23.9177926450       -3.4517537017       15.8947084288  MEMB      28              0.0000000000
      2927        28  SAPE      H2Y            24.8242242432       -2.8216880303       14.4657449750  MEMB      28              0.0000000000
      2928        28  SAPE      C23            19.6496196549       -1.3889279902       14.7036295918  MEMB      28              0.0000000000
      2929        28  SAPE      H3R            20.2924876754       -2.2421898215       14.4735393119  MEMB      28              0.0000000000
      2930        28  SAPE      H3S            20.3163347154       -0.5062971213       14.5819310670  MEMB      28              0.0000000000
      2931        28  SAPE      C24            18.4177637280       -1.4014048567       13.7638396602  MEMB      28              0.0000000000
      2932        28  SAPE      H4R            18.0166209297       -0.4576515280       13.5217152268  MEMB      28              0.0000000000
      2933        28  SAPE      H4S            17.3775803435       -1.7552614745       13.8995792670  MEMB      28              0.0000000000
      2934        28  SAPE      C25            19.0641333453       -1.2877711025       12.5195812718  MEMB      28              0.0000000000
      2935        28  SAPE      H5R            19.3100995249       -0.2930266635       12.2787578139  MEMB      28              0.0000000000
      2936        28  SAPE      C26            19.2188260207       -2.2170397883       11.6646589907  MEMB      28              0.0000000000
      2937        28  SAPE      H6R            19.5307123452       -2.0235687042       10.6402015306  MEMB      28              0.0000000000
      2938        28  SAPE      C27            18.6909809291       -3.4951706171       11.9718583888  MEMB      28              0.0000000000
      2939        28  SAPE      H7R            18.1529926948       -3.6876140852       11.1070107329  MEMB      28              0.0000000000
      2940        28  SAPE      H7S            17.9716906930       -3.4871862750       12.7939214098  MEMB      28              0.0000000000
      2941        28  SAPE      C28            19.8818671819       -4.2960445684       12.1156142341  MEMB      28              0.0000000000
      2942        28  SAPE      H8R            20.4322588560       -4.0645025647       13.0221006156  MEMB      28              0.0000000000
      2943        28  SAPE      C29            20.3353639062       -5.1415192960       11.2147083505  MEMB      28              0.0000000000
      2944        28  SAPE      H9R            21.2671037052       -5.6304936172       11.4503656413  MEMB      28              0.0000000000
      2945        28  SAPE      C210           19.7155708262       -5.4364032515        9.8986823683  MEMB      28              0.0000000000
      2946        28  SAPE      H10R           19.8981028377       -4.6467070147        9.1401554726  MEMB      28              0.0000000000
      2947        28  SAPE      H10S           18.6514669289       -5.7589456474        9.9991050336  MEMB      28              0.0000000000
      2948        28  SAPE      C211           20.1777374767       -6.6530900473        9.3730009473  MEMB      28              0.0000000000
      2949        28  SAPE      H11R           19.8069366593       -7.4537919353        9.9604878567  MEMB      28              0.0000000000
      2950        28  SAPE      C212           20.8742235445       -6.8829246546        8.3153514583  MEMB      28              0.0000000000
      2951        28  SAPE      H12R           21.1143828370       -7.8960594808        8.3267282179  MEMB      28              0.0000000000
      2952        28  SAPE      C213           21.4642535330       -6.0311340225        7.2560013377  MEMB      28              0.0000000000
      2953        28  SAPE      H13R           22.4120549550       -6.5233624500        6.9516307170  MEMB      28              0.0000000000
      2954        28  SAPE      H13S           21.7032364886       -5.0659668257        7.7362880928  MEMB      28              0.0000000000
      2955        28  SAPE      C214           20.5048376436       -5.8322012115        6.1090406499  MEMB      28              0.0000000000
      2956        28  SAPE      H14R           19.4753353303       -5.6188874231        6.4183514428  MEMB      28              0.0000000000
      2957        28  SAPE      C215           20.7014624046       -5.9727960646        4.7893236870  MEMB      28              0.0000000000
      2958        28  SAPE      H15R           19.8018921002       -5.8888277878        4.1592271734  MEMB      28              0.0000000000
      2959        28  SAPE      C216           21.9643143032       -6.3820488187        4.0690043657  MEMB      28              0.0000000000
      2960        28  SAPE      H16R           21.6863492080       -6.9834105579        3.1713444924  MEMB      28              0.0000000000
      2961        28  SAPE      H16S           22.5782059189       -7.0476661563        4.7168623943  MEMB      28              0.0000000000
      2962        28  SAPE      C217           22.9258646320       -5.2596042108        3.6367366919  MEMB      28              0.0000000000
      2963        28  SAPE      H17R           23.8240359794       -5.7326788767        3.1731926606  MEMB      28              0.0000000000
      2964        28  SAPE      H17S           23.2681269301       -4.7040174966        4.5381113839  MEMB      28              0.0000000000
      2965        28  SAPE      C218           22.3391980335       -4.2614686767        2.6394811823  MEMB      28              0.0000000000
      2966        28  SAPE      H18R           21.6048284804       -3.6195623454        3.1737199491  MEMB      28              0.0000000000
      2967        28  SAPE      H18S           21.8146252113       -4.7697730292        1.7997009245  MEMB      28              0.0000000000
      2968        28  SAPE      C219           23.4106266614       -3.3592515613        2.0402121752  MEMB      28              0.0000000000
      2969        28  SAPE      H19R           24.2348622420       -3.9830056454        1.6198738102  MEMB      28              0.0000000000
      2970        28  SAPE      H19S           23.8326583421       -2.7405531208        2.8665935138  MEMB      28              0.0000000000
      2971        28  SAPE      C220           22.8190276982       -2.4584227414        0.9604766616  MEMB      28              0.0000000000
      2972        28  SAPE      H20R           22.3377948511       -3.0397755519        0.1466724512  MEMB      28              0.0000000000
      2973        28  SAPE      H20S           23.6124755035       -1.8651673220        0.4928232923  MEMB      28              0.0000000000
      2974        28  SAPE      H20T           22.0692068830       -1.7696292045        1.4030466560  MEMB      28              0.0000000000
      2975        28  SAPE      C33            22.9889092617       -3.9835818446       14.0141619800  MEMB      28              0.0000000000
      2976        28  SAPE      H3X            22.8277537558       -3.4921125649       13.0298932918  MEMB      28              0.0000000000
      2977        28  SAPE      H3Y            21.9822016953       -4.1571921629       14.4575533821  MEMB      28              0.0000000000
      2978        28  SAPE      C34            23.6502632684       -5.3600410697       13.8435456667  MEMB      28              0.0000000000
      2979        28  SAPE      H4X            22.9776482537       -5.9429348303       13.1817010810  MEMB      28              0.0000000000
      2980        28  SAPE      H4Y            23.7351522912       -5.8834906560       14.8210795050  MEMB      28              0.0000000000
      2981        28  SAPE      C35            25.0274097844       -5.3471311088       13.1885044177  MEMB      28              0.0000000000
      2982        28  SAPE      H5X            25.3433965461       -6.3915013964       12.9854136704  MEMB      28              0.0000000000
      2983        28  SAPE      H5Y            25.7396026349       -4.9069090153       13.9330818461  MEMB      28              0.0000000000
      2984        28  SAPE      C36            24.9867474330       -4.5240466198       11.8961542980  MEMB      28              0.0000000000
      2985        28  SAPE      H6X            25.9403064411       -4.4756192486       11.3542700192  MEMB      28              0.0000000000
      2986        28  SAPE      H6Y            24.7345466047       -3.4962888933       12.2320333265  MEMB      28              0.0000000000
      2987        28  SAPE      C37            24.2162057864       -5.0601906787       10.6880993866  MEMB      28              0.0000000000
      2988        28  SAPE      H7X            23.2388447988       -5.4378382932       11.0161922510  MEMB      28              0.0000000000
      2989        28  SAPE      H7Y            24.8324266216       -5.9025173097       10.3033600061  MEMB      28              0.0000000000
      2990        28  SAPE      C38            24.0039251798       -4.0625070665        9.5324206777  MEMB      28              0.0000000000
      2991        28  SAPE      H8X            23.4262979522       -4.5531811356        8.7235581918  MEMB      28              0.0000000000
      2992        28  SAPE      H8Y            24.9519438967       -3.7129462183        9.0659339317  MEMB      28              0.0000000000
      2993        28  SAPE      C39            23.1722029428       -2.8779598268        9.9910388221  MEMB      28              0.0000000000
      2994        28  SAPE      H9X            23.5978090095       -2.4061930191       10.9034277011  MEMB      28              0.0000000000
      2995        28  SAPE      H9Y            22.1459285128       -3.2277354395       10.2241000200  MEMB      28              0.0000000000
      2996        28  SAPE      C310           23.1174261713       -1.7874287009        8.9678610687  MEMB      28              0.0000000000
      2997        28  SAPE      H10X           22.9173943301       -2.1492082745        7.9376891435  MEMB      28              0.0000000000
      2998        28  SAPE      H10Y           24.1099421945       -1.2635184410        8.9758248839  MEMB      28              0.0000000000
      2999        28  SAPE      C311           22.0231487982       -0.8297904088        9.3273435569  MEMB      28              0.0000000000
      3000        28  SAPE      H11X           22.0784586097       -0.5030997775       10.4039929623  MEMB      28              0.0000000000
      3001        28  SAPE      H11Y           21.0049526021       -1.1980310107        9.1461484402  MEMB      28              0.0000000000
      3002        28  SAPE      C312           22.3067789227        0.3486741636        8.4835666741  MEMB      28              0.0000000000
      3003        28  SAPE      H12X           23.3063042036        0.5825051784        8.8659440927  MEMB      28              0.0000000000
      3004        28  SAPE      H12Y           21.6347833080        1.1522791558        8.7662536613  MEMB      28              0.0000000000
      3005        28  SAPE      C313           22.7782904215        0.3881417771        7.0671794589  MEMB      28              0.0000000000
      3006        28  SAPE      H13X           23.7385746246       -0.1546671423        7.0118820466  MEMB      28              0.0000000000
      3007        28  SAPE      H13Y           22.9559929151        1.4254619567        6.6789619191  MEMB      28              0.0000000000
      3008        28  SAPE      C314           21.7925785103       -0.2664352707        6.2313797408  MEMB      28              0.0000000000
      3009        28  SAPE      H14X           20.8832003090        0.2900433904        6.2861957505  MEMB      28              0.0000000000
      3010        28  SAPE      H14Y           21.5504910365       -1.2443868517        6.6749314388  MEMB      28              0.0000000000
      3011        28  SAPE      C315           22.2366633468       -0.2134100851        4.8145819240  MEMB      28              0.0000000000
      3012        28  SAPE      H15X           22.0763847199       -1.2320534344        4.4039371502  MEMB      28              0.0000000000
      3013        28  SAPE      H15Y           23.2955279807        0.1172339412        4.7399717555  MEMB      28              0.0000000000
      3014        28  SAPE      C316           21.6514391673        0.9392546037        4.0354923827  MEMB      28              0.0000000000
      3015        28  SAPE      H16X           21.9980359744        0.8261777437        2.9722293949  MEMB      28              0.0000000000
      3016        28  SAPE      H16Y           21.6013589347        1.9504766428        4.4680564019  MEMB      28              0.0000000000
      3017        28  SAPE      C317           20.2571869916        0.9873903962        3.8172120084  MEMB      28              0.0000000000
      3018        28  SAPE      H17X           19.4475969637        0.9088263731        4.3258065098  MEMB      28              0.0000000000
      3019        28  SAPE      H17Y           20.2549445210       -0.0763771375        3.3919577209  MEMB      28              0.0000000000
      3020        28  SAPE      C318           19.7444229394        2.4515050348        3.3680243514  MEMB      28              0.0000000000
      3021        28  SAPE      H18X           18.7295624971        2.6744197717        3.7472320248  MEMB      28              0.0000000000
      3022        28  SAPE      H18Y           18.8288711036        2.5603683896        2.7493098867  MEMB      28              0.0000000000
      3023        28  SAPE      H18Z           20.1756587280        2.7000514802        2.3931021976  MEMB      28              0.0000000000
      3024        29  SAPC      N             -20.8015497025        4.8924196375       22.0302268768  MEMB      29              0.0000000000
      3025        29  SAPC      C12           -22.3099893798        4.8475671348       21.7530199102  MEMB      29              0.0000000000
      3026        29  SAPC      H12A          -22.7968746077        5.3676287192       22.5670187392  MEMB      29              0.0000000000
      3027        29  SAPC      H12B          -22.6634713166        3.8153891913       21.7226949168  MEMB      29              0.0000000000
      3028        29  SAPC      C13           -20.0201270071        4.1817663726       20.9532268009  MEMB      29              0.0000000000
      3029        29  SAPC      H13A          -18.9536750231        4.2653215262       21.0900832153  MEMB      29              0.0000000000
      3030        29  SAPC      H13B          -20.2747261704        3.1298023117       20.8838095626  MEMB      29              0.0000000000
      3031        29  SAPC      H13C          -20.2690063392        4.5671017910       19.9582330707  MEMB      29              0.0000000000
      3032        29  SAPC      C14           -20.3721298514        6.3243059999       22.0114793510  MEMB      29              0.0000000000
      3033        29  SAPC      H14A          -20.8385934063        6.8904566424       22.8053666728  MEMB      29              0.0000000000
      3034        29  SAPC      H14B          -19.3054057302        6.3828767339       22.1200359338  MEMB      29              0.0000000000
      3035        29  SAPC      H14C          -20.6610300369        6.7719384097       21.0570879447  MEMB      29              0.0000000000
      3036        29  SAPC      C15           -20.4858289910        4.3143812160       23.3659135545  MEMB      29              0.0000000000
      3037        29  SAPC      H15A          -20.8523232428        3.2889850492       23.4791908098  MEMB      29              0.0000000000
      3038        29  SAPC      H15B          -19.4208319686        4.3087744209       23.5226563522  MEMB      29              0.0000000000
      3039        29  SAPC      H15C          -20.9344791445        4.8455639731       24.1874000054  MEMB      29              0.0000000000
      3040        29  SAPC      C11           -22.8926185239        5.4983596810       20.4662130987  MEMB      29              0.0000000000
      3041        29  SAPC      H11A          -22.5455078239        6.5442025611       20.2985417033  MEMB      29              0.0000000000
      3042        29  SAPC      H11B          -23.9948133325        5.5657199819       20.6347250132  MEMB      29              0.0000000000
      3043        29  SAPC      P             -22.5981199842        5.1392892506       17.8516817454  MEMB      29              0.0000000000
      3044        29  SAPC      O13           -21.5455159181        6.1454252508       17.7405178073  MEMB      29              0.0000000000
      3045        29  SAPC      O14           -22.5180804509        3.9721116606       16.9508029226  MEMB      29              0.0000000000
      3046        29  SAPC      O12           -22.6311204507        4.6498723930       19.3570499773  MEMB      29              0.0000000000
      3047        29  SAPC      O11           -24.0015341722        5.7872024938       17.6971690391  MEMB      29              0.0000000000
      3048        29  SAPC      C1            -25.1257505414        5.0465965255       18.1023887844  MEMB      29              0.0000000000
      3049        29  SAPC      HA            -25.0079986929        3.9280838080       18.0884513379  MEMB      29              0.0000000000
      3050        29  SAPC      HB            -25.4684697525        5.3529248756       19.1171605001  MEMB      29              0.0000000000
      3051        29  SAPC      C2            -26.2051352434        5.3442675947       17.1165402981  MEMB      29              0.0000000000
      3052        29  SAPC      HS            -26.8995552328        4.5396849738       17.4173700488  MEMB      29              0.0000000000
      3053        29  SAPC      O21           -25.8083856417        5.1095979331       15.7553148885  MEMB      29              0.0000000000
      3054        29  SAPC      C21           -25.6840038983        3.9302832603       15.2378221068  MEMB      29              0.0000000000
      3055        29  SAPC      O22           -26.0247593995        2.8885549434       15.7829747863  MEMB      29              0.0000000000
      3056        29  SAPC      C22           -25.7978326136        4.1238189168       13.6784373598  MEMB      29              0.0000000000
      3057        29  SAPC      H2R           -26.7900004119        4.1737734184       13.1820752133  MEMB      29              0.0000000000
      3058        29  SAPC      H2S           -25.3571894431        5.0474419383       13.3334009944  MEMB      29              0.0000000000
      3059        29  SAPC      C3            -26.7264102315        6.8687760329       17.2992516114  MEMB      29              0.0000000000
      3060        29  SAPC      HX            -26.9830701629        7.0409014160       18.3653178996  MEMB      29              0.0000000000
      3061        29  SAPC      HY            -27.7040137670        7.1308207731       16.8790209972  MEMB      29              0.0000000000
      3062        29  SAPC      O31           -25.8786889496        7.9462405387       16.8934154066  MEMB      29              0.0000000000
      3063        29  SAPC      C31           -25.4866867482        8.0700533940       15.6601369767  MEMB      29              0.0000000000
      3064        29  SAPC      O32           -25.5182032815        7.1945966431       14.8207601553  MEMB      29              0.0000000000
      3065        29  SAPC      C32           -25.0035182611        9.4065615169       15.1974477985  MEMB      29              0.0000000000
      3066        29  SAPC      H2X           -24.4332293589        9.8206024701       16.0468217929  MEMB      29              0.0000000000
      3067        29  SAPC      H2Y           -25.7688472302       10.1257563018       14.8254646641  MEMB      29              0.0000000000
      3068        29  SAPC      C23           -25.4481053324        2.7999255383       13.0804439876  MEMB      29              0.0000000000
      3069        29  SAPC      H3R           -26.3410545593        2.2392276589       13.3819493609  MEMB      29              0.0000000000
      3070        29  SAPC      H3S           -24.6079964541        2.3506628310       13.6372651032  MEMB      29              0.0000000000
      3071        29  SAPC      C24           -25.1460304913        2.8358508045       11.5853412196  MEMB      29              0.0000000000
      3072        29  SAPC      H4R           -24.7557843587        1.8547751542       11.2345094081  MEMB      29              0.0000000000
      3073        29  SAPC      H4S           -24.3063457199        3.5628685494       11.5605757684  MEMB      29              0.0000000000
      3074        29  SAPC      C25           -26.1808268588        3.4316496898       10.6724255862  MEMB      29              0.0000000000
      3075        29  SAPC      H5R           -26.1173953486        4.5123759423       10.6538957161  MEMB      29              0.0000000000
      3076        29  SAPC      C26           -26.8791996057        2.9436609944        9.6322563986  MEMB      29              0.0000000000
      3077        29  SAPC      H6R           -27.3644159555        3.6324882218        8.9913163514  MEMB      29              0.0000000000
      3078        29  SAPC      C27           -26.9644627547        1.6650218299        8.9265458179  MEMB      29              0.0000000000
      3079        29  SAPC      H7R           -27.9439025349        1.0718895263        8.9795477910  MEMB      29              0.0000000000
      3080        29  SAPC      H7S           -26.5995550188        1.3135206279        9.7319822986  MEMB      29              0.0000000000
      3081        29  SAPC      C28           -25.6963696157        1.2155477512        8.2323992186  MEMB      29              0.0000000000
      3082        29  SAPC      H8R           -25.1831238003        0.2633900142        8.4284396546  MEMB      29              0.0000000000
      3083        29  SAPC      C29           -25.5214041083        1.4890249470        7.0241789109  MEMB      29              0.0000000000
      3084        29  SAPC      H9R           -25.0255738476        0.6988060146        6.4431707910  MEMB      29              0.0000000000
      3085        29  SAPC      C210          -26.6385538630        2.2085422042        6.4610082205  MEMB      29              0.0000000000
      3086        29  SAPC      H10R          -27.4784267010        2.7480034556        6.9686624458  MEMB      29              0.0000000000
      3087        29  SAPC      H10S          -27.2846616138        1.3388900627        6.4505823685  MEMB      29              0.0000000000
      3088        29  SAPC      C211          -25.9960230606        2.6890448531        5.1841946848  MEMB      29              0.0000000000
      3089        29  SAPC      H11R          -25.4256974647        1.9394169207        4.6255023232  MEMB      29              0.0000000000
      3090        29  SAPC      C212          -26.1101992674        3.9006905503        4.6320353937  MEMB      29              0.0000000000
      3091        29  SAPC      H12R          -26.0567270668        3.9846036465        3.5661959749  MEMB      29              0.0000000000
      3092        29  SAPC      C213          -26.8645711209        5.0098134283        5.1774492599  MEMB      29              0.0000000000
      3093        29  SAPC      H13R          -27.1459739670        4.4731875155        6.0408866099  MEMB      29              0.0000000000
      3094        29  SAPC      H13S          -27.7913684264        5.1475017077        4.7268461006  MEMB      29              0.0000000000
      3095        29  SAPC      C214          -27.0309960042        6.4570182242        5.0821576349  MEMB      29              0.0000000000
      3096        29  SAPC      H14R          -26.9453056080        6.7349131499        6.1387396775  MEMB      29              0.0000000000
      3097        29  SAPC      C215          -27.5715566673        7.2311498350        4.0641492649  MEMB      29              0.0000000000
      3098        29  SAPC      H15R          -27.4899591272        8.2984237616        4.2349235756  MEMB      29              0.0000000000
      3099        29  SAPC      C216          -28.1605438974        6.7570111042        2.6998571783  MEMB      29              0.0000000000
      3100        29  SAPC      H16R          -28.2680795045        5.6383028725        2.5783776948  MEMB      29              0.0000000000
      3101        29  SAPC      H16S          -27.5542815177        7.0353750919        1.8230662304  MEMB      29              0.0000000000
      3102        29  SAPC      C217          -29.5972027981        7.2133513264        2.3689203196  MEMB      29              0.0000000000
      3103        29  SAPC      H17R          -29.9560246182        8.1364998971        2.7050686351  MEMB      29              0.0000000000
      3104        29  SAPC      H17S          -30.2078082760        7.2734582978        3.2804028168  MEMB      29              0.0000000000
      3105        29  SAPC      C218          -30.1828660895        6.6048649535        1.0624675569  MEMB      29              0.0000000000
      3106        29  SAPC      H18R          -31.3123046121        6.4681179862        1.0002391695  MEMB      29              0.0000000000
      3107        29  SAPC      H18S          -29.7602625906        5.6148165157        0.8489308357  MEMB      29              0.0000000000
      3108        29  SAPC      C219          -30.4058156159        7.4123053934       -0.0790054998  MEMB      29              0.0000000000
      3109        29  SAPC      H19R          -29.4759422661        7.9043869178       -0.3347243597  MEMB      29              0.0000000000
      3110        29  SAPC      H19S          -31.1561521977        8.1229556007        0.3256243333  MEMB      29              0.0000000000
      3111        29  SAPC      C220          -30.9881317217        6.5885701082       -1.1935443022  MEMB      29              0.0000000000
      3112        29  SAPC      H20R          -31.5601486885        7.1603399639       -1.9265980400  MEMB      29              0.0000000000
      3113        29  SAPC      H20S          -31.7219482734        5.8953371862       -0.8172235918  MEMB      29              0.0000000000
      3114        29  SAPC      H20T          -30.1772525828        6.0092629917       -1.6256365144  MEMB      29              0.0000000000
      3115        29  SAPC      C33           -24.1214605159        8.9825246626       14.0157200422  MEMB      29              0.0000000000
      3116        29  SAPC      H3X           -23.6033014218        9.8842649540       13.6454560322  MEMB      29              0.0000000000
      3117        29  SAPC      H3Y           -24.6264673459        8.5195505925       13.1344911625  MEMB      29              0.0000000000
      3118        29  SAPC      C34           -23.0677940844        8.0188610360       14.5136776029  MEMB      29              0.0000000000
      3119        29  SAPC      H4X           -23.3412291735        6.9497331567       14.7169798917  MEMB      29              0.0000000000
      3120        29  SAPC      H4Y           -22.6783361127        8.4277365673       15.4765990151  MEMB      29              0.0000000000
      3121        29  SAPC      C35           -22.0264429238        7.9323743818       13.5158322274  MEMB      29              0.0000000000
      3122        29  SAPC      H5X           -21.7645113930        8.9515706292       13.1178993181  MEMB      29              0.0000000000
      3123        29  SAPC      H5Y           -22.1815295429        7.2301136871       12.6783100600  MEMB      29              0.0000000000
      3124        29  SAPC      C36           -20.9441454710        7.4192075990       14.3558671489  MEMB      29              0.0000000000
      3125        29  SAPC      H6X           -20.5431483072        8.1147611912       15.0598600223  MEMB      29              0.0000000000
      3126        29  SAPC      H6Y           -20.2561259853        8.1018045693       13.8348994669  MEMB      29              0.0000000000
      3127        29  SAPC      C37           -20.7575178633        5.8207439694       14.5744019427  MEMB      29              0.0000000000
      3128        29  SAPC      H7X           -21.3070526028        5.4585539734       15.4170492058  MEMB      29              0.0000000000
      3129        29  SAPC      H7Y           -19.8463371967        5.4671246667       15.0771271136  MEMB      29              0.0000000000
      3130        29  SAPC      C38           -20.4656612612        4.7941212844       13.4434605643  MEMB      29              0.0000000000
      3131        29  SAPC      H8X           -19.5116157437        4.1908370606       13.4936372299  MEMB      29              0.0000000000
      3132        29  SAPC      H8Y           -20.1865229299        5.1546261785       12.5032772139  MEMB      29              0.0000000000
      3133        29  SAPC      C39           -21.7156959022        4.3488986375       12.8046122733  MEMB      29              0.0000000000
      3134        29  SAPC      H9X           -22.3289356854        5.2062179552       12.4780518193  MEMB      29              0.0000000000
      3135        29  SAPC      H9Y           -22.0681845575        3.7455823127       13.6548139042  MEMB      29              0.0000000000
      3136        29  SAPC      C310          -21.4418346239        3.6541845302       11.5178978403  MEMB      29              0.0000000000
      3137        29  SAPC      H10X          -22.1278113148        2.8357012334       11.2882873980  MEMB      29              0.0000000000
      3138        29  SAPC      H10Y          -20.4168473789        3.3855233608       11.8243947049  MEMB      29              0.0000000000
      3139        29  SAPC      C311          -21.0326546096        4.3527801549       10.2541028765  MEMB      29              0.0000000000
      3140        29  SAPC      H11X          -20.5764918793        3.6370084304        9.5652632142  MEMB      29              0.0000000000
      3141        29  SAPC      H11Y          -20.2287976731        4.9937191370       10.5809542948  MEMB      29              0.0000000000
      3142        29  SAPC      C312          -22.0956853082        5.0574026770        9.4765579603  MEMB      29              0.0000000000
      3143        29  SAPC      H12X          -21.5768343389        5.7145930552        8.7442175424  MEMB      29              0.0000000000
      3144        29  SAPC      H12Y          -22.6277205191        5.6775470718       10.2237606439  MEMB      29              0.0000000000
      3145        29  SAPC      C313          -23.0342044768        4.1039850558        8.7272878522  MEMB      29              0.0000000000
      3146        29  SAPC      H13X          -24.0041896834        4.6398996163        8.6488689390  MEMB      29              0.0000000000
      3147        29  SAPC      H13Y          -23.2430034489        3.1787224118        9.3039937061  MEMB      29              0.0000000000
      3148        29  SAPC      C314          -22.5928257924        3.7599843687        7.2927560126  MEMB      29              0.0000000000
      3149        29  SAPC      H14X          -22.9240611316        2.7314465882        7.0284006595  MEMB      29              0.0000000000
      3150        29  SAPC      H14Y          -21.4916363334        3.7530418418        7.1860342524  MEMB      29              0.0000000000
      3151        29  SAPC      C315          -23.2093125147        4.7655603033        6.3135509369  MEMB      29              0.0000000000
      3152        29  SAPC      H15X          -22.6302115458        5.7095561114        6.3958721272  MEMB      29              0.0000000000
      3153        29  SAPC      H15Y          -24.2551236339        4.9979863993        6.6199773482  MEMB      29              0.0000000000
      3154        29  SAPC      C316          -23.2430043183        4.3009462598        4.8538032473  MEMB      29              0.0000000000
      3155        29  SAPC      H16X          -24.0002873047        4.8957842452        4.2977102750  MEMB      29              0.0000000000
      3156        29  SAPC      H16Y          -23.4054918659        3.2078449512        4.7791584646  MEMB      29              0.0000000000
      3157        29  SAPC      C317          -21.9916568772        4.6156446225        4.1354618294  MEMB      29              0.0000000000
      3158        29  SAPC      H17X          -21.2416006872        3.8718620979        4.4740338455  MEMB      29              0.0000000000
      3159        29  SAPC      H17Y          -21.8036405901        5.6308102386        4.5449551207  MEMB      29              0.0000000000
      3160        29  SAPC      C318          -21.9910598868        4.6539083547        2.6096186099  MEMB      29              0.0000000000
      3161        29  SAPC      H18X          -22.4675290182        5.5875042405        2.2474334772  MEMB      29              0.0000000000
      3162        29  SAPC      H18Y          -22.5161398359        3.7648023392        2.2357542399  MEMB      29              0.0000000000
      3163        29  SAPC      H18Z          -20.9660231884        4.6097916892        2.1754154462  MEMB      29              0.0000000000
      3164        30  SLPC      N              19.3484739148       10.2020425151       18.3638838296  MEMB      30              0.0000000000
      3165        30  SLPC      C13            20.5382038279       10.4476539094       19.2363242625  MEMB      30              0.0000000000
      3166        30  SLPC      H13A           20.3543310963       11.2385362998       19.9470136237  MEMB      30              0.0000000000
      3167        30  SLPC      H13B           20.7749791600        9.5455667233       19.7785868056  MEMB      30              0.0000000000
      3168        30  SLPC      H13C           21.4078744995       10.6807974210       18.6188173361  MEMB      30              0.0000000000
      3169        30  SLPC      C14            19.0542121950       11.4186919404       17.5588495988  MEMB      30              0.0000000000
      3170        30  SLPC      H14A           18.1127718775       11.3265195976       17.0315200368  MEMB      30              0.0000000000
      3171        30  SLPC      H14B           19.0032309523       12.3044352134       18.1719018920  MEMB      30              0.0000000000
      3172        30  SLPC      H14C           19.8555941964       11.5624722475       16.8337276554  MEMB      30              0.0000000000
      3173        30  SLPC      C15            18.2105941147        9.8481502490       19.2595249348  MEMB      30              0.0000000000
      3174        30  SLPC      H15A           18.0658808699       10.5883783889       20.0261636933  MEMB      30              0.0000000000
      3175        30  SLPC      H15B           17.2722785640        9.7470061061       18.7186767558  MEMB      30              0.0000000000
      3176        30  SLPC      H15C           18.4634094887        8.9153751834       19.7516670183  MEMB      30              0.0000000000
      3177        30  SLPC      C12            19.6319978695        9.0371853146       17.4135093310  MEMB      30              0.0000000000
      3178        30  SLPC      H12A           18.7364609926        8.8313567450       16.8468946608  MEMB      30              0.0000000000
      3179        30  SLPC      H12B           19.9096809626        8.1751084331       17.9988745164  MEMB      30              0.0000000000
      3180        30  SLPC      C11            20.7108625683        9.1296949490       16.3159208552  MEMB      30              0.0000000000
      3181        30  SLPC      H11A           20.4206483931        9.9115282942       15.5727210677  MEMB      30              0.0000000000
      3182        30  SLPC      H11B           20.6735081887        8.1448696195       15.7850525172  MEMB      30              0.0000000000
      3183        30  SLPC      P              23.1945481084        9.4583446094       15.7925085853  MEMB      30              0.0000000000
      3184        30  SLPC      O13            24.1425227236       10.4941195942       16.2570508136  MEMB      30              0.0000000000
      3185        30  SLPC      O14            23.7262879544        8.1134293752       15.4902883427  MEMB      30              0.0000000000
      3186        30  SLPC      O12            22.0105951388        9.3421644670       16.8646677325  MEMB      30              0.0000000000
      3187        30  SLPC      O11            22.3897223707        9.9412953703       14.5209985976  MEMB      30              0.0000000000
      3188        30  SLPC      C1             22.8085780336       11.0019274875       13.6820195953  MEMB      30              0.0000000000
      3189        30  SLPC      HA             22.8124306061       11.9649355669       14.2376065312  MEMB      30              0.0000000000
      3190        30  SLPC      HB             23.8273775692       10.7893921753       13.3207497612  MEMB      30              0.0000000000
      3191        30  SLPC      C2             21.8980197291       11.2006312131       12.4419995034  MEMB      30              0.0000000000
      3192        30  SLPC      HS             22.0575791478       12.2365312511       12.0822705082  MEMB      30              0.0000000000
      3193        30  SLPC      O21            20.5381560660       11.0537152297       12.8292084701  MEMB      30              0.0000000000
      3194        30  SLPC      C21            19.6933616888       11.6184387543       11.9738665856  MEMB      30              0.0000000000
      3195        30  SLPC      O22            19.9649295506       12.4003888551       11.0903564576  MEMB      30              0.0000000000
      3196        30  SLPC      C22            18.3711088627       11.0775204476       12.2212851134  MEMB      30              0.0000000000
      3197        30  SLPC      H2R            17.8618720806       11.5805916950       13.0873444099  MEMB      30              0.0000000000
      3198        30  SLPC      H2S            17.6919752717       11.2126921351       11.3474059828  MEMB      30              0.0000000000
      3199        30  SLPC      C3             22.2458551807       10.2130473335       11.2897738780  MEMB      30              0.0000000000
      3200        30  SLPC      HX             23.2602571202       10.4643709685       10.9360608553  MEMB      30              0.0000000000
      3201        30  SLPC      HY             21.5401718203       10.3644051684       10.4474955991  MEMB      30              0.0000000000
      3202        30  SLPC      O31            22.1514374959        8.8567623414       11.7193139200  MEMB      30              0.0000000000
      3203        30  SLPC      C31            23.2637371046        8.2661588859       12.1243573066  MEMB      30              0.0000000000
      3204        30  SLPC      O32            24.4043473763        8.5661539363       11.8595897553  MEMB      30              0.0000000000
      3205        30  SLPC      C32            22.9002901572        7.0418598183       12.7997908357  MEMB      30              0.0000000000
      3206        30  SLPC      H2X            22.2214326216        7.2106634805       13.6564123959  MEMB      30              0.0000000000
      3207        30  SLPC      H2Y            23.7936203225        6.5037419981       13.1788615978  MEMB      30              0.0000000000
      3208        30  SLPC      C23            18.7014552638        9.5982100222       12.5009931887  MEMB      30              0.0000000000
      3209        30  SLPC      H3R            17.7770310890        9.7459707594       12.9476170848  MEMB      30              0.0000000000
      3210        30  SLPC      H3S            19.0384283594        9.1833887504       13.4641787736  MEMB      30              0.0000000000
      3211        30  SLPC      C24            18.8973922051        8.6444988991       11.2845957329  MEMB      30              0.0000000000
      3212        30  SLPC      H4R            18.6020564449        7.5856864881       11.4949981844  MEMB      30              0.0000000000
      3213        30  SLPC      H4S            19.9813522358        8.7078916026       11.1255085471  MEMB      30              0.0000000000
      3214        30  SLPC      C25            18.3322435287        9.0399222511        9.9057890805  MEMB      30              0.0000000000
      3215        30  SLPC      H5R            18.5036819108       10.0772550880        9.6307985865  MEMB      30              0.0000000000
      3216        30  SLPC      H5S            17.2907880185        9.1654823189        9.9741460111  MEMB      30              0.0000000000
      3217        30  SLPC      C26            18.4175470044        7.9945681700        8.7882710000  MEMB      30              0.0000000000
      3218        30  SLPC      H6R            17.7622511094        8.2474886096        7.9320016550  MEMB      30              0.0000000000
      3219        30  SLPC      H6S            18.1180016591        6.9858645944        9.1619876911  MEMB      30              0.0000000000
      3220        30  SLPC      C27            19.7546128349        7.9857862764        8.1428132488  MEMB      30              0.0000000000
      3221        30  SLPC      H7R            19.7881603310        7.0586568321        7.5307730304  MEMB      30              0.0000000000
      3222        30  SLPC      H7S            20.4763228827        7.9263490845        8.9820357796  MEMB      30              0.0000000000
      3223        30  SLPC      C28            20.0058872439        9.1820586275        7.2029762717  MEMB      30              0.0000000000
      3224        30  SLPC      H8R            19.2493671283        9.2498299323        6.3912768918  MEMB      30              0.0000000000
      3225        30  SLPC      H8S            20.9595107456        8.8764877781        6.7366104009  MEMB      30              0.0000000000
      3226        30  SLPC      C29            20.1528237037       10.5260620963        7.8576484079  MEMB      30              0.0000000000
      3227        30  SLPC      H9R            19.2337858707       11.0433938019        8.1694217984  MEMB      30              0.0000000000
      3228        30  SLPC      C210           21.2878910539       11.1975374744        7.9672377989  MEMB      30              0.0000000000
      3229        30  SLPC      H10R           21.2554873118       12.1823266147        8.4726034915  MEMB      30              0.0000000000
      3230        30  SLPC      C211           22.6180509716       10.7210486405        7.4371949745  MEMB      30              0.0000000000
      3231        30  SLPC      H11R           22.5806221390       10.1193600511        6.5158049774  MEMB      30              0.0000000000
      3232        30  SLPC      H11S           23.1834199994       10.1712508308        8.2264149717  MEMB      30              0.0000000000
      3233        30  SLPC      C212           23.3942018410       11.9124603663        7.0807847625  MEMB      30              0.0000000000
      3234        30  SLPC      H12R           24.4388495221       11.7910999359        7.3809973221  MEMB      30              0.0000000000
      3235        30  SLPC      C213           23.0838365021       12.9749366146        6.3491758686  MEMB      30              0.0000000000
      3236        30  SLPC      H13R           23.4181349437       13.9071144225        6.8040471366  MEMB      30              0.0000000000
      3237        30  SLPC      C214           21.8627994390       13.3343527652        5.6181546384  MEMB      30              0.0000000000
      3238        30  SLPC      H14R           21.6695755009       14.4242292604        5.7569556530  MEMB      30              0.0000000000
      3239        30  SLPC      H14S           21.0244446411       12.7094178604        5.9195763411  MEMB      30              0.0000000000
      3240        30  SLPC      C215           22.0828341276       13.1030511965        4.1433663331  MEMB      30              0.0000000000
      3241        30  SLPC      H15R           22.7644971057       13.9130802057        3.9156391634  MEMB      30              0.0000000000
      3242        30  SLPC      H15S           21.2113988684       13.4461821242        3.5804034675  MEMB      30              0.0000000000
      3243        30  SLPC      C216           22.5812633432       11.6834262661        3.7463579904  MEMB      30              0.0000000000
      3244        30  SLPC      H16R           21.8360230075       10.9560555206        4.1148513999  MEMB      30              0.0000000000
      3245        30  SLPC      H16S           23.5447637916       11.4392345367        4.2640478499  MEMB      30              0.0000000000
      3246        30  SLPC      C217           22.8737047186       11.5355078275        2.2386766854  MEMB      30              0.0000000000
      3247        30  SLPC      H17R           23.4405763803       10.5970631090        2.0350482597  MEMB      30              0.0000000000
      3248        30  SLPC      H17S           23.5232758738       12.3730051018        1.9070639873  MEMB      30              0.0000000000
      3249        30  SLPC      C218           21.6156156344       11.5396134606        1.3918454129  MEMB      30              0.0000000000
      3250        30  SLPC      H18R           21.8636715394       11.4946926037        0.3094030629  MEMB      30              0.0000000000
      3251        30  SLPC      H18S           21.0144478495       12.4520627126        1.5938540304  MEMB      30              0.0000000000
      3252        30  SLPC      H18T           21.0268964905       10.6436460171        1.6771303607  MEMB      30              0.0000000000
      3253        30  SLPC      C33            22.2203023659        6.3031655130       11.7014261500  MEMB      30              0.0000000000
      3254        30  SLPC      H3X            21.2230653390        6.3935269873       11.2681819045  MEMB      30              0.0000000000
      3255        30  SLPC      H3Y            21.8061675726        5.7124269921       12.5395115453  MEMB      30              0.0000000000
      3256        30  SLPC      C34            23.2384919583        5.7567981640       10.6574201332  MEMB      30              0.0000000000
      3257        30  SLPC      H4X            22.9173239879        4.8624284289       10.1963633549  MEMB      30              0.0000000000
      3258        30  SLPC      H4Y            24.1112033863        5.3103707554       11.1204534173  MEMB      30              0.0000000000
      3259        30  SLPC      C35            23.2325397447        6.4240011816        9.3110306052  MEMB      30              0.0000000000
      3260        30  SLPC      H5X            23.4653355721        7.4367524996        9.6200552133  MEMB      30              0.0000000000
      3261        30  SLPC      H5Y            22.2106188201        6.2288460585        8.9015672537  MEMB      30              0.0000000000
      3262        30  SLPC      C36            24.2827829704        6.0563038383        8.2915908662  MEMB      30              0.0000000000
      3263        30  SLPC      H6X            24.0484084386        5.1126126603        7.9071510650  MEMB      30              0.0000000000
      3264        30  SLPC      H6Y            25.2579300248        5.9326179751        8.7417240004  MEMB      30              0.0000000000
      3265        30  SLPC      C37            24.1467026577        6.4379942939        6.8443401439  MEMB      30              0.0000000000
      3266        30  SLPC      H7X            24.9764162217        5.9557861762        6.2737241152  MEMB      30              0.0000000000
      3267        30  SLPC      H7Y            24.3065693505        7.5129413700        6.9144145228  MEMB      30              0.0000000000
      3268        30  SLPC      C38            22.8289770495        5.9931252290        6.1616046125  MEMB      30              0.0000000000
      3269        30  SLPC      H8X            21.9458622498        5.9788771757        6.8346711841  MEMB      30              0.0000000000
      3270        30  SLPC      H8Y            22.9023476229        4.9590494784        5.7446418216  MEMB      30              0.0000000000
      3271        30  SLPC      C39            22.5912390291        6.9163560825        4.9788036143  MEMB      30              0.0000000000
      3272        30  SLPC      H9X            23.5641370424        7.3318450797        4.6918297687  MEMB      30              0.0000000000
      3273        30  SLPC      H9Y            22.0604376286        7.8320763925        5.2759224134  MEMB      30              0.0000000000
      3274        30  SLPC      C310           21.9313548044        6.2290505306        3.7867562572  MEMB      30              0.0000000000
      3275        30  SLPC      H10X           20.9148817306        5.9239651271        4.1258104726  MEMB      30              0.0000000000
      3276        30  SLPC      H10Y           22.4712930400        5.3008119956        3.4804428569  MEMB      30              0.0000000000
      3277        30  SLPC      C311           21.7153049780        7.1955787909        2.6196983449  MEMB      30              0.0000000000
      3278        30  SLPC      H11X           22.5579697315        7.6343967644        2.0748398402  MEMB      30              0.0000000000
      3279        30  SLPC      H11Y           21.2644916051        8.1226669937        3.0243803317  MEMB      30              0.0000000000
      3280        30  SLPC      C312           20.9115155106        6.5577878425        1.5135321928  MEMB      30              0.0000000000
      3281        30  SLPC      H12X           20.0754277644        6.0176678730        2.0015094996  MEMB      30              0.0000000000
      3282        30  SLPC      H12Y           21.4867328376        5.8386757301        0.8799861748  MEMB      30              0.0000000000
      3283        30  SLPC      C313           20.4136676272        7.6851623247        0.6497818571  MEMB      30              0.0000000000
      3284        30  SLPC      H13X           21.2759711868        8.1583426177        0.1172546358  MEMB      30              0.0000000000
      3285        30  SLPC      H13Y           19.9547896606        8.4594388495        1.3117495595  MEMB      30              0.0000000000
      3286        30  SLPC      C314           19.3714567386        7.1720253397       -0.3146824380  MEMB      30              0.0000000000
      3287        30  SLPC      H14X           18.5836287867        6.5771762915        0.1842400572  MEMB      30              0.0000000000
      3288        30  SLPC      H14Y           19.8804588437        6.5826772841       -1.1101425075  MEMB      30              0.0000000000
      3289        30  SLPC      C315           18.6247844253        8.3142680065       -0.8699585627  MEMB      30              0.0000000000
      3290        30  SLPC      H15X           18.1537811672        8.9764301765       -0.1052593975  MEMB      30              0.0000000000
      3291        30  SLPC      H15Y           17.8929285741        8.0152280617       -1.6688778084  MEMB      30              0.0000000000
      3292        30  SLPC      C316           19.5481748415        9.2187492203       -1.4954794908  MEMB      30              0.0000000000
      3293        30  SLPC      H16X           19.9229306009        8.6634273087       -2.4114724692  MEMB      30              0.0000000000
      3294        30  SLPC      H16Y           20.3954209525        9.7442316606       -1.0034673109  MEMB      30              0.0000000000
      3295        30  SLPC      C317           18.5454835772       10.2297823609       -1.8816372735  MEMB      30              0.0000000000
      3296        30  SLPC      H17X           17.9630621804        9.6869978024       -2.6570287904  MEMB      30              0.0000000000
      3297        30  SLPC      H17Y           19.2813607982       10.8801889832       -2.2478918325  MEMB      30              0.0000000000
      3298        30  SLPC      C318           17.8606264400       11.4081711055       -1.2005601408  MEMB      30              0.0000000000
      3299        30  SLPC      H18X           18.6101761212       11.9437658575       -0.5793290699  MEMB      30              0.0000000000
      3300        30  SLPC      H18Y           17.0075683293       10.9691443317       -0.6850025823  MEMB      30              0.0000000000
      3301        30  SLPC      H18Z           17.4769671148       12.1743354124       -1.9362765214  MEMB      30              0.0000000000
      3302        31  OSM       N              16.5293074154       15.0827966344       22.6240910843  MEMB      31              0.0000000000
      3303        31  OSM       C15            15.8804500466       15.6682722161       23.8461080449  MEMB      31              0.0000000000
      3304        31  OSM       H15A           14.8297840235       15.4018026375       23.8855288492  MEMB      31              0.0000000000
      3305        31  OSM       H15B           15.9524458550       16.7482563002       23.8173612849  MEMB      31              0.0000000000
      3306        31  OSM       H15C           16.3524839043       15.3068799483       24.7508216567  MEMB      31              0.0000000000
      3307        31  OSM       C14            17.9690005906       15.4719883179       22.6435821894  MEMB      31              0.0000000000
      3308        31  OSM       H14A           18.4828600950       15.0488657487       21.7863118972  MEMB      31              0.0000000000
      3309        31  OSM       H14B           18.4380027207       15.1655444714       23.5662966397  MEMB      31              0.0000000000
      3310        31  OSM       H14C           18.0141954265       16.5543300227       22.5189203161  MEMB      31              0.0000000000
      3311        31  OSM       C13            16.4468388360       13.5910513219       22.6811966122  MEMB      31              0.0000000000
      3312        31  OSM       H13A           16.5400571545       13.2251540563       23.7042418020  MEMB      31              0.0000000000
      3313        31  OSM       H13B           17.2898907714       13.1282234722       22.1788652087  MEMB      31              0.0000000000
      3314        31  OSM       H13C           15.5316800700       13.1895281972       22.2590842878  MEMB      31              0.0000000000
      3315        31  OSM       C12            15.8469457810       15.6531260793       21.3680356071  MEMB      31              0.0000000000
      3316        31  OSM       H12A           14.8280326673       15.2851036814       21.3179281895  MEMB      31              0.0000000000
      3317        31  OSM       H12B           16.2931656213       15.2806974168       20.4497857533  MEMB      31              0.0000000000
      3318        31  OSM       C11            15.8245885426       17.2043004680       21.2165429919  MEMB      31              0.0000000000
      3319        31  OSM       H11A           15.4870970228       17.6751895291       22.1637800434  MEMB      31              0.0000000000
      3320        31  OSM       H11B           15.0573063103       17.4802309783       20.4527457724  MEMB      31              0.0000000000
      3321        31  OSM       P              17.5183530164       17.8785784815       19.3482580641  MEMB      31              0.0000000000
      3322        31  OSM       O13            18.7640694037       18.6378298105       19.2222530528  MEMB      31              0.0000000000
      3323        31  OSM       O14            17.4632433952       16.5298685053       18.7453796328  MEMB      31              0.0000000000
      3324        31  OSM       O11            16.3348085409       18.7404989651       18.7359363818  MEMB      31              0.0000000000
      3325        31  OSM       O12            17.1129522788       17.7238350879       20.8796605518  MEMB      31              0.0000000000
      3326        31  OSM       C1S            16.4225234220       19.3179370970       17.4270981645  MEMB      31              0.0000000000
      3327        31  OSM       H1S            17.3708963266       19.8785031950       17.2890308021  MEMB      31              0.0000000000
      3328        31  OSM       H1T            15.6149793327       20.0918053615       17.3646378750  MEMB      31              0.0000000000
      3329        31  OSM       NF             16.1486817175       18.9987562087       14.9896825017  MEMB      31              0.0000000000
      3330        31  OSM       HNF            15.2709874642       19.1221220840       14.5377208187  MEMB      31              0.0000000000
      3331        31  OSM       C2S            16.2107316840       18.2692214900       16.2604053181  MEMB      31              0.0000000000
      3332        31  OSM       H2S            17.0150280693       17.5265915872       16.2058656171  MEMB      31              0.0000000000
      3333        31  OSM       C3S            14.9050676675       17.4922134030       16.5954735811  MEMB      31              0.0000000000
      3334        31  OSM       H3S            14.3427134449       18.4261180753       16.7357028357  MEMB      31              0.0000000000
      3335        31  OSM       O3             14.7724032739       16.7968722396       17.8047359223  MEMB      31              0.0000000000
      3336        31  OSM       HO3            15.4980076266       17.2059788564       18.2940265038  MEMB      31              0.0000000000
      3337        31  OSM       C4S            14.5880644241       16.5339102505       15.3878557308  MEMB      31              0.0000000000
      3338        31  OSM       H4S            15.4361386781       16.0903655748       14.8805249436  MEMB      31              0.0000000000
      3339        31  OSM       C5S            13.3824948621       16.1144319654       14.8768942914  MEMB      31              0.0000000000
      3340        31  OSM       H5S            12.3616259600       16.4009912209       15.1798005059  MEMB      31              0.0000000000
      3341        31  OSM       C6S            12.9573233273       15.3346523396       13.7623725239  MEMB      31              0.0000000000
      3342        31  OSM       H6S            11.8467005329       15.5838048027       13.6000144110  MEMB      31              0.0000000000
      3343        31  OSM       H6T            13.2248660535       14.4119419974       14.2221202372  MEMB      31              0.0000000000
      3344        31  OSM       C7S            13.5207662059       15.4512692630       12.3841159153  MEMB      31              0.0000000000
      3345        31  OSM       H7S            12.9579674779       15.0373080060       11.5529421298  MEMB      31              0.0000000000
      3346        31  OSM       H7T            14.6126018456       15.3758522483       12.3361453126  MEMB      31              0.0000000000
      3347        31  OSM       C8S            13.2613222584       16.7285602567       11.8684412751  MEMB      31              0.0000000000
      3348        31  OSM       H8S            13.8759098368       17.2787753384       12.5824668628  MEMB      31              0.0000000000
      3349        31  OSM       H8T            12.1860652137       17.0124866072       12.0344493270  MEMB      31              0.0000000000
      3350        31  OSM       C9S            13.7264479361       16.9122176707       10.4281657295  MEMB      31              0.0000000000
      3351        31  OSM       H9S            13.6172421261       17.8912259582       10.6416926826  MEMB      31              0.0000000000
      3352        31  OSM       H9T            12.9352933202       17.0105233452        9.6685551189  MEMB      31              0.0000000000
      3353        31  OSM       C10S           15.2466778973       16.9767045009       10.0803191503  MEMB      31              0.0000000000
      3354        31  OSM       H10S           15.5903357188       16.0540429605       10.5323637069  MEMB      31              0.0000000000
      3355        31  OSM       H10T           15.9175616943       17.7211217365       10.5769831809  MEMB      31              0.0000000000
      3356        31  OSM       C11S           15.5159727607       17.0624375564        8.5776947644  MEMB      31              0.0000000000
      3357        31  OSM       H11S           15.0701779335       17.8830411106        8.1044608955  MEMB      31              0.0000000000
      3358        31  OSM       H11T           14.9007364258       16.3072029718        8.0803182647  MEMB      31              0.0000000000
      3359        31  OSM       C12S           16.9590849361       17.2743862380        8.0931752904  MEMB      31              0.0000000000
      3360        31  OSM       H12S           17.5494822004       16.5764598046        8.7030529675  MEMB      31              0.0000000000
      3361        31  OSM       H12T           17.3512252532       18.3034540640        8.2893809721  MEMB      31              0.0000000000
      3362        31  OSM       C13S           17.1245977050       17.0850366457        6.5654074881  MEMB      31              0.0000000000
      3363        31  OSM       H13S           18.1865375382       17.1656056637        6.2842379608  MEMB      31              0.0000000000
      3364        31  OSM       H13T           16.5941706612       17.9190815337        6.0702063459  MEMB      31              0.0000000000
      3365        31  OSM       C14S           16.5205188302       15.7974945140        6.0121663614  MEMB      31              0.0000000000
      3366        31  OSM       H14S           15.4217348582       15.9035170434        6.0084703807  MEMB      31              0.0000000000
      3367        31  OSM       H14T           16.7296631028       15.0055845918        6.7657047050  MEMB      31              0.0000000000
      3368        31  OSM       C15S           16.9150829308       15.2828855643        4.5938895332  MEMB      31              0.0000000000
      3369        31  OSM       H15S           16.2945618815       14.3947576829        4.3192912980  MEMB      31              0.0000000000
      3370        31  OSM       H15T           17.9922537339       15.0918310841        4.5907747386  MEMB      31              0.0000000000
      3371        31  OSM       C16S           16.6390052807       16.1580455065        3.3956143314  MEMB      31              0.0000000000
      3372        31  OSM       H16S           17.2039477110       17.1225803309        3.4822710009  MEMB      31              0.0000000000
      3373        31  OSM       H16T           15.5239179415       16.1816238339        3.5436067179  MEMB      31              0.0000000000
      3374        31  OSM       C17S           16.5497554510       15.6403336773        1.9838843996  MEMB      31              0.0000000000
      3375        31  OSM       H17S           15.5675232380       15.1060400541        1.8999931336  MEMB      31              0.0000000000
      3376        31  OSM       H17T           17.3900254084       14.9351429808        1.9142002224  MEMB      31              0.0000000000
      3377        31  OSM       C18S           16.6708289704       16.6671429009        0.8484194479  MEMB      31              0.0000000000
      3378        31  OSM       H18S           17.6695501002       17.1486129180        0.8662744814  MEMB      31              0.0000000000
      3379        31  OSM       H18T           15.9171124981       17.4870265928        0.8421721869  MEMB      31              0.0000000000
      3380        31  OSM       H18U           16.5697453427       16.0971523090       -0.1002294356  MEMB      31              0.0000000000
      3381        31  OSM       C1F            17.2294171878       19.4442991613       14.4122402264  MEMB      31              0.0000000000
      3382        31  OSM       OF             18.3012247101       19.0994195868       14.8353458695  MEMB      31              0.0000000000
      3383        31  OSM       C2F            17.1755722275       20.4507862100       13.3408411763  MEMB      31              0.0000000000
      3384        31  OSM       H2F            17.2292717883       21.2200320395       14.0781630118  MEMB      31              0.0000000000
      3385        31  OSM       H2G            16.3109375704       20.7305806241       12.7716114854  MEMB      31              0.0000000000
      3386        31  OSM       C3F            18.3526263273       20.4243344655       12.3688534512  MEMB      31              0.0000000000
      3387        31  OSM       H3F            18.4411986370       19.4127889354       11.9784512144  MEMB      31              0.0000000000
      3388        31  OSM       H3G            19.2413442821       20.6732938279       12.9622081394  MEMB      31              0.0000000000
      3389        31  OSM       C4F            18.2288897882       21.2983379129       11.1237235776  MEMB      31              0.0000000000
      3390        31  OSM       H4F            19.1033452658       21.7030538801       10.6104895250  MEMB      31              0.0000000000
      3391        31  OSM       H4G            17.7882227905       22.1606358613       11.5383346218  MEMB      31              0.0000000000
      3392        31  OSM       C5F            17.1665896162       20.8467031561       10.1956046194  MEMB      31              0.0000000000
      3393        31  OSM       H5F            16.3510819102       21.1821951447       10.8560189158  MEMB      31              0.0000000000
      3394        31  OSM       H5G            17.1686564413       19.8058999277        9.8507836917  MEMB      31              0.0000000000
      3395        31  OSM       C6F            17.0612642308       21.5926629391        8.9186237111  MEMB      31              0.0000000000
      3396        31  OSM       H6F            17.7681525823       22.3924284749        8.8050147156  MEMB      31              0.0000000000
      3397        31  OSM       H6G            16.4062035343       22.3092949124        9.0988173020  MEMB      31              0.0000000000
      3398        31  OSM       C7F            15.7765571636       21.4758531384        8.1746951091  MEMB      31              0.0000000000
      3399        31  OSM       H7F            14.8905879418       22.1967358474        8.1164255840  MEMB      31              0.0000000000
      3400        31  OSM       H7G            15.2740528553       20.9546709712        8.9605147931  MEMB      31              0.0000000000
      3401        31  OSM       C8F            16.2858865181       20.8028087588        6.9165151367  MEMB      31              0.0000000000
      3402        31  OSM       H8F            15.4173430742       20.6636114899        6.3231687628  MEMB      31              0.0000000000
      3403        31  OSM       H8G            16.6869230291       19.9414640258        7.4383474669  MEMB      31              0.0000000000
      3404        31  OSM       C9F            17.4387267311       21.0647630026        6.0070915414  MEMB      31              0.0000000000
      3405        31  OSM       H9F            18.0177789538       21.8243654302        6.5667073940  MEMB      31              0.0000000000
      3406        31  OSM       C10F           17.3460223323       21.2432392072        4.6468519846  MEMB      31              0.0000000000
      3407        31  OSM       H10F           17.7404882061       22.1495880943        4.2718985324  MEMB      31              0.0000000000
      3408        31  OSM       C11F           16.1591960060       21.2524086320        3.7283539758  MEMB      31              0.0000000000
      3409        31  OSM       H11F           15.2234394740       21.8315256061        3.9819088105  MEMB      31              0.0000000000
      3410        31  OSM       H11G           15.9701658943       20.3105740259        3.9434439615  MEMB      31              0.0000000000
      3411        31  OSM       C12F           16.2171955870       21.2814394356        2.2188477002  MEMB      31              0.0000000000
      3412        31  OSM       H12F           16.5174513075       22.2296974777        1.8091969079  MEMB      31              0.0000000000
      3413        31  OSM       H12G           15.2243419428       21.2231575397        1.7243168215  MEMB      31              0.0000000000
      3414        31  OSM       C13F           17.3693279221       20.4761511027        1.7532350484  MEMB      31              0.0000000000
      3415        31  OSM       H13F           17.0398710404       19.4331543569        1.7888284541  MEMB      31              0.0000000000
      3416        31  OSM       H13G           18.2667296590       20.6015918864        2.4074087522  MEMB      31              0.0000000000
      3417        31  OSM       C14F           17.6766949475       21.0046182499        0.3808511294  MEMB      31              0.0000000000
      3418        31  OSM       H14F           18.1372851402       22.0140563225        0.4574632178  MEMB      31              0.0000000000
      3419        31  OSM       H14G           16.7022749453       21.1252545082       -0.1419770063  MEMB      31              0.0000000000
      3420        31  OSM       C15F           18.6435675089       20.1091465841       -0.3275283286  MEMB      31              0.0000000000
      3421        31  OSM       H15F           18.1470422319       19.1386731826       -0.5349597596  MEMB      31              0.0000000000
      3422        31  OSM       H15G           19.4924918068       19.9390750237        0.3706097808  MEMB      31              0.0000000000
      3423        31  OSM       C16F           19.1683599423       20.8054593375       -1.5707184575  MEMB      31              0.0000000000
      3424        31  OSM       H16F           19.7947391799       21.6521553278       -1.2857439746  MEMB      31              0.0000000000
      3425        31  OSM       H16G           18.3968251938       21.2229262206       -2.2058631800  MEMB      31              0.0000000000
      3426        31  OSM       C17F           19.9679299598       19.9323066338       -2.4732366470  MEMB      31              0.0000000000
      3427        31  OSM       H17F           20.5804550145       19.3692157535       -1.7771668665  MEMB      31              0.0000000000
      3428        31  OSM       H17G           20.6214756049       20.5674770148       -3.1202104523  MEMB      31              0.0000000000
      3429        31  OSM       C18F           19.1124975860       18.9273109596       -3.2304806000  MEMB      31              0.0000000000
      3430        31  OSM       H18F           18.2052424147       19.3906386736       -3.6052423128  MEMB      31              0.0000000000
      3431        31  OSM       H18G           18.9758086168       18.0178710547       -2.6118502874  MEMB      31              0.0000000000
      3432        31  OSM       H18H           19.5240858567       18.5624742795       -4.1648764476  MEMB      31              0.0000000000
      3433        32  SAPE      N               4.6392971300       20.3742304991       18.3382501785  MEMB      32              0.0000000000
      3434        32  SAPE      HN1             3.9482387551       19.9835431211       17.6487460728  MEMB      32              0.0000000000
      3435        32  SAPE      HN2             5.5101335917       20.6093211566       17.8338991347  MEMB      32              0.0000000000
      3436        32  SAPE      HN3             4.8395489726       19.6012912111       19.0019219896  MEMB      32              0.0000000000
      3437        32  SAPE      C12             4.0900989699       21.5290166633       19.1083854152  MEMB      32              0.0000000000
      3438        32  SAPE      H12A            3.2491284484       21.1696799823       19.7434008108  MEMB      32              0.0000000000
      3439        32  SAPE      H12B            3.7217533918       22.2894608756       18.3860855192  MEMB      32              0.0000000000
      3440        32  SAPE      C11             5.1937853614       22.0927458624       19.9942716573  MEMB      32              0.0000000000
      3441        32  SAPE      H11A            5.9963278913       22.5329049128       19.3552077531  MEMB      32              0.0000000000
      3442        32  SAPE      H11B            5.6951685401       21.3092787095       20.5943288180  MEMB      32              0.0000000000
      3443        32  SAPE      P               4.3616979042       24.4940879876       20.5583774786  MEMB      32              0.0000000000
      3444        32  SAPE      O13             3.0672744405       24.5270337638       19.8308563137  MEMB      32              0.0000000000
      3445        32  SAPE      O14             4.5636385269       25.3458931638       21.7353130280  MEMB      32              0.0000000000
      3446        32  SAPE      O12             4.6113935723       22.9890757083       20.9292239395  MEMB      32              0.0000000000
      3447        32  SAPE      O11             5.5216349006       24.6885375463       19.5898706175  MEMB      32              0.0000000000
      3448        32  SAPE      C1              5.5177000041       25.8587917968       18.8238062469  MEMB      32              0.0000000000
      3449        32  SAPE      HA              4.7451768335       26.6585337940       18.9579985222  MEMB      32              0.0000000000
      3450        32  SAPE      HB              6.3681795873       26.3118912539       19.3290378976  MEMB      32              0.0000000000
      3451        32  SAPE      C2              5.5766492022       25.4013172917       17.3535851922  MEMB      32              0.0000000000
      3452        32  SAPE      HS              5.7206245264       26.3143237974       16.7084143568  MEMB      32              0.0000000000
      3453        32  SAPE      O21             4.3840792762       24.6865741020       17.0271658738  MEMB      32              0.0000000000
      3454        32  SAPE      C21             3.6368682316       25.1936793263       16.0890440455  MEMB      32              0.0000000000
      3455        32  SAPE      O22             3.8141859082       26.2278300910       15.4733708283  MEMB      32              0.0000000000
      3456        32  SAPE      C22             2.4686114757       24.2377947089       15.8672636236  MEMB      32              0.0000000000
      3457        32  SAPE      H2R             2.3774613183       23.5692511546       16.7460101677  MEMB      32              0.0000000000
      3458        32  SAPE      H2S             1.5547310721       24.8636616718       15.8152214222  MEMB      32              0.0000000000
      3459        32  SAPE      C3              6.7925031534       24.3994916855       17.1945994654  MEMB      32              0.0000000000
      3460        32  SAPE      HX              6.6508974996       23.5348178645       17.8112836179  MEMB      32              0.0000000000
      3461        32  SAPE      HY              7.7145123095       24.8440854411       17.6620394806  MEMB      32              0.0000000000
      3462        32  SAPE      O31             6.9966482755       23.7896823405       15.8778407086  MEMB      32              0.0000000000
      3463        32  SAPE      C31             7.6083471353       24.7412958369       15.2297461151  MEMB      32              0.0000000000
      3464        32  SAPE      O32             7.6805176108       25.8331198145       15.7375085916  MEMB      32              0.0000000000
      3465        32  SAPE      C32             7.8876009525       24.2444246546       13.7326890907  MEMB      32              0.0000000000
      3466        32  SAPE      H2X             6.8604024847       24.4317184417       13.4240529373  MEMB      32              0.0000000000
      3467        32  SAPE      H2Y             7.6634537189       23.2162375808       13.6106364401  MEMB      32              0.0000000000
      3468        32  SAPE      C23             2.6282731052       23.4062782061       14.5702028291  MEMB      32              0.0000000000
      3469        32  SAPE      H3R             3.1334504851       23.9735087735       13.7572734739  MEMB      32              0.0000000000
      3470        32  SAPE      H3S             1.6017679727       23.1876767703       14.1906513709  MEMB      32              0.0000000000
      3471        32  SAPE      C24             3.2991301201       22.0299001603       14.7934840590  MEMB      32              0.0000000000
      3472        32  SAPE      H4R             2.9757650973       21.4099253847       13.9267410086  MEMB      32              0.0000000000
      3473        32  SAPE      H4S             2.8391280042       21.5322766762       15.6684742949  MEMB      32              0.0000000000
      3474        32  SAPE      C25             4.8021292380       21.9810346487       14.9167040918  MEMB      32              0.0000000000
      3475        32  SAPE      H5R             5.2582796249       22.1920655695       15.8982752490  MEMB      32              0.0000000000
      3476        32  SAPE      C26             5.6096043531       21.7312047299       13.8825361444  MEMB      32              0.0000000000
      3477        32  SAPE      H6R             6.6962814788       21.6909481174       14.0539205021  MEMB      32              0.0000000000
      3478        32  SAPE      C27             5.1212092865       21.4795746043       12.4819792827  MEMB      32              0.0000000000
      3479        32  SAPE      H7R             4.5136054214       22.3510396860       12.1557756637  MEMB      32              0.0000000000
      3480        32  SAPE      H7S             4.4098732668       20.6184576231       12.4665706788  MEMB      32              0.0000000000
      3481        32  SAPE      C28             6.2672031132       21.2836998345       11.5204798913  MEMB      32              0.0000000000
      3482        32  SAPE      H8R             7.2407982070       21.0094448082       11.9564672159  MEMB      32              0.0000000000
      3483        32  SAPE      C29             6.2274384689       21.5391447277       10.2050407074  MEMB      32              0.0000000000
      3484        32  SAPE      H9R             7.1289925232       21.3533743305        9.6056744763  MEMB      32              0.0000000000
      3485        32  SAPE      C210            5.0477383015       22.0594537946        9.4346209169  MEMB      32              0.0000000000
      3486        32  SAPE      H10R            4.2599033085       22.5194265673       10.0773026063  MEMB      32              0.0000000000
      3487        32  SAPE      H10S            4.5778176702       21.1601556060        9.0653128512  MEMB      32              0.0000000000
      3488        32  SAPE      C211            5.3890448332       22.9601797590        8.2689500620  MEMB      32              0.0000000000
      3489        32  SAPE      H11R            5.5114005108       24.0160937161        8.5669825076  MEMB      32              0.0000000000
      3490        32  SAPE      C212            5.6330399157       22.6633914010        6.9644801064  MEMB      32              0.0000000000
      3491        32  SAPE      H12R            5.8499728948       23.5079163544        6.3076943593  MEMB      32              0.0000000000
      3492        32  SAPE      C213            5.6693672811       21.3765366539        6.1586981510  MEMB      32              0.0000000000
      3493        32  SAPE      H13R            5.0690334101       20.6117497867        6.5010152647  MEMB      32              0.0000000000
      3494        32  SAPE      H13S            6.6182819956       20.8278668330        6.3087979996  MEMB      32              0.0000000000
      3495        32  SAPE      C214            5.1306934172       21.3072987048        4.7662604882  MEMB      32              0.0000000000
      3496        32  SAPE      H14R            4.1006712632       20.9173726671        4.6454575068  MEMB      32              0.0000000000
      3497        32  SAPE      C215            5.8019775039       21.6745423716        3.6858447459  MEMB      32              0.0000000000
      3498        32  SAPE      H15R            5.3369596517       21.4670729643        2.7185518739  MEMB      32              0.0000000000
      3499        32  SAPE      C216            7.2021208021       22.2252066013        3.6752487700  MEMB      32              0.0000000000
      3500        32  SAPE      H16R            7.9070234580       21.4429097105        3.3245375994  MEMB      32              0.0000000000
      3501        32  SAPE      H16S            7.5232904851       22.5540315745        4.6880576019  MEMB      32              0.0000000000
      3502        32  SAPE      C217            7.3715198384       23.3471166457        2.6521645348  MEMB      32              0.0000000000
      3503        32  SAPE      H17R            8.3792306407       23.8165009596        2.7598367578  MEMB      32              0.0000000000
      3504        32  SAPE      H17S            6.6264591515       24.1557636473        2.8402040445  MEMB      32              0.0000000000
      3505        32  SAPE      C218            7.2621971148       22.7477421364        1.2350445881  MEMB      32              0.0000000000
      3506        32  SAPE      H18R            6.1845007036       22.5629244231        0.9950133269  MEMB      32              0.0000000000
      3507        32  SAPE      H18S            7.8432676636       21.8164077008        1.1418681753  MEMB      32              0.0000000000
      3508        32  SAPE      C219            7.7946574410       23.6424997301        0.1806235214  MEMB      32              0.0000000000
      3509        32  SAPE      H19R            7.4119051772       23.3154836005       -0.8260225233  MEMB      32              0.0000000000
      3510        32  SAPE      H19S            8.8783419861       23.8052965520        0.0490710157  MEMB      32              0.0000000000
      3511        32  SAPE      C220            7.2607368066       24.9453725149        0.5495392942  MEMB      32              0.0000000000
      3512        32  SAPE      H20R            6.2015178211       24.8120743546        0.2199418877  MEMB      32              0.0000000000
      3513        32  SAPE      H20S            7.9029102430       25.6461335812       -0.0361247130  MEMB      32              0.0000000000
      3514        32  SAPE      H20T            7.0310882304       25.4797940320        1.4630933591  MEMB      32              0.0000000000
      3515        32  SAPE      C33             9.1605567251       24.5209544680       12.7343210094  MEMB      32              0.0000000000
      3516        32  SAPE      H3X             9.9979622413       24.0278310884       13.2340989548  MEMB      32              0.0000000000
      3517        32  SAPE      H3Y             9.7004410793       25.4626305337       12.5542923630  MEMB      32              0.0000000000
      3518        32  SAPE      C34             9.1276203932       24.3851374023       11.1971714610  MEMB      32              0.0000000000
      3519        32  SAPE      H4X             8.6541329115       23.4066968636       11.0542305633  MEMB      32              0.0000000000
      3520        32  SAPE      H4Y            10.1989733416       24.4620960222       10.8728090799  MEMB      32              0.0000000000
      3521        32  SAPE      C35             8.4556982255       25.4423373293       10.3014417035  MEMB      32              0.0000000000
      3522        32  SAPE      H5X             8.7347689352       26.5140689966       10.3871085259  MEMB      32              0.0000000000
      3523        32  SAPE      H5Y             7.3924312232       25.2367329068       10.4667584474  MEMB      32              0.0000000000
      3524        32  SAPE      C36             8.5231361430       25.1787817372        8.8287100835  MEMB      32              0.0000000000
      3525        32  SAPE      H6X             7.9591814996       24.2283473560        8.7102539925  MEMB      32              0.0000000000
      3526        32  SAPE      H6Y             9.5917067719       25.0773067922        8.5742399399  MEMB      32              0.0000000000
      3527        32  SAPE      C37             7.8609120632       26.2090168420        7.9178113611  MEMB      32              0.0000000000
      3528        32  SAPE      H7X             8.1698878965       27.2524483193        8.1571802472  MEMB      32              0.0000000000
      3529        32  SAPE      H7Y             6.7592694758       26.1538562063        8.0435365176  MEMB      32              0.0000000000
      3530        32  SAPE      C38             8.1192925213       25.7501016151        6.4914793576  MEMB      32              0.0000000000
      3531        32  SAPE      H8X             7.7157650843       24.7112783604        6.4210769788  MEMB      32              0.0000000000
      3532        32  SAPE      H8Y             9.2025735569       25.7410153033        6.2651291575  MEMB      32              0.0000000000
      3533        32  SAPE      C39             7.4109397864       26.5435445907        5.4276008344  MEMB      32              0.0000000000
      3534        32  SAPE      H9X             7.6493568596       26.1161070770        4.4311349835  MEMB      32              0.0000000000
      3535        32  SAPE      H9Y             7.7745787891       27.5983322907        5.4737608879  MEMB      32              0.0000000000
      3536        32  SAPE      C310            5.9141693582       26.4856064621        5.6189977869  MEMB      32              0.0000000000
      3537        32  SAPE      H10X            5.7200132889       27.2378617906        6.3774394019  MEMB      32              0.0000000000
      3538        32  SAPE      H10Y            5.4169499814       25.5403974251        5.8767857939  MEMB      32              0.0000000000
      3539        32  SAPE      C311            5.2194821597       27.0626750014        4.4750870437  MEMB      32              0.0000000000
      3540        32  SAPE      H11X            5.5680716768       26.7170221724        3.4805318401  MEMB      32              0.0000000000
      3541        32  SAPE      H11Y            5.6576101367       28.0661536301        4.6171502711  MEMB      32              0.0000000000
      3542        32  SAPE      C312            3.7202880388       26.9821046434        4.6159726455  MEMB      32              0.0000000000
      3543        32  SAPE      H12X            3.2046444944       27.9539188934        4.8894876913  MEMB      32              0.0000000000
      3544        32  SAPE      H12Y            3.3041822469       26.1726355923        5.2268256969  MEMB      32              0.0000000000
      3545        32  SAPE      C313            3.2168023501       26.6468044364        3.2723837143  MEMB      32              0.0000000000
      3546        32  SAPE      H13X            3.7428470725       27.5354242543        2.8070084466  MEMB      32              0.0000000000
      3547        32  SAPE      H13Y            2.1008516292       26.7007337553        3.3759905217  MEMB      32              0.0000000000
      3548        32  SAPE      C314            3.5685177670       25.5713822838        2.2328455084  MEMB      32              0.0000000000
      3549        32  SAPE      H14X            3.3545461110       24.6546481237        2.7997247931  MEMB      32              0.0000000000
      3550        32  SAPE      H14Y            4.6383825231       25.7128270054        1.9628248296  MEMB      32              0.0000000000
      3551        32  SAPE      C315            2.6976926973       25.2891576803        0.9413896001  MEMB      32              0.0000000000
      3552        32  SAPE      H15X            1.6241736430       25.1423595095        1.0932189554  MEMB      32              0.0000000000
      3553        32  SAPE      H15Y            3.1960310524       24.4233014902        0.4471777224  MEMB      32              0.0000000000
      3554        32  SAPE      C316            2.6965923553       26.1835663148       -0.2371076305  MEMB      32              0.0000000000
      3555        32  SAPE      H16X            3.7697274797       26.5292219156       -0.2393394014  MEMB      32              0.0000000000
      3556        32  SAPE      H16Y            2.1708692964       27.1010690238       -0.1919248224  MEMB      32              0.0000000000
      3557        32  SAPE      C317            1.7510310438       26.0066044571       -1.5201268049  MEMB      32              0.0000000000
      3558        32  SAPE      H17X            1.4267025761       26.9938147536       -1.9371407123  MEMB      32              0.0000000000
      3559        32  SAPE      H17Y            0.7598789028       25.6621734520       -1.2434236152  MEMB      32              0.0000000000
      3560        32  SAPE      C318            2.3956401537       25.3354394986       -2.7116413258  MEMB      32              0.0000000000
      3561        32  SAPE      H18X            2.0468559839       25.3865059260       -3.7452299382  MEMB      32              0.0000000000
      3562        32  SAPE      H18Y            2.5033066335       24.2922981972       -2.3532970781  MEMB      32              0.0000000000
      3563        32  SAPE      H18Z            3.3799198098       25.8304146173       -2.8631498202  MEMB      32              0.0000000000
      3564        33  OSM       N             -13.7626275740       21.0636920194       21.9300285593  MEMB      33              0.0000000000
      3565        33  OSM       C15           -15.2290877673       21.3180413772       21.8713908076  MEMB      33              0.0000000000
      3566        33  OSM       H15A          -15.6183457427       21.4947838832       22.8632064927  MEMB      33              0.0000000000
      3567        33  OSM       H15B          -15.6891580688       20.4181858716       21.4556991462  MEMB      33              0.0000000000
      3568        33  OSM       H15C          -15.4637215068       22.1452496717       21.2207592548  MEMB      33              0.0000000000
      3569        33  OSM       C14           -13.0008214219       22.3421830976       22.0090539085  MEMB      33              0.0000000000
      3570        33  OSM       H14A          -13.2790450157       22.9362300810       22.8597260971  MEMB      33              0.0000000000
      3571        33  OSM       H14B          -13.1305035791       22.9218032587       21.0923664172  MEMB      33              0.0000000000
      3572        33  OSM       H14C          -11.9309861022       22.1460702943       22.0685778442  MEMB      33              0.0000000000
      3573        33  OSM       C13           -13.5104312572       20.2021094591       23.1427728713  MEMB      33              0.0000000000
      3574        33  OSM       H13A          -12.4904060609       19.8429633446       23.1182548565  MEMB      33              0.0000000000
      3575        33  OSM       H13B          -14.1835808657       19.3458926042       23.1247401307  MEMB      33              0.0000000000
      3576        33  OSM       H13C          -13.7006043584       20.7107090607       24.0757799458  MEMB      33              0.0000000000
      3577        33  OSM       C12           -13.3022758334       20.3667091284       20.6484735692  MEMB      33              0.0000000000
      3578        33  OSM       H12A          -12.2393282736       20.5501168083       20.4845954030  MEMB      33              0.0000000000
      3579        33  OSM       H12B          -13.7905128854       20.8269497266       19.7939399923  MEMB      33              0.0000000000
      3580        33  OSM       C11           -13.5346146936       18.8502060647       20.5357464138  MEMB      33              0.0000000000
      3581        33  OSM       H11A          -12.9339818425       18.3074740295       21.3009074745  MEMB      33              0.0000000000
      3582        33  OSM       H11B          -13.1474149568       18.5424138773       19.5307512921  MEMB      33              0.0000000000
      3583        33  OSM       P             -15.3278259839       17.0595072794       20.2602421425  MEMB      33              0.0000000000
      3584        33  OSM       O13           -14.1653867848       16.1836476512       20.5259595005  MEMB      33              0.0000000000
      3585        33  OSM       O14           -16.6307541663       16.7801168932       20.8918236541  MEMB      33              0.0000000000
      3586        33  OSM       O11           -15.4919904059       17.3046695014       18.7010673318  MEMB      33              0.0000000000
      3587        33  OSM       O12           -14.9183309378       18.5351855611       20.6942666048  MEMB      33              0.0000000000
      3588        33  OSM       C1S           -14.5940793718       16.6433973411       17.8106654365  MEMB      33              0.0000000000
      3589        33  OSM       H1S           -14.8011793091       15.5571666191       17.8960228928  MEMB      33              0.0000000000
      3590        33  OSM       H1T           -13.5249257665       16.7485683872       18.0943339407  MEMB      33              0.0000000000
      3591        33  OSM       NF            -14.2858164465       16.3686310375       15.3431962466  MEMB      33              0.0000000000
      3592        33  OSM       HNF           -13.5282349559       16.6192744792       14.7617109941  MEMB      33              0.0000000000
      3593        33  OSM       C2S           -14.7731196819       17.2152005113       16.3637329650  MEMB      33              0.0000000000
      3594        33  OSM       H2S           -15.8709659804       17.3099866262       16.1857365039  MEMB      33              0.0000000000
      3595        33  OSM       C3S           -14.0807026820       18.5707141154       16.1344229800  MEMB      33              0.0000000000
      3596        33  OSM       H3S           -12.9830584289       18.3676088692       16.1355039583  MEMB      33              0.0000000000
      3597        33  OSM       O3            -14.3508709248       19.5503414103       17.1237730726  MEMB      33              0.0000000000
      3598        33  OSM       HO3           -14.8898046839       19.0715650407       17.7666288951  MEMB      33              0.0000000000
      3599        33  OSM       C4S           -14.4942120597       19.1444959665       14.7875733011  MEMB      33              0.0000000000
      3600        33  OSM       H4S           -15.5441114881       19.4541469419       14.7626665927  MEMB      33              0.0000000000
      3601        33  OSM       C5S           -13.7329782059       19.3603500356       13.6887693625  MEMB      33              0.0000000000
      3602        33  OSM       H5S           -12.6652666373       19.0923150035       13.7311214038  MEMB      33              0.0000000000
      3603        33  OSM       C6S           -14.2082594945       19.9354504398       12.3610656764  MEMB      33              0.0000000000
      3604        33  OSM       H6S           -13.9903249021       19.1748459124       11.5851706840  MEMB      33              0.0000000000
      3605        33  OSM       H6T           -13.6077503216       20.8266482057       12.0603637965  MEMB      33              0.0000000000
      3606        33  OSM       C7S           -15.7156570504       20.2944202049       12.2428881107  MEMB      33              0.0000000000
      3607        33  OSM       H7S           -15.9260272862       21.1928272431       12.8711996835  MEMB      33              0.0000000000
      3608        33  OSM       H7T           -16.3308207163       19.4759720571       12.6693385316  MEMB      33              0.0000000000
      3609        33  OSM       C8S           -16.2630864804       20.5925054038       10.8195095654  MEMB      33              0.0000000000
      3610        33  OSM       H8S           -15.7609493270       21.4874854732       10.3973987583  MEMB      33              0.0000000000
      3611        33  OSM       H8T           -17.3413802270       20.8395039920       10.9584829454  MEMB      33              0.0000000000
      3612        33  OSM       C9S           -16.1898976217       19.4934670106        9.7372352202  MEMB      33              0.0000000000
      3613        33  OSM       H9S           -16.6422495626       18.5554435666       10.1197615237  MEMB      33              0.0000000000
      3614        33  OSM       H9T           -15.1328999273       19.2981152242        9.4568786617  MEMB      33              0.0000000000
      3615        33  OSM       C10S          -16.8925104795       19.9225003064        8.4352778825  MEMB      33              0.0000000000
      3616        33  OSM       H10S          -16.4453246534       20.8843071916        8.1020753801  MEMB      33              0.0000000000
      3617        33  OSM       H10T          -17.9785985769       20.0896955582        8.6197358009  MEMB      33              0.0000000000
      3618        33  OSM       C11S          -16.7405202650       18.9353904033        7.2705915575  MEMB      33              0.0000000000
      3619        33  OSM       H11S          -17.3372619385       18.0335751247        7.5284768345  MEMB      33              0.0000000000
      3620        33  OSM       H11T          -15.6770875449       18.6339474024        7.1313418880  MEMB      33              0.0000000000
      3621        33  OSM       C12S          -17.2506407944       19.5537083738        5.9623146720  MEMB      33              0.0000000000
      3622        33  OSM       H12S          -16.4891009141       20.2652062239        5.5660036820  MEMB      33              0.0000000000
      3623        33  OSM       H12T          -18.1692820481       20.1438771956        6.1830261587  MEMB      33              0.0000000000
      3624        33  OSM       C13S          -17.5584657086       18.5206999196        4.8687377155  MEMB      33              0.0000000000
      3625        33  OSM       H13S          -18.1037909401       17.6521506582        5.3039783191  MEMB      33              0.0000000000
      3626        33  OSM       H13T          -16.5782874952       18.1673295057        4.4813666749  MEMB      33              0.0000000000
      3627        33  OSM       C14S          -18.4165647437       19.1436076189        3.7529672750  MEMB      33              0.0000000000
      3628        33  OSM       H14S          -18.2985781916       20.2476314029        3.8331315803  MEMB      33              0.0000000000
      3629        33  OSM       H14T          -19.4865042612       18.9039159338        3.9480982787  MEMB      33              0.0000000000
      3630        33  OSM       C15S          -18.0714198046       18.7427930960        2.3123499768  MEMB      33              0.0000000000
      3631        33  OSM       H15S          -18.3873088475       17.6904927444        2.1259640877  MEMB      33              0.0000000000
      3632        33  OSM       H15T          -16.9730251843       18.8191910404        2.1427551146  MEMB      33              0.0000000000
      3633        33  OSM       C16S          -18.7749923322       19.6313314870        1.2808863285  MEMB      33              0.0000000000
      3634        33  OSM       H16S          -18.2615956217       20.6216397078        1.1894224012  MEMB      33              0.0000000000
      3635        33  OSM       H16T          -19.8337185282       19.7982229319        1.5388180071  MEMB      33              0.0000000000
      3636        33  OSM       C17S          -18.7229916570       19.0235491291       -0.0940911135  MEMB      33              0.0000000000
      3637        33  OSM       H17S          -19.2169830982       18.0520484147       -0.2869086587  MEMB      33              0.0000000000
      3638        33  OSM       H17T          -17.6604382796       18.7749486087       -0.1696494059  MEMB      33              0.0000000000
      3639        33  OSM       C18S          -19.1850070287       20.0143595664       -1.1205315141  MEMB      33              0.0000000000
      3640        33  OSM       H18S          -20.1168727812       20.5154447545       -0.8270169753  MEMB      33              0.0000000000
      3641        33  OSM       H18T          -19.3866947547       19.4206669272       -2.0409871658  MEMB      33              0.0000000000
      3642        33  OSM       H18U          -18.4437466314       20.8141702393       -1.3568692484  MEMB      33              0.0000000000
      3643        33  OSM       C1F           -14.7307517659       15.2104216264       15.1247189243  MEMB      33              0.0000000000
      3644        33  OSM       OF            -15.2853258875       14.5888951489       16.0253392636  MEMB      33              0.0000000000
      3645        33  OSM       C2F           -14.2413371200       14.7417919786       13.7609419838  MEMB      33              0.0000000000
      3646        33  OSM       H2F           -13.7442242463       13.9530036498       14.1188424046  MEMB      33              0.0000000000
      3647        33  OSM       H2G           -13.3851062059       15.3056515047       13.4180203481  MEMB      33              0.0000000000
      3648        33  OSM       C3F           -15.0134423499       14.3090391724       12.4931609912  MEMB      33              0.0000000000
      3649        33  OSM       H3F           -15.4674099321       13.3660025716       12.5005514714  MEMB      33              0.0000000000
      3650        33  OSM       H3G           -14.5801480363       13.6237351629       11.7446858360  MEMB      33              0.0000000000
      3651        33  OSM       C4F           -16.0013876395       15.3980149399       12.1774297574  MEMB      33              0.0000000000
      3652        33  OSM       H4F           -16.4302846516       15.8472330054       13.1063228810  MEMB      33              0.0000000000
      3653        33  OSM       H4G           -16.8693662672       15.1333464126       11.5418386497  MEMB      33              0.0000000000
      3654        33  OSM       C5F           -15.2111862975       16.3155521432       11.3885370615  MEMB      33              0.0000000000
      3655        33  OSM       H5F           -14.2456930338       16.3977343114       11.9213420619  MEMB      33              0.0000000000
      3656        33  OSM       H5G           -15.7821446675       17.2516619564       11.4473484743  MEMB      33              0.0000000000
      3657        33  OSM       C6F           -15.1104034482       15.7026727826        9.9988931094  MEMB      33              0.0000000000
      3658        33  OSM       H6F           -16.1043886953       15.7844324426        9.5196594623  MEMB      33              0.0000000000
      3659        33  OSM       H6G           -14.8708503797       14.6085556180       10.0191592695  MEMB      33              0.0000000000
      3660        33  OSM       C7F           -14.1285735820       16.4361349529        9.1331151214  MEMB      33              0.0000000000
      3661        33  OSM       H7F           -14.3481198687       17.5086904717        9.0300590568  MEMB      33              0.0000000000
      3662        33  OSM       H7G           -14.2091917534       16.0212196188        8.1037001785  MEMB      33              0.0000000000
      3663        33  OSM       C8F           -12.7223503308       16.3310674562        9.6688755145  MEMB      33              0.0000000000
      3664        33  OSM       H8F           -12.1621713190       16.6790460401        8.7846061691  MEMB      33              0.0000000000
      3665        33  OSM       H8G           -12.4624668744       15.2574466302        9.8538280228  MEMB      33              0.0000000000
      3666        33  OSM       C9F           -12.2111322968       17.1789465672       10.7991251193  MEMB      33              0.0000000000
      3667        33  OSM       H9F           -12.1600195626       16.6283500640       11.7456803399  MEMB      33              0.0000000000
      3668        33  OSM       C10F          -11.5784887077       18.3624221370       10.6749066243  MEMB      33              0.0000000000
      3669        33  OSM       H10F          -11.2044827998       18.8392842031       11.5924888366  MEMB      33              0.0000000000
      3670        33  OSM       C11F          -11.2536044986       19.0946324752        9.3844555758  MEMB      33              0.0000000000
      3671        33  OSM       H11F          -11.0621386385       20.1809082970        9.5659310157  MEMB      33              0.0000000000
      3672        33  OSM       H11G          -12.1292898112       19.0098501181        8.7114708407  MEMB      33              0.0000000000
      3673        33  OSM       C12F          -10.0111863395       18.6399601967        8.5996493949  MEMB      33              0.0000000000
      3674        33  OSM       H12F           -9.9224420890       17.5846983785        8.3974087957  MEMB      33              0.0000000000
      3675        33  OSM       H12G           -9.0855462053       18.8471662550        9.0989254811  MEMB      33              0.0000000000
      3676        33  OSM       C13F           -9.8706118465       19.2299939873        7.2497002047  MEMB      33              0.0000000000
      3677        33  OSM       H13F           -8.8140964933       19.1657593262        6.8624272008  MEMB      33              0.0000000000
      3678        33  OSM       H13G          -10.2772527104       20.2467815499        7.1739423146  MEMB      33              0.0000000000
      3679        33  OSM       C14F          -10.6177527708       18.3874554838        6.3404906184  MEMB      33              0.0000000000
      3680        33  OSM       H14F          -11.6939260800       18.1969006929        6.5567687338  MEMB      33              0.0000000000
      3681        33  OSM       H14G          -10.0924064057       17.3892630526        6.4409597412  MEMB      33              0.0000000000
      3682        33  OSM       C15F          -10.3873228286       19.0589767456        5.0012486488  MEMB      33              0.0000000000
      3683        33  OSM       H15F          -10.3144890559       18.1433562425        4.6325991715  MEMB      33              0.0000000000
      3684        33  OSM       H15G           -9.3917821647       19.1309384306        4.5290206772  MEMB      33              0.0000000000
      3685        33  OSM       C16F          -11.5322604653       19.9069967738        4.3931530910  MEMB      33              0.0000000000
      3686        33  OSM       H16F          -10.9808639657       20.5678031490        3.6890912006  MEMB      33              0.0000000000
      3687        33  OSM       H16G          -11.8853531243       20.4021597318        5.3124192540  MEMB      33              0.0000000000
      3688        33  OSM       C17F          -12.8175420102       19.4828295178        3.5919228269  MEMB      33              0.0000000000
      3689        33  OSM       H17F          -13.6382240824       20.1676688589        3.8734781987  MEMB      33              0.0000000000
      3690        33  OSM       H17G          -13.3035445161       18.5165656593        3.8620808332  MEMB      33              0.0000000000
      3691        33  OSM       C18F          -12.5973157532       19.5784606521        2.0665379122  MEMB      33              0.0000000000
      3692        33  OSM       H18F          -11.7242350497       18.9919105481        1.6994258903  MEMB      33              0.0000000000
      3693        33  OSM       H18G          -12.3618263354       20.6140546439        1.7736362754  MEMB      33              0.0000000000
      3694        33  OSM       H18H          -13.4966369134       19.2031455962        1.5333962548  MEMB      33              0.0000000000
      3695        34  OSM       N             -22.5339252896      -11.4358656466       20.9094055545  MEMB      34              0.0000000000
      3696        34  OSM       C15           -22.2436100315      -12.5165409753       19.9339915262  MEMB      34              0.0000000000
      3697        34  OSM       H15A          -21.4224649256      -13.1160234066       20.2832430691  MEMB      34              0.0000000000
      3698        34  OSM       H15B          -21.9877541284      -12.0840601450       18.9665944129  MEMB      34              0.0000000000
      3699        34  OSM       H15C          -23.0860667702      -13.1734932073       19.7713106256  MEMB      34              0.0000000000
      3700        34  OSM       C14           -23.8326194060      -10.7910862344       20.5112255901  MEMB      34              0.0000000000
      3701        34  OSM       H14A          -23.6650638609       -9.8078665863       20.0737010774  MEMB      34              0.0000000000
      3702        34  OSM       H14B          -24.4357149802      -10.5705231480       21.3869661383  MEMB      34              0.0000000000
      3703        34  OSM       H14C          -24.3824600737      -11.4105302064       19.8186476382  MEMB      34              0.0000000000
      3704        34  OSM       C13           -22.6822436827      -11.9397727217       22.3112440637  MEMB      34              0.0000000000
      3705        34  OSM       H13A          -21.7487974064      -12.3288506127       22.7028052486  MEMB      34              0.0000000000
      3706        34  OSM       H13B          -23.4380711259      -12.7030308060       22.3757459693  MEMB      34              0.0000000000
      3707        34  OSM       H13C          -22.9742361095      -11.0914861058       22.9403373010  MEMB      34              0.0000000000
      3708        34  OSM       C12           -21.3690013729      -10.4568621622       20.8736823496  MEMB      34              0.0000000000
      3709        34  OSM       H12A          -21.2083904511      -10.0717864296       19.8735939289  MEMB      34              0.0000000000
      3710        34  OSM       H12B          -20.4756141812      -11.0102825860       21.1315273306  MEMB      34              0.0000000000
      3711        34  OSM       C11           -21.4502852502       -9.2250674572       21.7925629857  MEMB      34              0.0000000000
      3712        34  OSM       H11A          -20.5163270187       -8.6536617994       21.7059365911  MEMB      34              0.0000000000
      3713        34  OSM       H11B          -21.5042940722       -9.5903589811       22.8463956396  MEMB      34              0.0000000000
      3714        34  OSM       P             -22.4177510041       -6.8632610306       20.9860945093  MEMB      34              0.0000000000
      3715        34  OSM       O13           -23.7117340401       -6.2129223310       21.1969939802  MEMB      34              0.0000000000
      3716        34  OSM       O14           -21.1759529806       -6.2728767164       21.5463319549  MEMB      34              0.0000000000
      3717        34  OSM       O11           -22.1434773925       -6.9904018818       19.4108712341  MEMB      34              0.0000000000
      3718        34  OSM       O12           -22.5496211197       -8.3904749069       21.4426003730  MEMB      34              0.0000000000
      3719        34  OSM       C1S           -22.7550015824       -8.0135973495       18.6392042942  MEMB      34              0.0000000000
      3720        34  OSM       H1S           -23.8115719834       -8.1486467190       18.9531170496  MEMB      34              0.0000000000
      3721        34  OSM       H1T           -22.2411879658       -8.9859837653       18.7914544563  MEMB      34              0.0000000000
      3722        34  OSM       NF            -23.4977788264       -8.6459299810       16.4217442043  MEMB      34              0.0000000000
      3723        34  OSM       HNF           -22.9844876536       -9.1776745687       15.7559650943  MEMB      34              0.0000000000
      3724        34  OSM       C2S           -22.7618509693       -7.6576306536       17.1277809944  MEMB      34              0.0000000000
      3725        34  OSM       H2S           -23.2708413118       -6.6753394575       16.9809971276  MEMB      34              0.0000000000
      3726        34  OSM       C3S           -21.3621418493       -7.5722362093       16.4990338371  MEMB      34              0.0000000000
      3727        34  OSM       H3S           -20.8911002704       -8.5719018043       16.5719277006  MEMB      34              0.0000000000
      3728        34  OSM       O3            -20.4825337039       -6.7282782749       17.2039020921  MEMB      34              0.0000000000
      3729        34  OSM       HO3           -21.0205591056       -6.3962106908       17.9397234374  MEMB      34              0.0000000000
      3730        34  OSM       C4S           -21.6117593982       -7.2520319114       15.0231836243  MEMB      34              0.0000000000
      3731        34  OSM       H4S           -21.9125938456       -6.2256345942       14.7508346520  MEMB      34              0.0000000000
      3732        34  OSM       C5S           -21.3711613081       -8.1525295707       14.0537872821  MEMB      34              0.0000000000
      3733        34  OSM       H5S           -20.7348708798       -9.0007748547       14.3267579568  MEMB      34              0.0000000000
      3734        34  OSM       C6S           -21.6168151833       -7.9890096613       12.5857285381  MEMB      34              0.0000000000
      3735        34  OSM       H6S           -22.0739926585       -7.0034653645       12.4453069514  MEMB      34              0.0000000000
      3736        34  OSM       H6T           -22.5268401531       -8.5560908625       12.3280481720  MEMB      34              0.0000000000
      3737        34  OSM       C7S           -20.5233992652       -8.4891237339       11.5918099964  MEMB      34              0.0000000000
      3738        34  OSM       H7S           -19.5330265623       -8.0419502452       11.8076759441  MEMB      34              0.0000000000
      3739        34  OSM       H7T           -20.7348934976       -8.2211651226       10.5319625016  MEMB      34              0.0000000000
      3740        34  OSM       C8S           -20.3689490675      -10.0114409668       11.6656797187  MEMB      34              0.0000000000
      3741        34  OSM       H8S           -20.1914223493      -10.2549303994       12.7376658737  MEMB      34              0.0000000000
      3742        34  OSM       H8T           -19.4770596369      -10.3462366696       11.0963459765  MEMB      34              0.0000000000
      3743        34  OSM       C9S           -21.5596413865      -10.7989578590       11.0937581768  MEMB      34              0.0000000000
      3744        34  OSM       H9S           -22.5312069399      -10.3501161108       11.3910494141  MEMB      34              0.0000000000
      3745        34  OSM       H9T           -21.5207125149      -11.8276380464       11.5159690748  MEMB      34              0.0000000000
      3746        34  OSM       C10S          -21.4793965008      -10.9974108473        9.5678618615  MEMB      34              0.0000000000
      3747        34  OSM       H10S          -20.6122401210      -11.6707432634        9.3737061607  MEMB      34              0.0000000000
      3748        34  OSM       H10T          -21.2572551920      -10.0248680226        9.0773172669  MEMB      34              0.0000000000
      3749        34  OSM       C11S          -22.7759653434      -11.6266529202        9.0178883327  MEMB      34              0.0000000000
      3750        34  OSM       H11S          -23.6263725604      -10.9527477629        9.2633398605  MEMB      34              0.0000000000
      3751        34  OSM       H11T          -22.9850964680      -12.5651086026        9.5776350712  MEMB      34              0.0000000000
      3752        34  OSM       C12S          -22.8025939777      -11.9677040053        7.5116469212  MEMB      34              0.0000000000
      3753        34  OSM       H12S          -23.8348445990      -12.3328791615        7.3015045496  MEMB      34              0.0000000000
      3754        34  OSM       H12T          -22.1000801395      -12.7950300200        7.2663829724  MEMB      34              0.0000000000
      3755        34  OSM       C13S          -22.4491668476      -10.8026837591        6.5769708396  MEMB      34              0.0000000000
      3756        34  OSM       H13S          -21.3754767624      -10.5594044332        6.6772866437  MEMB      34              0.0000000000
      3757        34  OSM       H13T          -23.0654628500       -9.9178314974        6.8636444511  MEMB      34              0.0000000000
      3758        34  OSM       C14S          -22.7035029151      -11.0971995858        5.1059953884  MEMB      34              0.0000000000
      3759        34  OSM       H14S          -22.1408096236      -11.9695561282        4.7088244735  MEMB      34              0.0000000000
      3760        34  OSM       H14T          -22.4308873885      -10.1968069693        4.5023026656  MEMB      34              0.0000000000
      3761        34  OSM       C15S          -24.1644601830      -11.3929838368        4.9697755367  MEMB      34              0.0000000000
      3762        34  OSM       H15S          -24.6906429711      -10.5881235286        5.5150245376  MEMB      34              0.0000000000
      3763        34  OSM       H15T          -24.4520073997      -12.3859071589        5.3827399014  MEMB      34              0.0000000000
      3764        34  OSM       C16S          -24.5962954137      -11.3419093021        3.5661086367  MEMB      34              0.0000000000
      3765        34  OSM       H16S          -24.6663415214      -10.3325717739        3.1631988576  MEMB      34              0.0000000000
      3766        34  OSM       H16T          -25.6216225282      -11.8090890366        3.4986526276  MEMB      34              0.0000000000
      3767        34  OSM       C17S          -23.6385951909      -12.0219900075        2.6763143283  MEMB      34              0.0000000000
      3768        34  OSM       H17S          -23.8118950929      -13.0331495551        3.0618050335  MEMB      34              0.0000000000
      3769        34  OSM       H17T          -22.5842566875      -11.8164473069        2.5395685262  MEMB      34              0.0000000000
      3770        34  OSM       C18S          -24.1201243140      -11.6612688297        1.3730326790  MEMB      34              0.0000000000
      3771        34  OSM       H18S          -25.1024881900      -12.0310010107        1.6492001344  MEMB      34              0.0000000000
      3772        34  OSM       H18T          -23.6573868986      -12.0949982239        0.4845560300  MEMB      34              0.0000000000
      3773        34  OSM       H18U          -24.6186975910      -10.7746999094        1.0736042074  MEMB      34              0.0000000000
      3774        34  OSM       C1F           -24.7614249872       -8.8705709819       16.5480955769  MEMB      34              0.0000000000
      3775        34  OSM       OF            -25.4764815153       -8.3545399814       17.3916935422  MEMB      34              0.0000000000
      3776        34  OSM       C2F           -25.2173539109       -9.8375350288       15.5695166993  MEMB      34              0.0000000000
      3777        34  OSM       H2F           -25.6362673059      -10.7193085827       16.1003926754  MEMB      34              0.0000000000
      3778        34  OSM       H2G           -24.4307579606      -10.1535095925       14.8564351986  MEMB      34              0.0000000000
      3779        34  OSM       C3F           -26.3102456687       -9.1899487733       14.7842588101  MEMB      34              0.0000000000
      3780        34  OSM       H3F           -27.0728002527       -8.8783996275       15.5482641932  MEMB      34              0.0000000000
      3781        34  OSM       H3G           -26.5555489544      -10.0270206117       14.0875004923  MEMB      34              0.0000000000
      3782        34  OSM       C4F           -26.1176767394       -8.0838134975       13.7862467263  MEMB      34              0.0000000000
      3783        34  OSM       H4F           -25.2864977219       -7.4878049973       14.1983511217  MEMB      34              0.0000000000
      3784        34  OSM       H4G           -27.0655758607       -7.4916176964       13.7642287999  MEMB      34              0.0000000000
      3785        34  OSM       C5F           -25.7669929769       -8.6340012051       12.3933646249  MEMB      34              0.0000000000
      3786        34  OSM       H5F           -26.6042477722       -9.1691992405       11.8843901848  MEMB      34              0.0000000000
      3787        34  OSM       H5G           -25.0212251913       -9.4389352543       12.5947848405  MEMB      34              0.0000000000
      3788        34  OSM       C6F           -24.9437885297       -7.5937126942       11.5946088573  MEMB      34              0.0000000000
      3789        34  OSM       H6F           -24.4167210559       -8.0796538985       10.7474250616  MEMB      34              0.0000000000
      3790        34  OSM       H6G           -24.2816283873       -7.1499590126       12.3488933129  MEMB      34              0.0000000000
      3791        34  OSM       C7F           -25.6212320290       -6.3287579761       11.0634301712  MEMB      34              0.0000000000
      3792        34  OSM       H7F           -26.2487589045       -5.8494899280       11.8211322023  MEMB      34              0.0000000000
      3793        34  OSM       H7G           -26.0794833010       -7.1053071342       10.4516144718  MEMB      34              0.0000000000
      3794        34  OSM       C8F           -25.5577512093       -5.6144983012        9.7028885758  MEMB      34              0.0000000000
      3795        34  OSM       H8F           -26.2114855184       -4.7784163963        9.4824279319  MEMB      34              0.0000000000
      3796        34  OSM       H8G           -25.6274431700       -6.3538014830        8.8350201401  MEMB      34              0.0000000000
      3797        34  OSM       C9F           -24.3458211467       -5.0995022651       10.1161991191  MEMB      34              0.0000000000
      3798        34  OSM       H9F           -24.1106403656       -4.3956801320       10.9306552083  MEMB      34              0.0000000000
      3799        34  OSM       C10F          -23.4886219484       -5.6047658061        9.3923033671  MEMB      34              0.0000000000
      3800        34  OSM       H10F          -22.6898726307       -5.4435316085       10.1042416374  MEMB      34              0.0000000000
      3801        34  OSM       C11F          -23.4655339740       -6.5870475829        8.1978577698  MEMB      34              0.0000000000
      3802        34  OSM       H11F          -23.6936158112       -7.6591724943        8.3353847653  MEMB      34              0.0000000000
      3803        34  OSM       H11G          -22.4647434728       -6.9875880386        8.0351827490  MEMB      34              0.0000000000
      3804        34  OSM       C12F          -24.0147774453       -5.9385896454        6.8622673118  MEMB      34              0.0000000000
      3805        34  OSM       H12F          -23.4881198115       -5.0038576927        6.4795619378  MEMB      34              0.0000000000
      3806        34  OSM       H12G          -25.0198818384       -5.5673518066        6.9852421914  MEMB      34              0.0000000000
      3807        34  OSM       C13F          -23.8932997835       -7.0055976246        5.7904928180  MEMB      34              0.0000000000
      3808        34  OSM       H13F          -23.9233475691       -8.0871537097        5.8673071313  MEMB      34              0.0000000000
      3809        34  OSM       H13G          -22.8779148387       -7.0772481679        6.1632283604  MEMB      34              0.0000000000
      3810        34  OSM       C14F          -24.2522305661       -6.6431341453        4.3386800099  MEMB      34              0.0000000000
      3811        34  OSM       H14F          -23.7917595924       -5.7305438706        3.9856683330  MEMB      34              0.0000000000
      3812        34  OSM       H14G          -25.3142244317       -6.3645221814        4.3741289033  MEMB      34              0.0000000000
      3813        34  OSM       C15F          -23.9868503469       -7.7490004899        3.2798508570  MEMB      34              0.0000000000
      3814        34  OSM       H15F          -24.5288537304       -8.5934070863        3.5846055613  MEMB      34              0.0000000000
      3815        34  OSM       H15G          -23.0005355617       -8.2322314307        3.2531203251  MEMB      34              0.0000000000
      3816        34  OSM       C16F          -24.4164515626       -7.3479303979        1.8855670777  MEMB      34              0.0000000000
      3817        34  OSM       H16F          -23.7693318960       -6.5322041598        1.6881548917  MEMB      34              0.0000000000
      3818        34  OSM       H16G          -25.4272331118       -6.9096109542        1.9075418118  MEMB      34              0.0000000000
      3819        34  OSM       C17F          -24.0180886054       -8.1728101019        0.6609729239  MEMB      34              0.0000000000
      3820        34  OSM       H17F          -24.0698921940       -9.1858486639        0.9025178732  MEMB      34              0.0000000000
      3821        34  OSM       H17G          -22.9605433406       -8.0396084103        0.3870654972  MEMB      34              0.0000000000
      3822        34  OSM       C18F          -24.9598462358       -8.1296341823       -0.4960797168  MEMB      34              0.0000000000
      3823        34  OSM       H18F          -25.8668666086       -7.5971756739       -0.2481077632  MEMB      34              0.0000000000
      3824        34  OSM       H18G          -24.6806576418       -8.6123647050       -1.4181035853  MEMB      34              0.0000000000
      3825        34  OSM       H18H          -24.9235696395       -7.3676461776       -1.2452646926  MEMB      34              0.0000000000
      3826        35  OSM       N             -19.0539743903      -16.5477687844       22.7015040335  MEMB      35              0.0000000000
      3827        35  OSM       C15           -17.6801254223      -16.0265863232       23.0110372070  MEMB      35              0.0000000000
      3828        35  OSM       H15A          -16.9964184600      -16.0839061092       22.1557150849  MEMB      35              0.0000000000
      3829        35  OSM       H15B          -17.2159940218      -16.5626288012       23.8259383341  MEMB      35              0.0000000000
      3830        35  OSM       H15C          -17.6822549726      -14.9683822048       23.2578690471  MEMB      35              0.0000000000
      3831        35  OSM       C14           -18.9524562680      -17.9793070160       22.2887676549  MEMB      35              0.0000000000
      3832        35  OSM       H14A          -18.4583001524      -18.5795080611       23.0402549571  MEMB      35              0.0000000000
      3833        35  OSM       H14B          -18.3476133199      -18.0975945870       21.3716174522  MEMB      35              0.0000000000
      3834        35  OSM       H14C          -19.9124805686      -18.3943508557       22.0328437056  MEMB      35              0.0000000000
      3835        35  OSM       C13           -19.8309898288      -16.3984926635       23.9682024894  MEMB      35              0.0000000000
      3836        35  OSM       H13A          -20.7297154555      -16.9922817286       23.9898341917  MEMB      35              0.0000000000
      3837        35  OSM       H13B          -20.1057558463      -15.3640465946       24.1172192740  MEMB      35              0.0000000000
      3838        35  OSM       H13C          -19.2277307201      -16.6655157058       24.8370977061  MEMB      35              0.0000000000
      3839        35  OSM       C12           -19.7456328944      -15.7444154122       21.6033401644  MEMB      35              0.0000000000
      3840        35  OSM       H12A          -19.8379768232      -14.7320113342       21.9646214754  MEMB      35              0.0000000000
      3841        35  OSM       H12B          -20.7417424314      -16.1474977659       21.5106969712  MEMB      35              0.0000000000
      3842        35  OSM       C11           -19.1795260064      -15.6905374154       20.1504285766  MEMB      35              0.0000000000
      3843        35  OSM       H11A          -19.6426185562      -14.8319773335       19.6118625480  MEMB      35              0.0000000000
      3844        35  OSM       H11B          -19.5128254876      -16.5931855741       19.5812791274  MEMB      35              0.0000000000
      3845        35  OSM       P             -16.7911597476      -16.6179596459       19.5090623844  MEMB      35              0.0000000000
      3846        35  OSM       O13           -15.4270138654      -16.3654069317       19.9958010996  MEMB      35              0.0000000000
      3847        35  OSM       O14           -17.4234523997      -17.9294526282       19.7443483277  MEMB      35              0.0000000000
      3848        35  OSM       O11           -16.8540029791      -16.2859336095       17.9737588190  MEMB      35              0.0000000000
      3849        35  OSM       O12           -17.7686858211      -15.5095753472       20.1302362290  MEMB      35              0.0000000000
      3850        35  OSM       C1S           -16.7640296430      -14.9403377346       17.5073800699  MEMB      35              0.0000000000
      3851        35  OSM       H1S           -15.7555494977      -14.5089233468       17.7344835276  MEMB      35              0.0000000000
      3852        35  OSM       H1T           -17.5626663009      -14.3267306937       17.9370149069  MEMB      35              0.0000000000
      3853        35  OSM       NF            -15.5809898043      -15.2521978843       15.5288970588  MEMB      35              0.0000000000
      3854        35  OSM       HNF           -15.0010873667      -14.8689572659       14.9002942046  MEMB      35              0.0000000000
      3855        35  OSM       C2S           -16.8307081439      -14.7820516852       15.9747856731  MEMB      35              0.0000000000
      3856        35  OSM       H2S           -17.7911129982      -15.3050577651       15.5980293521  MEMB      35              0.0000000000
      3857        35  OSM       C3S           -16.8855315410      -13.3638920949       15.5765194186  MEMB      35              0.0000000000
      3858        35  OSM       H3S           -15.8843540517      -12.9843489028       15.8912394542  MEMB      35              0.0000000000
      3859        35  OSM       O3            -17.9214223598      -12.6533795434       16.2144325546  MEMB      35              0.0000000000
      3860        35  OSM       HO3           -18.0990655861      -13.2288731605       16.9592875630  MEMB      35              0.0000000000
      3861        35  OSM       C4S           -16.9141375034      -13.2874840021       14.0738006853  MEMB      35              0.0000000000
      3862        35  OSM       H4S           -15.9106624797      -13.2088538588       13.6339283660  MEMB      35              0.0000000000
      3863        35  OSM       C5S           -17.9746690318      -13.3533643623       13.2679869554  MEMB      35              0.0000000000
      3864        35  OSM       H5S           -18.9644422746      -13.5772729446       13.7016499684  MEMB      35              0.0000000000
      3865        35  OSM       C6S           -17.9117629013      -13.2472833992       11.7756500970  MEMB      35              0.0000000000
      3866        35  OSM       H6S           -18.5186930939      -12.3544347638       11.5006086774  MEMB      35              0.0000000000
      3867        35  OSM       H6T           -18.4133027309      -14.1492450547       11.3759270712  MEMB      35              0.0000000000
      3868        35  OSM       C7S           -16.5419701650      -13.0744335993       11.0654600582  MEMB      35              0.0000000000
      3869        35  OSM       H7S           -15.8407424811      -13.8509063356       11.4238167296  MEMB      35              0.0000000000
      3870        35  OSM       H7T           -16.0879028919      -12.0944386499       11.3472691252  MEMB      35              0.0000000000
      3871        35  OSM       C8S           -16.6714754299      -13.1251686384        9.5219699957  MEMB      35              0.0000000000
      3872        35  OSM       H8S           -15.8280200056      -12.5568876621        9.0687820212  MEMB      35              0.0000000000
      3873        35  OSM       H8T           -17.6007947523      -12.5805399790        9.2461971819  MEMB      35              0.0000000000
      3874        35  OSM       C9S           -16.6794000928      -14.5566677170        8.9273639542  MEMB      35              0.0000000000
      3875        35  OSM       H9S           -17.4208527876      -15.1870438492        9.4662902653  MEMB      35              0.0000000000
      3876        35  OSM       H9T           -15.6821608166      -15.0068693276        9.1181088268  MEMB      35              0.0000000000
      3877        35  OSM       C10S          -16.9259898560      -14.6912213949        7.4061268913  MEMB      35              0.0000000000
      3878        35  OSM       H10S          -17.2222421298      -15.7390335648        7.1631860355  MEMB      35              0.0000000000
      3879        35  OSM       H10T          -15.9796971201      -14.4935354254        6.8595300104  MEMB      35              0.0000000000
      3880        35  OSM       C11S          -18.0346275902      -13.7919260523        6.8505729949  MEMB      35              0.0000000000
      3881        35  OSM       H11S          -17.7391613881      -12.7287736731        6.9840939821  MEMB      35              0.0000000000
      3882        35  OSM       H11T          -18.9306482121      -13.9896710351        7.4865650483  MEMB      35              0.0000000000
      3883        35  OSM       C12S          -18.3686581017      -14.0985884934        5.3700544856  MEMB      35              0.0000000000
      3884        35  OSM       H12S          -19.4637329157      -13.9790928715        5.2122677836  MEMB      35              0.0000000000
      3885        35  OSM       H12T          -18.1348593253      -15.1669510981        5.1619685279  MEMB      35              0.0000000000
      3886        35  OSM       C13S          -17.6635744586      -13.1918057914        4.3379661945  MEMB      35              0.0000000000
      3887        35  OSM       H13S          -16.6859011980      -12.8412082510        4.7438908227  MEMB      35              0.0000000000
      3888        35  OSM       H13T          -18.2920252803      -12.2973042696        4.1540009631  MEMB      35              0.0000000000
      3889        35  OSM       C14S          -17.2755194387      -13.8752364324        3.0181525506  MEMB      35              0.0000000000
      3890        35  OSM       H14S          -16.8703176934      -14.8753627460        3.2576193231  MEMB      35              0.0000000000
      3891        35  OSM       H14T          -16.4418052458      -13.2980377976        2.5596268117  MEMB      35              0.0000000000
      3892        35  OSM       C15S          -18.3456094855      -14.0212647985        1.9394819541  MEMB      35              0.0000000000
      3893        35  OSM       H15S          -18.9002617205      -13.0759857998        1.7466584520  MEMB      35              0.0000000000
      3894        35  OSM       H15T          -19.0507881413      -14.8294871297        2.2391184151  MEMB      35              0.0000000000
      3895        35  OSM       C16S          -17.6922345827      -14.4794383433        0.6405431427  MEMB      35              0.0000000000
      3896        35  OSM       H16S          -16.9642161684      -15.2737006619        0.9137156831  MEMB      35              0.0000000000
      3897        35  OSM       H16T          -17.1428314802      -13.6445177904        0.1476537615  MEMB      35              0.0000000000
      3898        35  OSM       C17S          -18.7281145233      -15.0102793176       -0.3218785129  MEMB      35              0.0000000000
      3899        35  OSM       H17S          -19.4647559381      -14.1913466281       -0.5161114040  MEMB      35              0.0000000000
      3900        35  OSM       H17T          -19.2959147783      -15.8728252101        0.1045942795  MEMB      35              0.0000000000
      3901        35  OSM       C18S          -18.1452329457      -15.4019226986       -1.6623007206  MEMB      35              0.0000000000
      3902        35  OSM       H18S          -17.7492900467      -14.5175481810       -2.2002924213  MEMB      35              0.0000000000
      3903        35  OSM       H18T          -19.0032931795      -15.7392004689       -2.2116523963  MEMB      35              0.0000000000
      3904        35  OSM       H18U          -17.4507193388      -16.2623219815       -1.6614616189  MEMB      35              0.0000000000
      3905        35  OSM       C1F           -15.4256820012      -16.3742943461       15.3531377487  MEMB      35              0.0000000000
      3906        35  OSM       OF            -16.6044072305      -16.9257346702       15.4513055453  MEMB      35              0.0000000000
      3907        35  OSM       C2F           -13.7749208994      -17.1407026670       14.3638238494  MEMB      35              0.0000000000
      3908        35  OSM       H2F           -13.1301576835      -17.6645031415       14.9444365073  MEMB      35              0.0000000000
      3909        35  OSM       H2G           -13.2785359719      -16.2970700309       14.0449158054  MEMB      35              0.0000000000
      3910        35  OSM       C3F           -14.4670661318      -18.6708597053       12.8868147303  MEMB      35              0.0000000000
      3911        35  OSM       H3F           -15.6093820217      -19.1967018696       13.1880476210  MEMB      35              0.0000000000
      3912        35  OSM       H3G           -13.8901247794      -19.5274002984       12.8888373736  MEMB      35              0.0000000000
      3913        35  OSM       C4F           -16.1481084076      -18.8005825663       12.4258355136  MEMB      35              0.0000000000
      3914        35  OSM       H4F           -15.2567001429      -18.5573296820       11.8162328441  MEMB      35              0.0000000000
      3915        35  OSM       H4G           -16.9350440232      -17.9087246107       12.5348541576  MEMB      35              0.0000000000
      3916        35  OSM       C5F           -16.9932561193      -19.0720142190       11.3089665268  MEMB      35              0.0000000000
      3917        35  OSM       H5F           -17.6880266645      -18.2991758467       10.9127205172  MEMB      35              0.0000000000
      3918        35  OSM       H5G           -17.5164715352      -19.6000095770       12.1334903491  MEMB      35              0.0000000000
      3919        35  OSM       C6F           -16.2230109539      -19.7147208767       10.2636722968  MEMB      35              0.0000000000
      3920        35  OSM       H6F           -16.6873662136      -20.5084098390        9.8782142882  MEMB      35              0.0000000000
      3921        35  OSM       H6G           -15.3238877942      -20.1998108119       10.7240980926  MEMB      35              0.0000000000
      3922        35  OSM       C7F           -16.3005413855      -19.0348109342        8.8978694898  MEMB      35              0.0000000000
      3923        35  OSM       H7F           -15.3945177748      -19.6607963821        8.7170193828  MEMB      35              0.0000000000
      3924        35  OSM       H7G           -16.1159074032      -17.9470321886        8.8786316441  MEMB      35              0.0000000000
      3925        35  OSM       C8F           -16.6263105517      -19.3184880005        7.5296720449  MEMB      35              0.0000000000
      3926        35  OSM       H8F           -16.1443779639      -20.2479045060        7.1911260328  MEMB      35              0.0000000000
      3927        35  OSM       H8G           -16.1752259706      -18.4590372946        6.9569365896  MEMB      35              0.0000000000
      3928        35  OSM       C9F           -18.0667369602      -19.2419821738        7.8891120793  MEMB      35              0.0000000000
      3929        35  OSM       H9F           -18.3411871427      -18.5893293926        8.7354048261  MEMB      35              0.0000000000
      3930        35  OSM       C10F          -18.9886475975      -19.7784492023        7.1171190351  MEMB      35              0.0000000000
      3931        35  OSM       H10F          -20.0374519515      -19.6021300185        7.2591073220  MEMB      35              0.0000000000
      3932        35  OSM       C11F          -18.6708019914      -20.4686757105        5.8677041634  MEMB      35              0.0000000000
      3933        35  OSM       H11F          -18.8505010090      -21.5587168662        5.9944174199  MEMB      35              0.0000000000
      3934        35  OSM       H11G          -17.6307662147      -20.1981265224        5.6845802455  MEMB      35              0.0000000000
      3935        35  OSM       C12F          -19.0795961775      -19.9103859228        4.5278050865  MEMB      35              0.0000000000
      3936        35  OSM       H12F          -20.1746382827      -19.8493622461        4.5619735034  MEMB      35              0.0000000000
      3937        35  OSM       H12G          -18.8243128806      -20.5873621683        3.6963903399  MEMB      35              0.0000000000
      3938        35  OSM       C13F          -18.3218278745      -18.6073033647        4.2012479695  MEMB      35              0.0000000000
      3939        35  OSM       H13F          -18.3791337286      -17.9283817719        5.0774603850  MEMB      35              0.0000000000
      3940        35  OSM       H13G          -18.9041424109      -18.1761230981        3.3666482905  MEMB      35              0.0000000000
      3941        35  OSM       C14F          -16.8533388097      -18.7603322954        3.7062471818  MEMB      35              0.0000000000
      3942        35  OSM       H14F          -16.7256928287      -19.7542971275        3.2690760101  MEMB      35              0.0000000000
      3943        35  OSM       H14G          -16.1046326435      -18.7143299277        4.5240166463  MEMB      35              0.0000000000
      3944        35  OSM       C15F          -16.4303286941      -17.7737443594        2.6094900253  MEMB      35              0.0000000000
      3945        35  OSM       H15F          -16.5830177330      -16.7637261392        3.0187287767  MEMB      35              0.0000000000
      3946        35  OSM       H15G          -17.0756817834      -17.9023696841        1.7119552205  MEMB      35              0.0000000000
      3947        35  OSM       C16F          -14.9657140032      -17.9419635286        2.1765211481  MEMB      35              0.0000000000
      3948        35  OSM       H16F          -14.8651351494      -18.9790818132        1.7833289655  MEMB      35              0.0000000000
      3949        35  OSM       H16G          -14.2867320148      -17.8378625948        3.0532314665  MEMB      35              0.0000000000
      3950        35  OSM       C17F          -14.5249208023      -16.9691409139        1.0664411464  MEMB      35              0.0000000000
      3951        35  OSM       H17F          -15.2677777087      -16.9335229448        0.2524191120  MEMB      35              0.0000000000
      3952        35  OSM       H17G          -13.6604527313      -17.3803653638        0.5476084399  MEMB      35              0.0000000000
      3953        35  OSM       C18F          -14.0920613990      -15.5929575435        1.5684933455  MEMB      35              0.0000000000
      3954        35  OSM       H18F          -13.4921378859      -15.0263337949        0.8211097002  MEMB      35              0.0000000000
      3955        35  OSM       H18G          -13.4695376674      -15.7287340988        2.4798150176  MEMB      35              0.0000000000
      3956        35  OSM       H18H          -14.9805856135      -14.9998528890        1.8335284245  MEMB      35              0.0000000000
      3957        36  CHL1      C3              1.6674980549      -24.9090846582       17.3645532590  MEMB      36              0.0000000000
      3958        36  CHL1      H3              0.9057852642      -24.2261764901       16.9061981767  MEMB      36              0.0000000000
      3959        36  CHL1      O3              1.9708457030      -24.4946101426       18.6823237768  MEMB      36              0.0000000000
      3960        36  CHL1      H3'             2.5393196640      -23.7118964031       18.5943335226  MEMB      36              0.0000000000
      3961        36  CHL1      C4              1.1141695084      -26.3332543851       17.4270309044  MEMB      36              0.0000000000
      3962        36  CHL1      H4A             1.7894196747      -26.9922878097       18.0087310809  MEMB      36              0.0000000000
      3963        36  CHL1      H4B             0.1784279398      -26.2355263532       18.0121675316  MEMB      36              0.0000000000
      3964        36  CHL1      C5              0.9385701380      -26.9124639856       16.0395173551  MEMB      36              0.0000000000
      3965        36  CHL1      C6             -0.1391967219      -27.4996678823       15.6005139297  MEMB      36              0.0000000000
      3966        36  CHL1      H6             -0.9259887959      -27.6278325146       16.3181207228  MEMB      36              0.0000000000
      3967        36  CHL1      C7             -0.4153367350      -27.9881350835       14.2075497154  MEMB      36              0.0000000000
      3968        36  CHL1      H7A            -1.1101463584      -28.8466062713       14.2386774491  MEMB      36              0.0000000000
      3969        36  CHL1      H7B            -0.8625215125      -27.1962545770       13.5284249828  MEMB      36              0.0000000000
      3970        36  CHL1      C8              0.7725000750      -28.2572929158       13.4226411407  MEMB      36              0.0000000000
      3971        36  CHL1      H8              1.1580701670      -29.1736560209       13.9036678607  MEMB      36              0.0000000000
      3972        36  CHL1      C14             0.3543570644      -28.4661152980       11.9776666073  MEMB      36              0.0000000000
      3973        36  CHL1      H14            -0.0903578759      -27.5029011471       11.6044083329  MEMB      36              0.0000000000
      3974        36  CHL1      C15            -0.6866927164      -29.5589203644       11.6020957033  MEMB      36              0.0000000000
      3975        36  CHL1      H15A           -0.7923267424      -30.3803597900       12.3328741352  MEMB      36              0.0000000000
      3976        36  CHL1      H15B           -1.6926775453      -29.1094031566       11.4661809194  MEMB      36              0.0000000000
      3977        36  CHL1      C16            -0.1703281955      -30.0893773204       10.2547039973  MEMB      36              0.0000000000
      3978        36  CHL1      H16A            0.1408592042      -31.1469906310       10.3175702675  MEMB      36              0.0000000000
      3979        36  CHL1      H16B           -0.9549346219      -30.0614262215        9.5339291850  MEMB      36              0.0000000000
      3980        36  CHL1      C17             0.9667617525      -29.1309980529        9.8044568011  MEMB      36              0.0000000000
      3981        36  CHL1      H17             0.4395357330      -28.2271284037        9.4133627125  MEMB      36              0.0000000000
      3982        36  CHL1      C13             1.5829622241      -28.7113202202       11.1509592688  MEMB      36              0.0000000000
      3983        36  CHL1      C18             2.3185678581      -29.9352835004       11.7546985220  MEMB      36              0.0000000000
      3984        36  CHL1      H18A            3.1830426991      -30.1893301696       11.1254598457  MEMB      36              0.0000000000
      3985        36  CHL1      H18B            2.6970044387      -29.7462676603       12.7779379530  MEMB      36              0.0000000000
      3986        36  CHL1      H18C            1.6452879669      -30.8143473425       11.8341818931  MEMB      36              0.0000000000
      3987        36  CHL1      C12             2.4177008176      -27.4148422382       11.2050749592  MEMB      36              0.0000000000
      3988        36  CHL1      H12A            3.3545194337      -27.5705261210       10.6646237133  MEMB      36              0.0000000000
      3989        36  CHL1      H12B            1.8500753677      -26.5737003797       10.7446477554  MEMB      36              0.0000000000
      3990        36  CHL1      C11             2.8407008175      -27.0184243956       12.6257523204  MEMB      36              0.0000000000
      3991        36  CHL1      H11A            3.6054147769      -27.7282418400       12.9837038799  MEMB      36              0.0000000000
      3992        36  CHL1      H11B            3.3260159048      -26.0221777288       12.6015629214  MEMB      36              0.0000000000
      3993        36  CHL1      C9              1.6611532869      -27.0341119649       13.6011163639  MEMB      36              0.0000000000
      3994        36  CHL1      H9              1.0449270437      -26.1306552652       13.3248405642  MEMB      36              0.0000000000
      3995        36  CHL1      C10             2.0666887526      -26.8407631841       15.0771662180  MEMB      36              0.0000000000
      3996        36  CHL1      C19             2.8810873330      -28.0510316361       15.5875601018  MEMB      36              0.0000000000
      3997        36  CHL1      H19A            2.2717432390      -28.9812319440       15.6979213624  MEMB      36              0.0000000000
      3998        36  CHL1      H19B            3.7061285684      -28.2818582660       14.8999819857  MEMB      36              0.0000000000
      3999        36  CHL1      H19C            3.3092944182      -27.7990892306       16.5768587809  MEMB      36              0.0000000000
      4000        36  CHL1      C1              2.7928904461      -25.5024213543       15.1780282228  MEMB      36              0.0000000000
      4001        36  CHL1      H1A             3.8158114355      -25.6538923594       14.7783018178  MEMB      36              0.0000000000
      4002        36  CHL1      H1B             2.2294179137      -24.7672649002       14.5595372849  MEMB      36              0.0000000000
      4003        36  CHL1      C2              2.9590179637      -24.9060876491       16.5660031966  MEMB      36              0.0000000000
      4004        36  CHL1      H2A             3.3455229867      -23.8744937653       16.4255797195  MEMB      36              0.0000000000
      4005        36  CHL1      H2B             3.7006299909      -25.5315426279       17.1078249506  MEMB      36              0.0000000000
      4006        36  CHL1      C20             1.8845954669      -29.6664754479        8.6766202761  MEMB      36              0.0000000000
      4007        36  CHL1      H20             2.4229268225      -30.5683775779        9.0516071184  MEMB      36              0.0000000000
      4008        36  CHL1      C21             2.9413194467      -28.6201028990        8.2720850333  MEMB      36              0.0000000000
      4009        36  CHL1      H21A            3.6959149923      -28.5288681057        9.0683630527  MEMB      36              0.0000000000
      4010        36  CHL1      H21B            2.4479072113      -27.6432695769        8.0815070841  MEMB      36              0.0000000000
      4011        36  CHL1      H21C            3.5111172546      -28.9099394078        7.3648426350  MEMB      36              0.0000000000
      4012        36  CHL1      C22             1.1666982191      -30.1081033531        7.3764695201  MEMB      36              0.0000000000
      4013        36  CHL1      H22A            1.9473619365      -30.3298813862        6.6132679959  MEMB      36              0.0000000000
      4014        36  CHL1      H22B            0.6575420196      -31.0617568122        7.6149013343  MEMB      36              0.0000000000
      4015        36  CHL1      C23             0.1686924482      -29.0981824538        6.7764346988  MEMB      36              0.0000000000
      4016        36  CHL1      H23A           -0.6531009455      -29.0192824309        7.5204504543  MEMB      36              0.0000000000
      4017        36  CHL1      H23B            0.6002615843      -28.0844259474        6.6877044235  MEMB      36              0.0000000000
      4018        36  CHL1      C24            -0.3574073889      -29.4565951449        5.3607062998  MEMB      36              0.0000000000
      4019        36  CHL1      H24A            0.4767738067      -29.6844270129        4.6739967417  MEMB      36              0.0000000000
      4020        36  CHL1      H24B           -0.8595991111      -30.4410523887        5.4925956538  MEMB      36              0.0000000000
      4021        36  CHL1      C25            -1.2297297131      -28.3004145328        4.7205178744  MEMB      36              0.0000000000
      4022        36  CHL1      H25            -0.6448314732      -27.3970380385        4.5728177395  MEMB      36              0.0000000000
      4023        36  CHL1      C26            -1.6727135034      -28.5445176408        3.2438207603  MEMB      36              0.0000000000
      4024        36  CHL1      H26A           -2.6738496753      -28.2243009035        2.8627339698  MEMB      36              0.0000000000
      4025        36  CHL1      H26B           -1.0684202049      -29.2081518881        2.6021949659  MEMB      36              0.0000000000
      4026        36  CHL1      H26C           -2.1384043044      -29.3733971981        3.5328334810  MEMB      36              0.0000000000
      4027        36  CHL1      C27            -2.3023001668      -27.7805629406        5.6927072302  MEMB      36              0.0000000000
      4028        36  CHL1      H27A           -3.0804979532      -28.4845813497        5.6816334081  MEMB      36              0.0000000000
      4029        36  CHL1      H27B           -2.1284157254      -27.7239181478        6.7782044426  MEMB      36              0.0000000000
      4030        36  CHL1      H27C           -3.1552679183      -27.2979854339        5.3704372821  MEMB      36              0.0000000000
      4031        37  POPC      N              -7.4960347234      -22.4283163218       19.5959417414  MEMB      37              0.0000000000
      4032        37  POPC      C12            -6.0314466212      -22.7299310721       19.4292534964  MEMB      37              0.0000000000
      4033        37  POPC      H12A           -5.4317607465      -22.0664604682       20.0486366961  MEMB      37              0.0000000000
      4034        37  POPC      H12B           -5.8096613129      -22.5112188443       18.3963866790  MEMB      37              0.0000000000
      4035        37  POPC      C13            -8.2559508965      -23.4074251109       18.7600233207  MEMB      37              0.0000000000
      4036        37  POPC      H13A           -7.7590554188      -23.5189625597       17.7899993071  MEMB      37              0.0000000000
      4037        37  POPC      H13B           -8.1867010181      -24.4003947634       19.1975310493  MEMB      37              0.0000000000
      4038        37  POPC      H13C           -9.2788045314      -23.0987474286       18.6346724530  MEMB      37              0.0000000000
      4039        37  POPC      C14            -7.8072406707      -22.5241725029       21.0396695963  MEMB      37              0.0000000000
      4040        37  POPC      H14A           -7.3856633498      -23.4366844298       21.4497530281  MEMB      37              0.0000000000
      4041        37  POPC      H14B           -7.3742680398      -21.6659961567       21.5488471602  MEMB      37              0.0000000000
      4042        37  POPC      H14C           -8.8696004800      -22.4748542708       21.2382366951  MEMB      37              0.0000000000
      4043        37  POPC      C15            -7.8817435429      -21.0458872301       19.1699117779  MEMB      37              0.0000000000
      4044        37  POPC      H15A           -7.2116605683      -20.2960810600       19.5689999249  MEMB      37              0.0000000000
      4045        37  POPC      H15B           -8.8905272935      -20.8022322535       19.4983664022  MEMB      37              0.0000000000
      4046        37  POPC      H15C           -7.8801355195      -20.9681769725       18.0893431861  MEMB      37              0.0000000000
      4047        37  POPC      C11            -5.4234749146      -24.1159492634       19.5683283744  MEMB      37              0.0000000000
      4048        37  POPC      H11A           -5.6529255569      -24.5704947312       20.5538670372  MEMB      37              0.0000000000
      4049        37  POPC      H11B           -4.3136252126      -23.9540344835       19.4998016818  MEMB      37              0.0000000000
      4050        37  POPC      P              -5.4843467130      -26.4164452192       18.4677186705  MEMB      37              0.0000000000
      4051        37  POPC      O13            -6.6505251673      -27.2702925528       18.2067792349  MEMB      37              0.0000000000
      4052        37  POPC      O14            -4.5979067025      -26.7628928505       19.6066057563  MEMB      37              0.0000000000
      4053        37  POPC      O12            -5.8856638243      -24.8925291271       18.4741681422  MEMB      37              0.0000000000
      4054        37  POPC      O11            -4.5998775253      -26.3838283585       17.1852287961  MEMB      37              0.0000000000
      4055        37  POPC      C1             -3.2169202798      -26.2935036873       17.4061120462  MEMB      37              0.0000000000
      4056        37  POPC      HA             -2.8489629802      -27.3165332756       17.6701112500  MEMB      37              0.0000000000
      4057        37  POPC      HB             -2.8792902414      -25.5819917663       18.1888205758  MEMB      37              0.0000000000
      4058        37  POPC      C2             -2.6037637012      -25.9489403483       16.0901869958  MEMB      37              0.0000000000
      4059        37  POPC      HS             -1.5458289355      -25.8219697506       16.4044575966  MEMB      37              0.0000000000
      4060        37  POPC      O21            -2.9218361494      -24.7380296505       15.4372868779  MEMB      37              0.0000000000
      4061        37  POPC      C21            -2.0597563543      -24.3941356260       14.4805232931  MEMB      37              0.0000000000
      4062        37  POPC      O22            -1.0054473098      -24.9268775474       14.1945189153  MEMB      37              0.0000000000
      4063        37  POPC      C22            -2.6475491112      -23.1717238710       13.8967648138  MEMB      37              0.0000000000
      4064        37  POPC      H2R            -2.8466543119      -22.4655167095       14.7347152729  MEMB      37              0.0000000000
      4065        37  POPC      H2S            -3.5856188485      -23.4282658387       13.3852555848  MEMB      37              0.0000000000
      4066        37  POPC      C3             -3.0377463195      -27.2007294332       15.2327285422  MEMB      37              0.0000000000
      4067        37  POPC      HX             -2.8172261215      -28.1788257211       15.7217335866  MEMB      37              0.0000000000
      4068        37  POPC      HY             -2.3350764972      -27.0167515947       14.5126632713  MEMB      37              0.0000000000
      4069        37  POPC      O31            -4.2306479506      -27.2468038373       14.4587615006  MEMB      37              0.0000000000
      4070        37  POPC      C31            -4.0981256927      -27.5337820781       13.1500424242  MEMB      37              0.0000000000
      4071        37  POPC      O32            -3.0714185577      -27.5971731875       12.5082214719  MEMB      37              0.0000000000
      4072        37  POPC      C32            -5.4670280604      -27.8868936843       12.6698003269  MEMB      37              0.0000000000
      4073        37  POPC      H2X            -6.1572937527      -27.1348547635       13.1040629135  MEMB      37              0.0000000000
      4074        37  POPC      H2Y            -5.7073510999      -28.8899110323       13.0824576499  MEMB      37              0.0000000000
      4075        37  POPC      C23            -1.6599386664      -22.5248823502       12.9893636267  MEMB      37              0.0000000000
      4076        37  POPC      H3R            -0.6909412283      -22.5782229423       13.5233872805  MEMB      37              0.0000000000
      4077        37  POPC      H3S            -2.0367169452      -21.4726602279       12.9287990488  MEMB      37              0.0000000000
      4078        37  POPC      C24            -1.4405656377      -23.1550423509       11.6194773110  MEMB      37              0.0000000000
      4079        37  POPC      H4R            -0.6025451948      -23.8715796541       11.5666902091  MEMB      37              0.0000000000
      4080        37  POPC      H4S            -1.0510518795      -22.4127566626       10.9337037491  MEMB      37              0.0000000000
      4081        37  POPC      C25            -2.7187278312      -23.6640459484       10.9838980374  MEMB      37              0.0000000000
      4082        37  POPC      H5R            -3.4868010682      -22.8332646659       11.0675201278  MEMB      37              0.0000000000
      4083        37  POPC      H5S            -3.0435419374      -24.5858186414       11.4523479276  MEMB      37              0.0000000000
      4084        37  POPC      C26            -2.4622575386      -24.0561521228        9.5417903319  MEMB      37              0.0000000000
      4085        37  POPC      H6R            -1.4442635150      -24.2423084266        9.1276244916  MEMB      37              0.0000000000
      4086        37  POPC      H6S            -2.2656245394      -23.0391485468        9.5097489193  MEMB      37              0.0000000000
      4087        37  POPC      C27            -3.6403493065      -24.6738527723        8.7048939647  MEMB      37              0.0000000000
      4088        37  POPC      H7R            -3.9805239775      -25.4549883948        9.3983380237  MEMB      37              0.0000000000
      4089        37  POPC      H7S            -3.1369680125      -25.0438918003        7.7926100439  MEMB      37              0.0000000000
      4090        37  POPC      C28            -4.9852462203      -24.0379051826        8.1760730763  MEMB      37              0.0000000000
      4091        37  POPC      H8R            -5.2436157508      -23.3117110710        8.9920139098  MEMB      37              0.0000000000
      4092        37  POPC      H8S            -5.8897510681      -24.6341924776        8.1294075949  MEMB      37              0.0000000000
      4093        37  POPC      C29            -4.9949925995      -23.5385285899        6.7491530751  MEMB      37              0.0000000000
      4094        37  POPC      H91            -4.1074467941      -23.2451142029        6.1095049813  MEMB      37              0.0000000000
      4095        37  POPC      C210           -5.9606543467      -22.9312854486        6.2848524447  MEMB      37              0.0000000000
      4096        37  POPC      H101           -5.4063667436      -22.0291652500        6.1539019476  MEMB      37              0.0000000000
      4097        37  POPC      C211           -7.2779047736      -22.5460660521        6.6828930093  MEMB      37              0.0000000000
      4098        37  POPC      H11R           -7.6591249922      -21.5416103608        6.8300516386  MEMB      37              0.0000000000
      4099        37  POPC      H11S           -7.4807706764      -22.8848091218        7.6573459892  MEMB      37              0.0000000000
      4100        37  POPC      C212           -7.8293866512      -23.3260017039        5.5299221337  MEMB      37              0.0000000000
      4101        37  POPC      H12R           -8.8405837785      -23.5149194661        5.7917028899  MEMB      37              0.0000000000
      4102        37  POPC      H12S           -7.4106636321      -24.3499322638        5.3875861955  MEMB      37              0.0000000000
      4103        37  POPC      C213           -7.8172419273      -22.5770265247        4.2182426677  MEMB      37              0.0000000000
      4104        37  POPC      H13R           -6.8451114618      -22.9992158080        4.1736809683  MEMB      37              0.0000000000
      4105        37  POPC      H13S           -7.7720456548      -21.4641038913        4.2539724575  MEMB      37              0.0000000000
      4106        37  POPC      C214           -8.6079870996      -23.1168733180        3.0626505949  MEMB      37              0.0000000000
      4107        37  POPC      H14R           -8.4105988557      -22.7468837285        2.0831807833  MEMB      37              0.0000000000
      4108        37  POPC      H14S           -9.6408950531      -22.7962227259        3.1813634551  MEMB      37              0.0000000000
      4109        37  POPC      C215           -8.3261557372      -24.5826728540        2.9013296949  MEMB      37              0.0000000000
      4110        37  POPC      H15R           -8.6918635083      -25.0081854482        3.8512797252  MEMB      37              0.0000000000
      4111        37  POPC      H15S           -7.2269910084      -24.7797479865        2.7986487396  MEMB      37              0.0000000000
      4112        37  POPC      C216           -9.0674661572      -25.0856796752        1.6765787429  MEMB      37              0.0000000000
      4113        37  POPC      H16R           -8.5865830265      -24.6174829751        0.8037971307  MEMB      37              0.0000000000
      4114        37  POPC      H16S          -10.0783355986      -24.6334538116        1.6742245932  MEMB      37              0.0000000000
      4115        37  POPC      C217           -9.0648791234      -26.6178705143        1.5891454812  MEMB      37              0.0000000000
      4116        37  POPC      H17R           -9.2526294170      -27.0091867202        2.6122527992  MEMB      37              0.0000000000
      4117        37  POPC      H17S           -8.0403892102      -26.9631818595        1.3185834456  MEMB      37              0.0000000000
      4118        37  POPC      C218          -10.1216901085      -27.2521628739        0.6729116227  MEMB      37              0.0000000000
      4119        37  POPC      H18R          -10.0003420437      -28.3596310702        0.6682247457  MEMB      37              0.0000000000
      4120        37  POPC      H18S          -10.1119931819      -26.8962044314       -0.3784498058  MEMB      37              0.0000000000
      4121        37  POPC      H18T          -11.1211819249      -27.0131548601        1.0904747429  MEMB      37              0.0000000000
      4122        37  POPC      C33            -5.5430252097      -27.9017964202       11.1408472155  MEMB      37              0.0000000000
      4123        37  POPC      H3X            -4.5838323364      -28.2543508408       10.6935959561  MEMB      37              0.0000000000
      4124        37  POPC      H3Y            -5.6993898684      -26.8605974245       10.7852627863  MEMB      37              0.0000000000
      4125        37  POPC      C34            -6.6527458774      -28.8309070876       10.6391778795  MEMB      37              0.0000000000
      4126        37  POPC      H4X            -7.6147679892      -28.5908298548       11.1289694074  MEMB      37              0.0000000000
      4127        37  POPC      H4Y            -6.4553332135      -29.8828299411       10.9388180039  MEMB      37              0.0000000000
      4128        37  POPC      C35            -6.7924171366      -28.7940549658        9.1141023845  MEMB      37              0.0000000000
      4129        37  POPC      H5X            -7.6104786373      -29.4896090906        8.8458011611  MEMB      37              0.0000000000
      4130        37  POPC      H5Y            -5.8677437464      -29.1823194836        8.6513354908  MEMB      37              0.0000000000
      4131        37  POPC      C36            -7.1365013946      -27.4117389270        8.5373262307  MEMB      37              0.0000000000
      4132        37  POPC      H6X            -6.3545352382      -26.6510328217        8.7484709695  MEMB      37              0.0000000000
      4133        37  POPC      H6Y            -8.0981292468      -27.0986869422        8.9924445295  MEMB      37              0.0000000000
      4134        37  POPC      C37            -7.3942879265      -27.4013591464        7.0348736791  MEMB      37              0.0000000000
      4135        37  POPC      H7X            -7.9097651835      -26.4743471851        6.7317105788  MEMB      37              0.0000000000
      4136        37  POPC      H7Y            -8.0427588529      -28.2821366246        6.8044721887  MEMB      37              0.0000000000
      4137        37  POPC      C38            -6.1050292297      -27.4430085763        6.2315414566  MEMB      37              0.0000000000
      4138        37  POPC      H8X            -6.0721928220      -28.5281842645        6.2705835955  MEMB      37              0.0000000000
      4139        37  POPC      H8Y            -5.2393493956      -26.9890886510        6.7656738225  MEMB      37              0.0000000000
      4140        37  POPC      C39            -6.2536015949      -27.0172237974        4.7616379836  MEMB      37              0.0000000000
      4141        37  POPC      H9X            -6.8856452155      -26.1268059742        4.7263805197  MEMB      37              0.0000000000
      4142        37  POPC      H9Y            -6.7789602475      -27.8614181381        4.2472169062  MEMB      37              0.0000000000
      4143        37  POPC      C310           -4.9788184244      -26.7897132051        3.9273306886  MEMB      37              0.0000000000
      4144        37  POPC      H10X           -5.1542398016      -26.8424806881        2.8348392692  MEMB      37              0.0000000000
      4145        37  POPC      H10Y           -4.5134108932      -27.7226858269        4.1382965006  MEMB      37              0.0000000000
      4146        37  POPC      C311           -4.0282442685      -25.6020126967        4.2240518083  MEMB      37              0.0000000000
      4147        37  POPC      H11X           -3.4424501287      -25.5958667554        5.1670079722  MEMB      37              0.0000000000
      4148        37  POPC      H11Y           -4.7018248526      -24.7725401958        4.4239650165  MEMB      37              0.0000000000
      4149        37  POPC      C312           -2.9983550023      -25.3582453689        3.0968367572  MEMB      37              0.0000000000
      4150        37  POPC      H12X           -3.5753036761      -25.2231284133        2.1587990588  MEMB      37              0.0000000000
      4151        37  POPC      H12Y           -2.3137739777      -26.2095107620        2.9398470958  MEMB      37              0.0000000000
      4152        37  POPC      C313           -1.9778216092      -24.2378795775        3.3660620218  MEMB      37              0.0000000000
      4153        37  POPC      H13X           -1.2873866569      -24.1216055999        2.5108256271  MEMB      37              0.0000000000
      4154        37  POPC      H13Y           -1.4336412544      -24.4321689690        4.3142837917  MEMB      37              0.0000000000
      4155        37  POPC      C314           -2.6080321578      -22.9119110103        3.5208974419  MEMB      37              0.0000000000
      4156        37  POPC      H14X           -2.0682124185      -22.1217667168        4.0792985053  MEMB      37              0.0000000000
      4157        37  POPC      H14Y           -3.3973877485      -23.2135150164        4.2225920275  MEMB      37              0.0000000000
      4158        37  POPC      C315           -3.1168729459      -22.3936924614        2.1824499320  MEMB      37              0.0000000000
      4159        37  POPC      H15X           -3.5969483483      -21.3909701534        2.3334712141  MEMB      37              0.0000000000
      4160        37  POPC      H15Y           -3.7281074739      -23.1539497561        1.6531283445  MEMB      37              0.0000000000
      4161        37  POPC      C316           -2.2741049990      -21.8720822114        1.1530858154  MEMB      37              0.0000000000
      4162        37  POPC      H16X           -1.4169356408      -21.6827263986        1.8211537821  MEMB      37              0.0000000000
      4163        37  POPC      H16Y           -2.8300634985      -20.9842017925        0.7107990207  MEMB      37              0.0000000000
      4164        37  POPC      H16Z           -2.0641150049      -22.5908171077        0.3763645116  MEMB      37              0.0000000000
      4165        38  OSM       N              27.9397235314        4.2001323028       22.1492093292  MEMB      38              0.0000000000
      4166        38  OSM       C15            28.8397249118        3.0893831316       21.7062192844  MEMB      38              0.0000000000
      4167        38  OSM       H15A           29.2983639767        2.5898295563       22.5501670125  MEMB      38              0.0000000000
      4168        38  OSM       H15B           29.6386833591        3.4387644791       21.0606514706  MEMB      38              0.0000000000
      4169        38  OSM       H15C           28.2457750419        2.3759154804       21.1374183225  MEMB      38              0.0000000000
      4170        38  OSM       C14            26.9619713945        3.5774993706       23.1124734621  MEMB      38              0.0000000000
      4171        38  OSM       H14A           27.4532144307        3.1073290170       23.9559979852  MEMB      38              0.0000000000
      4172        38  OSM       H14B           26.3752894311        2.8169152192       22.5988490664  MEMB      38              0.0000000000
      4173        38  OSM       H14C           26.2680924034        4.3212910774       23.4764530497  MEMB      38              0.0000000000
      4174        38  OSM       C13            28.8170945234        5.1437469219       22.8951127637  MEMB      38              0.0000000000
      4175        38  OSM       H13A           28.3489484139        6.0507893916       23.2335422496  MEMB      38              0.0000000000
      4176        38  OSM       H13B           29.7091944925        5.3602330814       22.3258386814  MEMB      38              0.0000000000
      4177        38  OSM       H13C           29.1308073039        4.6349059138       23.8032023985  MEMB      38              0.0000000000
      4178        38  OSM       C12            27.1873005427        4.8015229270       20.9581689962  MEMB      38              0.0000000000
      4179        38  OSM       H12A           27.7233892702        5.6434427996       20.5609840654  MEMB      38              0.0000000000
      4180        38  OSM       H12B           26.1986857137        5.1487180178       21.2784644148  MEMB      38              0.0000000000
      4181        38  OSM       C11            26.9396243580        3.8708969085       19.7405919724  MEMB      38              0.0000000000
      4182        38  OSM       H11A           27.9272337066        3.5252209335       19.3680910246  MEMB      38              0.0000000000
      4183        38  OSM       H11B           26.5078369806        4.4356960742       18.8755008479  MEMB      38              0.0000000000
      4184        38  OSM       P              24.5735840109        2.8882450245       20.2500195925  MEMB      38              0.0000000000
      4185        38  OSM       O13            24.0072644012        1.5815517841       20.6576129389  MEMB      38              0.0000000000
      4186        38  OSM       O14            24.2583758523        4.0792766652       21.0568582993  MEMB      38              0.0000000000
      4187        38  OSM       O11            24.1978034616        3.2691571656       18.7676124226  MEMB      38              0.0000000000
      4188        38  OSM       O12            26.1576257514        2.7356964916       20.1123150963  MEMB      38              0.0000000000
      4189        38  OSM       C1S            24.4049547041        2.2860128062       17.7984733408  MEMB      38              0.0000000000
      4190        38  OSM       H1S            23.8920478714        1.4210758185       18.2272743831  MEMB      38              0.0000000000
      4191        38  OSM       H1T            25.4584001431        1.9204876352       17.7033284446  MEMB      38              0.0000000000
      4192        38  OSM       NF             24.4592129760        3.9725226271       16.0110839507  MEMB      38              0.0000000000
      4193        38  OSM       HNF            23.7974208709        4.7026083531       15.9904003273  MEMB      38              0.0000000000
      4194        38  OSM       C2S            23.8863803235        2.7671244103       16.4053239712  MEMB      38              0.0000000000
      4195        38  OSM       H2S            24.2116520993        2.0628231706       15.6014090857  MEMB      38              0.0000000000
      4196        38  OSM       C3S            22.3764402233        3.0211581285       16.3422795416  MEMB      38              0.0000000000
      4197        38  OSM       H3S            22.0258326637        3.6411961324       17.1688853527  MEMB      38              0.0000000000
      4198        38  OSM       O3             21.4301782189        2.0473744593       16.4960691786  MEMB      38              0.0000000000
      4199        38  OSM       HO3            21.9752258360        1.2640336501       16.5350148117  MEMB      38              0.0000000000
      4200        38  OSM       C4S            21.9867417111        3.4311135166       15.0086849436  MEMB      38              0.0000000000
      4201        38  OSM       H4S            22.0003646172        4.5075790124       14.8901901510  MEMB      38              0.0000000000
      4202        38  OSM       C5S            21.6196971595        2.6500444780       13.9771572476  MEMB      38              0.0000000000
      4203        38  OSM       H5S            21.2232359878        1.6179531742       14.0910940517  MEMB      38              0.0000000000
      4204        38  OSM       C6S            21.2240402474        3.4049986923       12.8436311683  MEMB      38              0.0000000000
      4205        38  OSM       H6S            20.4674218562        4.2251972755       13.0597118737  MEMB      38              0.0000000000
      4206        38  OSM       H6T            20.8678083086        2.7617861111       12.0568730234  MEMB      38              0.0000000000
      4207        38  OSM       C7S            22.2000486440        3.6472163092       11.9203054420  MEMB      38              0.0000000000
      4208        38  OSM       H7S            22.8916084250        4.2700723791       12.5290008222  MEMB      38              0.0000000000
      4209        38  OSM       H7T            21.5595633547        4.1100170037       11.0744941848  MEMB      38              0.0000000000
      4210        38  OSM       C8S            23.3278565150        2.8120691315       11.6150503920  MEMB      38              0.0000000000
      4211        38  OSM       H8S            23.6170299756        2.2453861515       12.5150185108  MEMB      38              0.0000000000
      4212        38  OSM       H8T            24.2183422062        3.3880170637       11.3002598116  MEMB      38              0.0000000000
      4213        38  OSM       C9S            22.9417199735        2.1494449655       10.4058490106  MEMB      38              0.0000000000
      4214        38  OSM       H9S            21.9415629542        1.6943750709       10.5842115844  MEMB      38              0.0000000000
      4215        38  OSM       H9T            23.7481356875        1.3876686250       10.4464034677  MEMB      38              0.0000000000
      4216        38  OSM       C10S           23.0224847118        2.9459733207        9.0578428320  MEMB      38              0.0000000000
      4217        38  OSM       H10S           22.2186917644        3.7028570150        8.9788250482  MEMB      38              0.0000000000
      4218        38  OSM       H10T           22.6485279136        2.5757097275        8.1151488795  MEMB      38              0.0000000000
      4219        38  OSM       C11S           24.4850118014        3.0978957742        8.6374038003  MEMB      38              0.0000000000
      4220        38  OSM       H11S           25.2779428046        2.6052580790        9.1956855818  MEMB      38              0.0000000000
      4221        38  OSM       H11T           24.6092138781        3.9966609122        9.2399014550  MEMB      38              0.0000000000
      4222        38  OSM       C12S           24.7827361204        3.1909407053        7.0926202252  MEMB      38              0.0000000000
      4223        38  OSM       H12S           25.4430975702        4.0441776623        6.8412394819  MEMB      38              0.0000000000
      4224        38  OSM       H12T           23.8738507455        3.3803391664        6.4798979488  MEMB      38              0.0000000000
      4225        38  OSM       C13S           25.6162782806        2.0578986369        6.5888555887  MEMB      38              0.0000000000
      4226        38  OSM       H13S           25.0356381709        1.1413596753        6.6451553901  MEMB      38              0.0000000000
      4227        38  OSM       H13T           26.4560842374        1.9512675714        7.3011140762  MEMB      38              0.0000000000
      4228        38  OSM       C14S           26.1278104719        2.2151995591        5.1766670340  MEMB      38              0.0000000000
      4229        38  OSM       H14S           27.0933640510        2.7661421423        5.1481181418  MEMB      38              0.0000000000
      4230        38  OSM       H14T           25.4375111673        2.7303513962        4.4766166369  MEMB      38              0.0000000000
      4231        38  OSM       C15S           26.4455846628        0.8401590566        4.6784384146  MEMB      38              0.0000000000
      4232        38  OSM       H15S           25.5680417644        0.2114855377        4.3707797318  MEMB      38              0.0000000000
      4233        38  OSM       H15T           26.8713122902        0.2996987144        5.4918124930  MEMB      38              0.0000000000
      4234        38  OSM       C16S           27.6318431247        0.8966711936        3.7692751783  MEMB      38              0.0000000000
      4235        38  OSM       H16S           27.6540581806       -0.1895797284        3.4806480923  MEMB      38              0.0000000000
      4236        38  OSM       H16T           28.6179857006        1.2600583706        4.0586976332  MEMB      38              0.0000000000
      4237        38  OSM       C17S           27.2809829108        1.7976968094        2.6803621286  MEMB      38              0.0000000000
      4238        38  OSM       H17S           28.0382773993        1.7298344792        1.8321573187  MEMB      38              0.0000000000
      4239        38  OSM       H17T           26.9086745138        2.8340313534        2.7471845951  MEMB      38              0.0000000000
      4240        38  OSM       C18S           25.9568649944        1.3034018314        2.3383877407  MEMB      38              0.0000000000
      4241        38  OSM       H18S           26.6503779210        0.4950715459        2.0914927144  MEMB      38              0.0000000000
      4242        38  OSM       H18T           25.6685663718        1.6392809522        1.3879557405  MEMB      38              0.0000000000
      4243        38  OSM       H18U           25.2562869995        0.4855848980        2.5679682991  MEMB      38              0.0000000000
      4244        38  OSM       C1F            25.7095886153        4.1487782078       15.7934811924  MEMB      38              0.0000000000
      4245        38  OSM       OF             26.5052919547        3.2249404657       15.6968603049  MEMB      38              0.0000000000
      4246        38  OSM       C2F            25.9935069373        5.5947911021       15.7257641624  MEMB      38              0.0000000000
      4247        38  OSM       H2F            26.0731720355        5.9773410862       16.7652403417  MEMB      38              0.0000000000
      4248        38  OSM       H2G            25.1081999267        6.1020473211       15.2684218158  MEMB      38              0.0000000000
      4249        38  OSM       C3F            27.2793239872        5.8895386320       14.9715919739  MEMB      38              0.0000000000
      4250        38  OSM       H3F            28.1301650010        5.4430735138       15.5320721886  MEMB      38              0.0000000000
      4251        38  OSM       H3G            27.4107416539        6.9921044706       14.9172651503  MEMB      38              0.0000000000
      4252        38  OSM       C4F            27.3750869169        5.3459552091       13.5498836289  MEMB      38              0.0000000000
      4253        38  OSM       H4F            27.4440005130        4.2353754858       13.5586326362  MEMB      38              0.0000000000
      4254        38  OSM       H4G            28.3350901127        5.7595197972       13.1773755739  MEMB      38              0.0000000000
      4255        38  OSM       C5F            26.2265592267        5.7789538899       12.6599094944  MEMB      38              0.0000000000
      4256        38  OSM       H5F            26.0760571223        6.8797831940       12.7483747331  MEMB      38              0.0000000000
      4257        38  OSM       H5G            25.3072305493        5.2629281614       13.0231941613  MEMB      38              0.0000000000
      4258        38  OSM       C6F            26.4532668659        5.4490899113       11.1830794716  MEMB      38              0.0000000000
      4259        38  OSM       H6F            25.6986288677        6.0164667610       10.6144697767  MEMB      38              0.0000000000
      4260        38  OSM       H6G            26.3320579509        4.3554692699       11.0156714747  MEMB      38              0.0000000000
      4261        38  OSM       C7F            27.7115514526        6.0175569812       10.5704062109  MEMB      38              0.0000000000
      4262        38  OSM       H7F            28.5770640503        5.5440586600       11.0669719114  MEMB      38              0.0000000000
      4263        38  OSM       H7G            27.7216344330        7.1134441650       10.7773040735  MEMB      38              0.0000000000
      4264        38  OSM       C8F            27.7888220230        5.8445970862        9.0537979676  MEMB      38              0.0000000000
      4265        38  OSM       H8F            28.6403568875        6.4762045405        8.7528907375  MEMB      38              0.0000000000
      4266        38  OSM       H8G            26.9911378123        6.3487352453        8.4974126962  MEMB      38              0.0000000000
      4267        38  OSM       C9F            27.8557469591        4.4024542810        8.6168447729  MEMB      38              0.0000000000
      4268        38  OSM       H9F            27.3497476809        3.6549658993        9.2375507026  MEMB      38              0.0000000000
      4269        38  OSM       C10F           28.4557610306        4.0157032580        7.4974041176  MEMB      38              0.0000000000
      4270        38  OSM       H10F           28.5368247596        2.9400250709        7.2416166040  MEMB      38              0.0000000000
      4271        38  OSM       C11F           29.1096806270        5.0390292494        6.6066893417  MEMB      38              0.0000000000
      4272        38  OSM       H11F           30.1633207894        4.9695256413        6.4433370286  MEMB      38              0.0000000000
      4273        38  OSM       H11G           29.2582184819        5.9733549230        7.0992677348  MEMB      38              0.0000000000
      4274        38  OSM       C12F           28.6537812475        5.1696495787        5.1973579474  MEMB      38              0.0000000000
      4275        38  OSM       H12F           28.5537330473        4.1471699332        4.7758257108  MEMB      38              0.0000000000
      4276        38  OSM       H12G           29.4474643762        5.7595845320        4.6649115274  MEMB      38              0.0000000000
      4277        38  OSM       C13F           27.3107438907        5.7929007624        5.1386634043  MEMB      38              0.0000000000
      4278        38  OSM       H13F           27.3278263919        6.7132169519        5.7573402872  MEMB      38              0.0000000000
      4279        38  OSM       H13G           26.6280562661        5.0368967095        5.5799585276  MEMB      38              0.0000000000
      4280        38  OSM       C14F           26.9257270988        6.0436878837        3.7065775998  MEMB      38              0.0000000000
      4281        38  OSM       H14F           26.8389239983        5.0521183709        3.1974044501  MEMB      38              0.0000000000
      4282        38  OSM       H14G           27.6905636627        6.6733937237        3.2130834215  MEMB      38              0.0000000000
      4283        38  OSM       C15F           25.5889283307        6.6972540529        3.5881270719  MEMB      38              0.0000000000
      4284        38  OSM       H15F           25.5845815043        7.7699649510        3.9016150436  MEMB      38              0.0000000000
      4285        38  OSM       H15G           24.8983807611        6.0859452473        4.2012565312  MEMB      38              0.0000000000
      4286        38  OSM       C16F           25.0706845672        6.5401443134        2.2106116211  MEMB      38              0.0000000000
      4287        38  OSM       H16F           23.9975748703        6.6164804578        2.2120148184  MEMB      38              0.0000000000
      4288        38  OSM       H16G           25.1684835076        5.5346740187        1.7607071635  MEMB      38              0.0000000000
      4289        38  OSM       C17F           25.5564784000        7.6011847416        1.3303976911  MEMB      38              0.0000000000
      4290        38  OSM       H17F           26.6455729582        7.5246066893        1.0811457641  MEMB      38              0.0000000000
      4291        38  OSM       H17G           25.3217921432        8.6484426614        1.6541822559  MEMB      38              0.0000000000
      4292        38  OSM       C18F           24.7543710909        7.2665910619        0.1578454969  MEMB      38              0.0000000000
      4293        38  OSM       H18F           25.5520544025        7.5833542986       -0.5278482085  MEMB      38              0.0000000000
      4294        38  OSM       H18G           23.7822265984        7.8289499036        0.0985579220  MEMB      38              0.0000000000
      4295        38  OSM       H18H           24.6487660828        6.2687148816       -0.2887746074  MEMB      38              0.0000000000
      4296        39  SAPI      C12             9.1399872208      -26.1260956735       23.5531608012  MEMB      39              0.0000000000
      4297        39  SAPI      H2              8.5185674435      -26.6687627176       22.7820211561  MEMB      39              0.0000000000
      4298        39  SAPI      O2              8.4542247462      -25.0114922631       24.0132046424  MEMB      39              0.0000000000
      4299        39  SAPI      HO2             8.9580666413      -24.3350846737       23.5487545634  MEMB      39              0.0000000000
      4300        39  SAPI      C13             9.3337216927      -27.1160668777       24.7544274105  MEMB      39              0.0000000000
      4301        39  SAPI      H3              9.6422508151      -28.1333533751       24.4682403641  MEMB      39              0.0000000000
      4302        39  SAPI      O3              8.0516425716      -27.5411696610       25.1812896624  MEMB      39              0.0000000000
      4303        39  SAPI      HO3             7.6165810160      -26.7143172710       25.3999036068  MEMB      39              0.0000000000
      4304        39  SAPI      C14            10.2029403213      -26.3661505499       25.9216589564  MEMB      39              0.0000000000
      4305        39  SAPI      H4              9.8039956299      -25.3929761169       26.1369450879  MEMB      39              0.0000000000
      4306        39  SAPI      O4             10.0110952774      -27.0648976986       27.1686234793  MEMB      39              0.0000000000
      4307        39  SAPI      HO4            10.0282665797      -28.0061533932       26.8500506368  MEMB      39              0.0000000000
      4308        39  SAPI      C15            11.6735819436      -25.8732651255       25.4894321237  MEMB      39              0.0000000000
      4309        39  SAPI      H5             12.4264579876      -26.6766239627       25.4603804442  MEMB      39              0.0000000000
      4310        39  SAPI      O5             12.8621152124      -25.7782330431       26.2886301132  MEMB      39              0.0000000000
      4311        39  SAPI      HO5            12.6081218074      -25.7760308554       27.1986192278  MEMB      39              0.0000000000
      4312        39  SAPI      C16            11.3241459424      -24.9610527261       24.1187206660  MEMB      39              0.0000000000
      4313        39  SAPI      H6             10.9287934833      -24.0040960237       24.4077291860  MEMB      39              0.0000000000
      4314        39  SAPI      O6             12.6261002732      -24.7773611805       23.5544077610  MEMB      39              0.0000000000
      4315        39  SAPI      HO6            12.7092480922      -23.9458788848       23.0768519325  MEMB      39              0.0000000000
      4316        39  SAPI      C11            10.4130430682      -25.6127412272       22.8373741422  MEMB      39              0.0000000000
      4317        39  SAPI      H1             10.6445489626      -26.5322802399       22.2527769561  MEMB      39              0.0000000000
      4318        39  SAPI      P              10.1835158126      -25.4564451105       20.1223773308  MEMB      39              0.0000000000
      4319        39  SAPI      O13             8.9830810634      -26.3264285476       20.0817204991  MEMB      39              0.0000000000
      4320        39  SAPI      O14            11.4510445736      -26.0394075196       19.6530749351  MEMB      39              0.0000000000
      4321        39  SAPI      O12            10.2425951223      -24.7736705707       21.6861791816  MEMB      39              0.0000000000
      4322        39  SAPI      O11             9.9004812736      -24.1161269717       19.3894689298  MEMB      39              0.0000000000
      4323        39  SAPI      C1              8.7521816366      -23.3764647410       19.7610995690  MEMB      39              0.0000000000
      4324        39  SAPI      HA              7.8677050693      -23.9133000034       19.3684273059  MEMB      39              0.0000000000
      4325        39  SAPI      HB              8.5823539753      -23.2908897081       20.8665245719  MEMB      39              0.0000000000
      4326        39  SAPI      C2              8.9177465840      -22.0056662894       19.0807396687  MEMB      39              0.0000000000
      4327        39  SAPI      HS              8.0215762840      -21.3975446306       19.3315168345  MEMB      39              0.0000000000
      4328        39  SAPI      O21             9.0458561565      -22.1464597643       17.6481698711  MEMB      39              0.0000000000
      4329        39  SAPI      C21             7.9977036374      -22.6112808673       17.0335789304  MEMB      39              0.0000000000
      4330        39  SAPI      O22             6.8915187287      -22.7782469731       17.5466058497  MEMB      39              0.0000000000
      4331        39  SAPI      C22             8.2720118110      -22.6416438960       15.5009252048  MEMB      39              0.0000000000
      4332        39  SAPI      H2R             8.3572750832      -21.6078699670       15.0890774599  MEMB      39              0.0000000000
      4333        39  SAPI      H2S             9.2208230697      -23.1475463080       15.2988648876  MEMB      39              0.0000000000
      4334        39  SAPI      C3             10.1755220625      -21.2297258829       19.5805347611  MEMB      39              0.0000000000
      4335        39  SAPI      HX             10.3827430025      -21.4267545406       20.6537627137  MEMB      39              0.0000000000
      4336        39  SAPI      HY              9.9301100835      -20.1559824244       19.4785535116  MEMB      39              0.0000000000
      4337        39  SAPI      O31            11.3134416054      -21.4535826429       18.7397116285  MEMB      39              0.0000000000
      4338        39  SAPI      C31            12.2730353192      -22.2231663681       19.2353825144  MEMB      39              0.0000000000
      4339        39  SAPI      O32            12.4130299606      -22.5549159689       20.3970351098  MEMB      39              0.0000000000
      4340        39  SAPI      C32            13.2132770806      -22.4891771112       18.1033524251  MEMB      39              0.0000000000
      4341        39  SAPI      H2X            14.2384813420      -22.6487555128       18.5097808181  MEMB      39              0.0000000000
      4342        39  SAPI      H2Y            13.2383894120      -21.5615952424       17.4942288125  MEMB      39              0.0000000000
      4343        39  SAPI      C23             7.1542752822      -23.4652297833       14.8254037084  MEMB      39              0.0000000000
      4344        39  SAPI      H3R             6.2651000258      -22.8994171643       14.8134605050  MEMB      39              0.0000000000
      4345        39  SAPI      H3S             6.9085998449      -24.3360329891       15.4539391916  MEMB      39              0.0000000000
      4346        39  SAPI      C24             7.2765095587      -23.8291592290       13.3501513610  MEMB      39              0.0000000000
      4347        39  SAPI      H4R             8.3262735588      -24.1681679532       13.2429190149  MEMB      39              0.0000000000
      4348        39  SAPI      H4S             7.1235482791      -22.9014862812       12.7455584051  MEMB      39              0.0000000000
      4349        39  SAPI      C25             6.2657161228      -24.8786762971       12.9199548349  MEMB      39              0.0000000000
      4350        39  SAPI      H5R             5.3684106613      -25.0036598368       13.5441489484  MEMB      39              0.0000000000
      4351        39  SAPI      C26             6.4426190286      -25.7160550557       11.8851212605  MEMB      39              0.0000000000
      4352        39  SAPI      H6R             5.6525083467      -26.4346585843       11.6045267403  MEMB      39              0.0000000000
      4353        39  SAPI      C27             7.6708316356      -25.7149765089       11.0213522097  MEMB      39              0.0000000000
      4354        39  SAPI      H7R             8.1168766188      -24.6957639749       10.9847372821  MEMB      39              0.0000000000
      4355        39  SAPI      H7S             7.4018328939      -25.9747636516        9.9771041689  MEMB      39              0.0000000000
      4356        39  SAPI      C28             8.6910577578      -26.6728112881       11.5643832801  MEMB      39              0.0000000000
      4357        39  SAPI      H8R             8.7049128012      -26.8239335270       12.6530083202  MEMB      39              0.0000000000
      4358        39  SAPI      C29             9.6092487106      -27.2816444489       10.8195815004  MEMB      39              0.0000000000
      4359        39  SAPI      H9R            10.2700522787      -28.0077044917       11.3292410756  MEMB      39              0.0000000000
      4360        39  SAPI      C210            9.7268509718      -27.0700277103        9.3247182429  MEMB      39              0.0000000000
      4361        39  SAPI      H10R           10.4992405764      -26.3244315639        9.0751181688  MEMB      39              0.0000000000
      4362        39  SAPI      H10S            8.7822374205      -26.8805061855        8.7841309205  MEMB      39              0.0000000000
      4363        39  SAPI      C211           10.1520886738      -28.2869710276        8.6935209271  MEMB      39              0.0000000000
      4364        39  SAPI      H11R            9.6475645482      -29.1365962788        8.9599210929  MEMB      39              0.0000000000
      4365        39  SAPI      C212           10.9931428757      -28.4856541930        7.7548687376  MEMB      39              0.0000000000
      4366        39  SAPI      H12R           11.6251083903      -29.3307381684        7.8678815221  MEMB      39              0.0000000000
      4367        39  SAPI      C213           11.7553017519      -27.5476908605        7.0660068777  MEMB      39              0.0000000000
      4368        39  SAPI      H13R           12.1845801047      -28.2987679595        6.3701809449  MEMB      39              0.0000000000
      4369        39  SAPI      H13S           12.4893844506      -27.1257337918        7.8045651461  MEMB      39              0.0000000000
      4370        39  SAPI      C214           11.0356686959      -26.5833024481        6.2383621024  MEMB      39              0.0000000000
      4371        39  SAPI      H14R            9.9618938615      -26.7335179400        6.2273590219  MEMB      39              0.0000000000
      4372        39  SAPI      C215           11.6066758552      -25.7996162937        5.3392839071  MEMB      39              0.0000000000
      4373        39  SAPI      H15R           11.0519415469      -25.1316175537        4.7123659013  MEMB      39              0.0000000000
      4374        39  SAPI      C216           13.0091297517      -25.7304427570        4.9952725697  MEMB      39              0.0000000000
      4375        39  SAPI      H16R           13.5185965789      -25.8363598919        5.9472771799  MEMB      39              0.0000000000
      4376        39  SAPI      H16S           13.3477451249      -24.7028034996        4.8355953896  MEMB      39              0.0000000000
      4377        39  SAPI      C217           13.0023310051      -26.7988952174        3.8587480286  MEMB      39              0.0000000000
      4378        39  SAPI      H17R           13.0268930039      -27.7640048111        4.3276338022  MEMB      39              0.0000000000
      4379        39  SAPI      H17S           13.7175090065      -27.5044298434        3.4684915773  MEMB      39              0.0000000000
      4380        39  SAPI      C218           12.7157283189      -26.4077290440        2.4056957091  MEMB      39              0.0000000000
      4381        39  SAPI      H18R           13.0084963128      -25.3848990635        2.1154652528  MEMB      39              0.0000000000
      4382        39  SAPI      H18S           11.6333256749      -26.3344401931        2.3803720730  MEMB      39              0.0000000000
      4383        39  SAPI      C219           13.3465647350      -27.3467532470        1.3388844063  MEMB      39              0.0000000000
      4384        39  SAPI      H19R           12.9979169301      -28.3825380040        1.5109487804  MEMB      39              0.0000000000
      4385        39  SAPI      H19S           14.4651186787      -27.4145992488        1.3717719408  MEMB      39              0.0000000000
      4386        39  SAPI      C220           12.9079111457      -26.8933573930       -0.0405578362  MEMB      39              0.0000000000
      4387        39  SAPI      H20R           11.8182058366      -26.6708773037       -0.0029633667  MEMB      39              0.0000000000
      4388        39  SAPI      H20S           13.1149431805      -27.6873523404       -0.7838535426  MEMB      39              0.0000000000
      4389        39  SAPI      H20T           13.4403189044      -25.9694381544       -0.3483698400  MEMB      39              0.0000000000
      4390        39  SAPI      C33            12.7352045503      -23.7198890167       17.3074587412  MEMB      39              0.0000000000
      4391        39  SAPI      H3X            12.3729823004      -24.5639612868       17.9266195989  MEMB      39              0.0000000000
      4392        39  SAPI      H3Y            13.6369846188      -24.1686378602       16.9805997901  MEMB      39              0.0000000000
      4393        39  SAPI      C34            11.7892280349      -23.4808120672       16.1045174348  MEMB      39              0.0000000000
      4394        39  SAPI      H4X            10.9431620881      -22.9168930414       16.4965592049  MEMB      39              0.0000000000
      4395        39  SAPI      H4Y            11.5280962020      -24.4662068032       15.6485456355  MEMB      39              0.0000000000
      4396        39  SAPI      C35            12.2664707323      -22.6257431248       14.9490652919  MEMB      39              0.0000000000
      4397        39  SAPI      H5X            13.1886263234      -23.1949347478       14.8942080408  MEMB      39              0.0000000000
      4398        39  SAPI      H5Y            12.4138325814      -21.5475808803       15.1979821264  MEMB      39              0.0000000000
      4399        39  SAPI      C36            11.6934184098      -22.8047148235       13.5448214007  MEMB      39              0.0000000000
      4400        39  SAPI      H6X            11.9795348967      -21.9059385372       12.9398500682  MEMB      39              0.0000000000
      4401        39  SAPI      H6Y            10.6021542511      -22.8386794252       13.6821410079  MEMB      39              0.0000000000
      4402        39  SAPI      C37            12.2017035964      -24.0531514977       12.7955707997  MEMB      39              0.0000000000
      4403        39  SAPI      H7X            12.1057514992      -24.9536418034       13.4401583853  MEMB      39              0.0000000000
      4404        39  SAPI      H7Y            13.2704189369      -23.9325971229       12.5306196364  MEMB      39              0.0000000000
      4405        39  SAPI      C38            11.4447166040      -24.3395228333       11.4974943288  MEMB      39              0.0000000000
      4406        39  SAPI      H8X            10.3993884606      -24.5495696392       11.8027710300  MEMB      39              0.0000000000
      4407        39  SAPI      H8Y            11.8651071836      -25.2650803582       11.0422238641  MEMB      39              0.0000000000
      4408        39  SAPI      C39            11.4678533549      -23.1800115038       10.4950166603  MEMB      39              0.0000000000
      4409        39  SAPI      H9X            12.5214536526      -22.8516916897       10.3411392945  MEMB      39              0.0000000000
      4410        39  SAPI      H9Y            10.8952099669      -22.3182750035       10.9082602963  MEMB      39              0.0000000000
      4411        39  SAPI      C310           10.9103970299      -23.5266381645        9.1103188334  MEMB      39              0.0000000000
      4412        39  SAPI      H10X            9.8349412464      -23.8144578410        9.1466763901  MEMB      39              0.0000000000
      4413        39  SAPI      H10Y           11.5139873731      -24.3595915249        8.6814568851  MEMB      39              0.0000000000
      4414        39  SAPI      C311           11.0721995830      -22.3434024610        8.1673888480  MEMB      39              0.0000000000
      4415        39  SAPI      H11X           12.1690203443      -22.1544173243        8.1127679819  MEMB      39              0.0000000000
      4416        39  SAPI      H11Y           10.5626413409      -21.4488207877        8.5873824663  MEMB      39              0.0000000000
      4417        39  SAPI      C312           10.4989249637      -22.5896839976        6.7829047096  MEMB      39              0.0000000000
      4418        39  SAPI      H12X            9.4399066685      -22.9277098784        6.8332745691  MEMB      39              0.0000000000
      4419        39  SAPI      H12Y           11.0713895896      -23.3976061395        6.2747414976  MEMB      39              0.0000000000
      4420        39  SAPI      C313           10.5896845006      -21.3480449647        5.9183745205  MEMB      39              0.0000000000
      4421        39  SAPI      H13X           11.6079709644      -20.8967084734        5.9830380517  MEMB      39              0.0000000000
      4422        39  SAPI      H13Y            9.8543421461      -20.5543323040        6.2021853355  MEMB      39              0.0000000000
      4423        39  SAPI      C314           10.4335716360      -21.8034863348        4.4807936622  MEMB      39              0.0000000000
      4424        39  SAPI      H14X           11.0646827057      -22.6486684339        4.2142465977  MEMB      39              0.0000000000
      4425        39  SAPI      H14Y           10.8267898289      -20.9175510230        3.9189255332  MEMB      39              0.0000000000
      4426        39  SAPI      C315            9.0193119071      -22.3061527671        4.1253563039  MEMB      39              0.0000000000
      4427        39  SAPI      H15X            8.7722543278      -21.3218080076        4.3015500178  MEMB      39              0.0000000000
      4428        39  SAPI      H15Y            8.2203786757      -22.6063108897        4.8245235963  MEMB      39              0.0000000000
      4429        39  SAPI      C316            8.7480753216      -22.7205231913        2.6673486359  MEMB      39              0.0000000000
      4430        39  SAPI      H16X            9.3466280187      -22.1985849743        1.8770029736  MEMB      39              0.0000000000
      4431        39  SAPI      H16Y            7.6714856549      -22.6194314449        2.3687307287  MEMB      39              0.0000000000
      4432        39  SAPI      C317            9.1875412845      -24.1053936758        2.6389937751  MEMB      39              0.0000000000
      4433        39  SAPI      H17X            8.7288935136      -24.5096755093        3.5688344707  MEMB      39              0.0000000000
      4434        39  SAPI      H17Y           10.2995229995      -24.0412794421        2.7264795416  MEMB      39              0.0000000000
      4435        39  SAPI      C318            8.7164919414      -24.7790220488        1.3855701118  MEMB      39              0.0000000000
      4436        39  SAPI      H18X            7.6049207646      -24.8386463891        1.3677838939  MEMB      39              0.0000000000
      4437        39  SAPI      H18Y            9.1445595406      -25.7951197885        1.3746924245  MEMB      39              0.0000000000
      4438        39  SAPI      H18Z            9.0647656030      -24.2008773085        0.5023126019  MEMB      39              0.0000000000
      4439        40  SOPE      N              11.8334885125       20.8939168130       22.6854814558  MEMB      40              0.0000000000
      4440        40  SOPE      HN1            11.3465752339       20.5167607833       21.8477365642  MEMB      40              0.0000000000
      4441        40  SOPE      HN2            12.3067667874       20.1159651202       23.1991425961  MEMB      40              0.0000000000
      4442        40  SOPE      HN3            11.1205764120       21.3777109165       23.2926887053  MEMB      40              0.0000000000
      4443        40  SOPE      C12            12.8586295027       21.8818704864       22.2142583168  MEMB      40              0.0000000000
      4444        40  SOPE      H12A           13.4465622345       21.4155587944       21.3914694796  MEMB      40              0.0000000000
      4445        40  SOPE      H12B           13.5281904474       22.1315267701       23.0530863627  MEMB      40              0.0000000000
      4446        40  SOPE      C11            12.2595685362       23.2016020634       21.7825482502  MEMB      40              0.0000000000
      4447        40  SOPE      H11A           12.0827881140       23.8511046516       22.6773547150  MEMB      40              0.0000000000
      4448        40  SOPE      H11B           11.2912410801       23.0832731490       21.2451667248  MEMB      40              0.0000000000
      4449        40  SOPE      P              12.9453506260       25.1570734838       20.3005260953  MEMB      40              0.0000000000
      4450        40  SOPE      O13            14.0582779207       25.4270416707       19.3721073659  MEMB      40              0.0000000000
      4451        40  SOPE      O14            12.6989976130       26.1514883959       21.3574006038  MEMB      40              0.0000000000
      4452        40  SOPE      O12            13.2540233827       23.7638694440       20.9515722692  MEMB      40              0.0000000000
      4453        40  SOPE      O11            11.5910998926       24.8837537123       19.5152840369  MEMB      40              0.0000000000
      4454        40  SOPE      C1             11.4239251256       25.5456092243       18.2619652517  MEMB      40              0.0000000000
      4455        40  SOPE      HA             12.0615697622       26.4579263392       18.2081868730  MEMB      40              0.0000000000
      4456        40  SOPE      HB             10.3684933070       25.8936296839       18.1556631323  MEMB      40              0.0000000000
      4457        40  SOPE      C2             11.7823729810       24.5850013810       17.1011962655  MEMB      40              0.0000000000
      4458        40  SOPE      HS             10.9868317651       23.8195208352       17.0137081925  MEMB      40              0.0000000000
      4459        40  SOPE      O21            13.0668147419       24.0618554630       17.3038968706  MEMB      40              0.0000000000
      4460        40  SOPE      C21            13.4966303209       23.1173125719       16.5638802511  MEMB      40              0.0000000000
      4461        40  SOPE      O22            12.8481992688       22.4209720670       15.7911905595  MEMB      40              0.0000000000
      4462        40  SOPE      C22            15.0013663315       23.0282537998       16.8379501590  MEMB      40              0.0000000000
      4463        40  SOPE      H2R            15.4200081996       22.1409318754       16.3107288395  MEMB      40              0.0000000000
      4464        40  SOPE      H2S            15.1735820468       22.9982498571       17.9133477999  MEMB      40              0.0000000000
      4465        40  SOPE      C3             11.8359801800       25.2624641656       15.8187640934  MEMB      40              0.0000000000
      4466        40  SOPE      HX             10.8502160292       25.7596198558       15.9524293533  MEMB      40              0.0000000000
      4467        40  SOPE      HY             11.6581580058       24.6205690526       14.9029625709  MEMB      40              0.0000000000
      4468        40  SOPE      O31            13.0975444510       26.0946965521       15.8490241133  MEMB      40              0.0000000000
      4469        40  SOPE      C31            12.9481077918       26.8162377522       14.7838792518  MEMB      40              0.0000000000
      4470        40  SOPE      O32            11.9681793061       26.5291694032       14.1073205924  MEMB      40              0.0000000000
      4471        40  SOPE      C32            14.0517124783       28.0478961637       14.5684599402  MEMB      40              0.0000000000
      4472        40  SOPE      H2X            14.7999136478       27.6110658989       15.2459493468  MEMB      40              0.0000000000
      4473        40  SOPE      H2Y            13.6786595667       28.9225908068       14.9767178295  MEMB      40              0.0000000000
      4474        40  SOPE      C23            15.7053664695       24.2238853066       16.2772957880  MEMB      40              0.0000000000
      4475        40  SOPE      H3R            16.7581300040       24.3973937612       16.5977359952  MEMB      40              0.0000000000
      4476        40  SOPE      H3S            15.1641595461       25.2007534095       16.4275687856  MEMB      40              0.0000000000
      4477        40  SOPE      C24            15.5870860257       23.7143393251       14.8833619186  MEMB      40              0.0000000000
      4478        40  SOPE      H4R            14.5925389217       23.9043922970       14.3757160238  MEMB      40              0.0000000000
      4479        40  SOPE      H4S            16.4543173173       24.4238222512       14.7705925532  MEMB      40              0.0000000000
      4480        40  SOPE      C25            16.4514266295       23.2074766863       13.8134220368  MEMB      40              0.0000000000
      4481        40  SOPE      H5R            17.3964736874       22.9686152350       14.3167820284  MEMB      40              0.0000000000
      4482        40  SOPE      H5S            15.7088441561       22.3878057828       13.6420728135  MEMB      40              0.0000000000
      4483        40  SOPE      C26            16.6960838767       23.8895881782       12.4629811227  MEMB      40              0.0000000000
      4484        40  SOPE      H6R            16.9854173158       24.9329038385       12.2895432962  MEMB      40              0.0000000000
      4485        40  SOPE      H6S            17.7174893311       23.7397194379       12.1912153653  MEMB      40              0.0000000000
      4486        40  SOPE      C27            15.5428604059       23.5503294029       11.5629280154  MEMB      40              0.0000000000
      4487        40  SOPE      H7R            14.9851568686       22.6504933738       11.7421211592  MEMB      40              0.0000000000
      4488        40  SOPE      H7S            14.7883439717       24.1713842092       11.2234967624  MEMB      40              0.0000000000
      4489        40  SOPE      C28            15.6610406176       23.9284738296       10.1317655700  MEMB      40              0.0000000000
      4490        40  SOPE      H8R            16.5413121349       23.3284532155       10.4458450688  MEMB      40              0.0000000000
      4491        40  SOPE      H8S            14.8173159916       23.3227118337        9.6688213126  MEMB      40              0.0000000000
      4492        40  SOPE      C29            16.4735484499       24.7244544722        9.1773107960  MEMB      40              0.0000000000
      4493        40  SOPE      H91            17.2157684594       25.3395670148        9.6634992810  MEMB      40              0.0000000000
      4494        40  SOPE      C210           16.5347265692       24.7138433442        7.8333415321  MEMB      40              0.0000000000
      4495        40  SOPE      H101           17.4174019018       25.0947638731        7.3136219955  MEMB      40              0.0000000000
      4496        40  SOPE      C211           15.8532675899       23.9303429454        6.8388586426  MEMB      40              0.0000000000
      4497        40  SOPE      H11R           14.8094699604       23.5068761851        6.8679953460  MEMB      40              0.0000000000
      4498        40  SOPE      H11S           16.5759020304       23.1938832733        7.1895685197  MEMB      40              0.0000000000
      4499        40  SOPE      C212           16.4657184203       23.6597893359        5.5548431692  MEMB      40              0.0000000000
      4500        40  SOPE      H12R           15.7834991685       22.7921071397        5.3972493330  MEMB      40              0.0000000000
      4501        40  SOPE      H12S           17.5809584579       23.4763941550        5.6094698251  MEMB      40              0.0000000000
      4502        40  SOPE      C213           16.2774290041       24.6102357521        4.5218587526  MEMB      40              0.0000000000
      4503        40  SOPE      H13R           17.0830472584       25.2864784148        4.8693372060  MEMB      40              0.0000000000
      4504        40  SOPE      H13S           15.1942002722       24.7817535405        4.7495780222  MEMB      40              0.0000000000
      4505        40  SOPE      C214           16.4908061720       24.1541212292        3.1021977032  MEMB      40              0.0000000000
      4506        40  SOPE      H14R           16.0121656727       24.8653130201        2.4171303819  MEMB      40              0.0000000000
      4507        40  SOPE      H14S           15.7003607383       23.4171920595        3.0004371841  MEMB      40              0.0000000000
      4508        40  SOPE      C215           17.9453837682       23.8229014217        2.5826711414  MEMB      40              0.0000000000
      4509        40  SOPE      H15R           17.8643165253       23.6523584960        1.4934656206  MEMB      40              0.0000000000
      4510        40  SOPE      H15S           18.4889066092       22.9224498847        2.9219601124  MEMB      40              0.0000000000
      4511        40  SOPE      C216           19.0120299699       24.8467686579        2.8346247452  MEMB      40              0.0000000000
      4512        40  SOPE      H16R           19.9317887320       24.5681666296        2.2883286352  MEMB      40              0.0000000000
      4513        40  SOPE      H16S           19.2122287544       24.8286589604        3.9297780068  MEMB      40              0.0000000000
      4514        40  SOPE      C217           18.5471391668       26.1852650899        2.3744305635  MEMB      40              0.0000000000
      4515        40  SOPE      H17R           19.1836900503       26.9458066315        2.8605917199  MEMB      40              0.0000000000
      4516        40  SOPE      H17S           17.5482519660       26.2041402891        2.7862759108  MEMB      40              0.0000000000
      4517        40  SOPE      C218           18.4167380261       26.4100834873        0.8781446760  MEMB      40              0.0000000000
      4518        40  SOPE      H18R           17.9434661989       25.5349204811        0.3972605509  MEMB      40              0.0000000000
      4519        40  SOPE      H18S           19.4225075973       26.6214150736        0.4864625460  MEMB      40              0.0000000000
      4520        40  SOPE      H18T           17.7732153678       27.2652293836        0.6019369802  MEMB      40              0.0000000000
      4521        40  SOPE      C33            14.6514648451       28.6479133280       13.1126294765  MEMB      40              0.0000000000
      4522        40  SOPE      H3X            13.8805878378       29.1537828715       12.8442870368  MEMB      40              0.0000000000
      4523        40  SOPE      H3Y            14.8578179460       28.0746754740       12.2805821576  MEMB      40              0.0000000000
      4524        40  SOPE      C34            15.9043709334       29.2699635113       12.4678730680  MEMB      40              0.0000000000
      4525        40  SOPE      H4X            16.0100178851       28.6902457934       13.3123294282  MEMB      40              0.0000000000
      4526        40  SOPE      H4Y            16.3777891187       30.1430062856       12.7216199946  MEMB      40              0.0000000000
      4527        40  SOPE      C35            16.8770969847       29.1523941852       11.3430746305  MEMB      40              0.0000000000
      4528        40  SOPE      H5X            17.8640243583       29.4839801223       11.6092942750  MEMB      40              0.0000000000
      4529        40  SOPE      H5Y            16.5693803538       30.1767891021       10.9356775498  MEMB      40              0.0000000000
      4530        40  SOPE      C36            16.5894565970       27.8247563032       10.6422212055  MEMB      40              0.0000000000
      4531        40  SOPE      H6X            15.6053059605       27.5623020589       10.7832173107  MEMB      40              0.0000000000
      4532        40  SOPE      H6Y            17.0005153291       26.8522132904       10.9604805020  MEMB      40              0.0000000000
      4533        40  SOPE      C37            16.4179786139       27.7912102188        9.2377982211  MEMB      40              0.0000000000
      4534        40  SOPE      H7X            16.2643622540       26.9185398094        8.6727669901  MEMB      40              0.0000000000
      4535        40  SOPE      H7Y            17.4966428301       27.8737789972        9.5117033863  MEMB      40              0.0000000000
      4536        40  SOPE      C38            15.8383579862       28.8679672840        8.3714490739  MEMB      40              0.0000000000
      4537        40  SOPE      H8X            16.3241045027       29.7145067343        7.8759796399  MEMB      40              0.0000000000
      4538        40  SOPE      H8Y            16.1899272517       29.7400385184        8.8777166212  MEMB      40              0.0000000000
      4539        40  SOPE      C39            14.5700460247       28.6301766032        7.6946942893  MEMB      40              0.0000000000
      4540        40  SOPE      H9X            13.6459211589       28.8326457163        8.1435294307  MEMB      40              0.0000000000
      4541        40  SOPE      H9Y            14.2012817521       27.6406306059        7.5133165915  MEMB      40              0.0000000000
      4542        40  SOPE      C310           14.3749654052       29.8163306356        6.9299471773  MEMB      40              0.0000000000
      4543        40  SOPE      H10X           14.9048291327       30.6915781100        7.3843777113  MEMB      40              0.0000000000
      4544        40  SOPE      H10Y           13.2249656992       29.9390627156        6.7646668769  MEMB      40              0.0000000000
      4545        40  SOPE      C311           15.1456336962       29.9334850469        5.8624726731  MEMB      40              0.0000000000
      4546        40  SOPE      H11X           15.9457874250       30.7382243706        5.8157285771  MEMB      40              0.0000000000
      4547        40  SOPE      H11Y           14.4780774766       30.5736234770        5.6420957461  MEMB      40              0.0000000000
      4548        40  SOPE      C312           14.2528698261       29.0021560482        5.1737565131  MEMB      40              0.0000000000
      4549        40  SOPE      H12X           13.2561577116       28.6747942813        5.4856482945  MEMB      40              0.0000000000
      4550        40  SOPE      H12Y           14.8573651714       28.1858165789        5.5661588820  MEMB      40              0.0000000000
      4551        40  SOPE      C313           14.1252590918       29.3390663914        3.7771167966  MEMB      40              0.0000000000
      4552        40  SOPE      H13X           15.0626166126       29.9259962226        3.5745254232  MEMB      40              0.0000000000
      4553        40  SOPE      H13Y           13.3584708957       29.9031622330        3.3696340179  MEMB      40              0.0000000000
      4554        40  SOPE      C314           13.6613730736       28.2914534386        2.9386030822  MEMB      40              0.0000000000
      4555        40  SOPE      H14X           14.2739198597       27.4268307135        3.2479868523  MEMB      40              0.0000000000
      4556        40  SOPE      H14Y           13.7118417933       28.7376509065        1.9076753961  MEMB      40              0.0000000000
      4557        40  SOPE      C315           12.5918750902       27.4128095953        3.0079812109  MEMB      40              0.0000000000
      4558        40  SOPE      H15X           11.8382050216       27.9956048124        2.5007645025  MEMB      40              0.0000000000
      4559        40  SOPE      H15Y           12.4247333724       27.2054519875        4.0816633868  MEMB      40              0.0000000000
      4560        40  SOPE      C316           13.0443351961       26.2463908043        2.1069270690  MEMB      40              0.0000000000
      4561        40  SOPE      H16X           13.7731407156       25.5906564498        2.6386567033  MEMB      40              0.0000000000
      4562        40  SOPE      H16Y           13.5577697642       26.5498367853        1.1521721330  MEMB      40              0.0000000000
      4563        40  SOPE      C317           11.7211882969       25.6507416145        1.8686969474  MEMB      40              0.0000000000
      4564        40  SOPE      H17X           11.1721002614       26.3607209058        1.2053775134  MEMB      40              0.0000000000
      4565        40  SOPE      H17Y           11.2431886823       25.6550171403        2.8809907613  MEMB      40              0.0000000000
      4566        40  SOPE      C318           11.7441101254       24.2546906518        1.3339219805  MEMB      40              0.0000000000
      4567        40  SOPE      H18X           10.6909232057       23.9698582102        1.1390734079  MEMB      40              0.0000000000
      4568        40  SOPE      H18Y           12.1864595001       23.5828339566        2.1017315676  MEMB      40              0.0000000000
      4569        40  SOPE      H18Z           12.3361857376       24.1933861314        0.3978470249  MEMB      40              0.0000000000
      4570        41  SAPE      N             -27.6846701426       -2.6424019553       17.9351665060  MEMB      41              0.0000000000
      4571        41  SAPE      HN1           -28.1031726772       -2.2627564246       17.0667538832  MEMB      41              0.0000000000
      4572        41  SAPE      HN2           -26.8467968164       -2.0885598937       18.2344210870  MEMB      41              0.0000000000
      4573        41  SAPE      HN3           -27.3529155559       -3.6141856840       17.7921475794  MEMB      41              0.0000000000
      4574        41  SAPE      C12           -28.6307964847       -2.6948005349       19.0989003689  MEMB      41              0.0000000000
      4575        41  SAPE      H12A          -29.4464915773       -3.3723449617       18.7774556188  MEMB      41              0.0000000000
      4576        41  SAPE      H12B          -29.0657050564       -1.6925307602       19.2906731086  MEMB      41              0.0000000000
      4577        41  SAPE      C11           -27.8782736221       -3.1793501931       20.3548831347  MEMB      41              0.0000000000
      4578        41  SAPE      H11A          -27.2743094856       -4.0939427822       20.1413735691  MEMB      41              0.0000000000
      4579        41  SAPE      H11B          -28.6115093075       -3.4831464945       21.1327786018  MEMB      41              0.0000000000
      4580        41  SAPE      P             -25.6150030489       -1.7864685450       20.5838745566  MEMB      41              0.0000000000
      4581        41  SAPE      O13           -25.6453041240       -0.4606538870       19.9413064699  MEMB      41              0.0000000000
      4582        41  SAPE      O14           -24.7504753267       -1.9873263896       21.7610784216  MEMB      41              0.0000000000
      4583        41  SAPE      O12           -27.1157935867       -2.1230968218       20.9254167533  MEMB      41              0.0000000000
      4584        41  SAPE      O11           -25.3300948154       -2.8609915801       19.4538183189  MEMB      41              0.0000000000
      4585        41  SAPE      C1            -23.9561127743       -3.0567752708       19.1172109285  MEMB      41              0.0000000000
      4586        41  SAPE      HA            -23.2428361042       -2.8161000485       19.9519917102  MEMB      41              0.0000000000
      4587        41  SAPE      HB            -23.7914616890       -4.1415152381       18.9322387087  MEMB      41              0.0000000000
      4588        41  SAPE      C2            -23.6185880974       -2.1642588456       17.8981916724  MEMB      41              0.0000000000
      4589        41  SAPE      HS            -23.7102605169       -1.0893149069       18.1953662676  MEMB      41              0.0000000000
      4590        41  SAPE      O21           -24.4101531498       -2.5564152640       16.7609605247  MEMB      41              0.0000000000
      4591        41  SAPE      C21           -25.0015190666       -1.6047069470       16.0936231594  MEMB      41              0.0000000000
      4592        41  SAPE      O22           -25.1833041634       -0.4524382584       16.4154870850  MEMB      41              0.0000000000
      4593        41  SAPE      C22           -25.6291097446       -2.2605205889       14.8761347402  MEMB      41              0.0000000000
      4594        41  SAPE      H2R           -24.8048915768       -2.6543433279       14.2438027547  MEMB      41              0.0000000000
      4595        41  SAPE      H2S           -26.2820317421       -3.0808238097       15.2288934710  MEMB      41              0.0000000000
      4596        41  SAPE      C3            -22.1718971071       -2.3399146975       17.5251945825  MEMB      41              0.0000000000
      4597        41  SAPE      HX            -22.0350979559       -3.4177362983       17.2857985925  MEMB      41              0.0000000000
      4598        41  SAPE      HY            -21.5717560593       -2.1235006204       18.4264510359  MEMB      41              0.0000000000
      4599        41  SAPE      O31           -21.7828127501       -1.5824145267       16.3785038581  MEMB      41              0.0000000000
      4600        41  SAPE      C31           -21.7673431199       -0.2708630173       16.4437372318  MEMB      41              0.0000000000
      4601        41  SAPE      O32           -21.9449850707        0.4270981038       17.4144019718  MEMB      41              0.0000000000
      4602        41  SAPE      C32           -21.6486439105        0.2834803780       15.0233573315  MEMB      41              0.0000000000
      4603        41  SAPE      H2X           -20.5899838886        0.5211246596       15.0472436301  MEMB      41              0.0000000000
      4604        41  SAPE      H2Y           -22.0326617048        1.3153087503       14.9725368025  MEMB      41              0.0000000000
      4605        41  SAPE      C23           -26.5414556274       -1.3230527404       14.0904815575  MEMB      41              0.0000000000
      4606        41  SAPE      H3R           -27.2550104096       -0.7793022803       14.7619872545  MEMB      41              0.0000000000
      4607        41  SAPE      H3S           -27.1331783636       -1.9871737410       13.3918529833  MEMB      41              0.0000000000
      4608        41  SAPE      C24           -25.7528149433       -0.3273985994       13.2774985990  MEMB      41              0.0000000000
      4609        41  SAPE      H4R           -24.9965287003       -0.8612692123       12.6615462227  MEMB      41              0.0000000000
      4610        41  SAPE      H4S           -25.2323976884        0.4519783368       13.8520148805  MEMB      41              0.0000000000
      4611        41  SAPE      C25           -26.9636038287        0.1647674291       12.5805588835  MEMB      41              0.0000000000
      4612        41  SAPE      H5R           -27.5938031343        0.9526174924       13.0077504466  MEMB      41              0.0000000000
      4613        41  SAPE      C26           -27.1211484543       -0.0330509687       11.3468103745  MEMB      41              0.0000000000
      4614        41  SAPE      H6R           -27.8718633796        0.6689863028       10.9384209949  MEMB      41              0.0000000000
      4615        41  SAPE      C27           -26.0805252248       -0.7344860601       10.4908565822  MEMB      41              0.0000000000
      4616        41  SAPE      H7R           -25.0456408553       -0.9379804580       10.8037697329  MEMB      41              0.0000000000
      4617        41  SAPE      H7S           -25.4384217011        0.0640429451       10.1573069695  MEMB      41              0.0000000000
      4618        41  SAPE      C28           -26.5950216120       -1.8103456391        9.5850521477  MEMB      41              0.0000000000
      4619        41  SAPE      H8R           -26.4291541143       -2.6875279415       10.2020660608  MEMB      41              0.0000000000
      4620        41  SAPE      C29           -27.1520499055       -2.0018591155        8.3509841356  MEMB      41              0.0000000000
      4621        41  SAPE      H9R           -27.5102212375       -3.0144621635        8.1549216959  MEMB      41              0.0000000000
      4622        41  SAPE      C210          -27.5574245598       -1.1252643384        7.1885806074  MEMB      41              0.0000000000
      4623        41  SAPE      H10R          -27.6532317788       -0.1455396049        7.5958181323  MEMB      41              0.0000000000
      4624        41  SAPE      H10S          -28.6208098719       -1.1662528950        6.8954941087  MEMB      41              0.0000000000
      4625        41  SAPE      C211          -26.6477514545       -1.1772364868        5.9717474560  MEMB      41              0.0000000000
      4626        41  SAPE      H11R          -25.7269702873       -1.7700528858        6.0942303591  MEMB      41              0.0000000000
      4627        41  SAPE      C212          -26.8022392534       -0.4790422092        4.8251066686  MEMB      41              0.0000000000
      4628        41  SAPE      H12R          -25.9165493470       -0.3312500880        4.1797409095  MEMB      41              0.0000000000
      4629        41  SAPE      C213          -27.8960435830        0.4979141597        4.4891746272  MEMB      41              0.0000000000
      4630        41  SAPE      H13R          -27.4343363382        1.3751025093        4.0613619763  MEMB      41              0.0000000000
      4631        41  SAPE      H13S          -28.5450512505        0.9053356345        5.2985503472  MEMB      41              0.0000000000
      4632        41  SAPE      C214          -28.9784289738        0.0677910114        3.6863393049  MEMB      41              0.0000000000
      4633        41  SAPE      H14R          -29.4901365031       -0.7756207941        4.1497905186  MEMB      41              0.0000000000
      4634        41  SAPE      C215          -29.2637267486        0.6855395717        2.5541779895  MEMB      41              0.0000000000
      4635        41  SAPE      H15R          -30.1599924669        0.3623495814        2.0429454189  MEMB      41              0.0000000000
      4636        41  SAPE      C216          -28.5063851136        1.8663104769        1.9768574073  MEMB      41              0.0000000000
      4637        41  SAPE      H16R          -27.5213318128        2.1595404716        2.4165697149  MEMB      41              0.0000000000
      4638        41  SAPE      H16S          -29.0897998607        2.7562391804        2.0381529403  MEMB      41              0.0000000000
      4639        41  SAPE      C217          -28.3273475887        1.8343548091        0.4915973229  MEMB      41              0.0000000000
      4640        41  SAPE      H17R          -27.8009610987        2.8022599848        0.2778620568  MEMB      41              0.0000000000
      4641        41  SAPE      H17S          -29.2962044636        1.8495775212       -0.0383956141  MEMB      41              0.0000000000
      4642        41  SAPE      C218          -27.4507400790        0.6794522380        0.0911588159  MEMB      41              0.0000000000
      4643        41  SAPE      H18R          -26.6754834050        0.5531100938        0.8850631076  MEMB      41              0.0000000000
      4644        41  SAPE      H18S          -27.0263005614        1.0050356777       -0.8682810517  MEMB      41              0.0000000000
      4645        41  SAPE      C219          -28.0755718582       -0.6903257344       -0.1498116627  MEMB      41              0.0000000000
      4646        41  SAPE      H19R          -27.9339874552       -1.2805982715        0.7812339592  MEMB      41              0.0000000000
      4647        41  SAPE      H19S          -27.4701050480       -1.1631378282       -0.9579545904  MEMB      41              0.0000000000
      4648        41  SAPE      C220          -29.5378616692       -0.7253655173       -0.5765193310  MEMB      41              0.0000000000
      4649        41  SAPE      H20R          -30.1839877261       -0.2452178059        0.1842139752  MEMB      41              0.0000000000
      4650        41  SAPE      H20S          -29.8583036824       -1.7785211076       -0.6837710141  MEMB      41              0.0000000000
      4651        41  SAPE      H20T          -29.6886598426       -0.2161516351       -1.5500732227  MEMB      41              0.0000000000
      4652        41  SAPE      C33           -22.2867780346       -0.6417439287       13.8762549157  MEMB      41              0.0000000000
      4653        41  SAPE      H3X           -23.2665824770       -0.1592831309       13.7375222703  MEMB      41              0.0000000000
      4654        41  SAPE      H3Y           -22.3139158607       -1.7052162028       14.1544449089  MEMB      41              0.0000000000
      4655        41  SAPE      C34           -21.7299720226       -0.6072297179       12.4407070262  MEMB      41              0.0000000000
      4656        41  SAPE      H4X           -20.7968131906       -1.2153110598       12.4066125556  MEMB      41              0.0000000000
      4657        41  SAPE      H4Y           -21.6611434512        0.4912534849       12.4421578884  MEMB      41              0.0000000000
      4658        41  SAPE      C35           -22.1568626212       -1.2546241900       11.1428535627  MEMB      41              0.0000000000
      4659        41  SAPE      H5X           -23.1099217164       -0.7755263300       10.9027401822  MEMB      41              0.0000000000
      4660        41  SAPE      H5Y           -22.1654899277       -2.3404238511       11.3688194296  MEMB      41              0.0000000000
      4661        41  SAPE      C36           -21.1751972655       -1.1153821719        9.9444668359  MEMB      41              0.0000000000
      4662        41  SAPE      H6X           -20.1457280954       -1.5294979470       10.0652081560  MEMB      41              0.0000000000
      4663        41  SAPE      H6Y           -21.0683652985       -0.0717924735        9.7062515557  MEMB      41              0.0000000000
      4664        41  SAPE      C37           -21.7881155457       -1.2211073397        8.5666081307  MEMB      41              0.0000000000
      4665        41  SAPE      H7X           -22.6438019084       -0.4956211004        8.5698775642  MEMB      41              0.0000000000
      4666        41  SAPE      H7Y           -22.1709682405       -2.2440349205        8.4496271092  MEMB      41              0.0000000000
      4667        41  SAPE      C38           -20.7745265716       -0.7713706000        7.4939146854  MEMB      41              0.0000000000
      4668        41  SAPE      H8X           -20.0226227827       -1.5803106720        7.3609241614  MEMB      41              0.0000000000
      4669        41  SAPE      H8Y           -20.2235876846        0.1527838158        7.7745929958  MEMB      41              0.0000000000
      4670        41  SAPE      C39           -21.3996891138       -0.4084295596        6.1632269588  MEMB      41              0.0000000000
      4671        41  SAPE      H9X           -20.6198827260        0.0648372694        5.5244461416  MEMB      41              0.0000000000
      4672        41  SAPE      H9Y           -22.2441978505        0.3068512088        6.2981389466  MEMB      41              0.0000000000
      4673        41  SAPE      C310          -21.8794526220       -1.6463978086        5.4642189173  MEMB      41              0.0000000000
      4674        41  SAPE      H10X          -22.5042456273       -2.2386058512        6.1750639578  MEMB      41              0.0000000000
      4675        41  SAPE      H10Y          -21.0001752949       -2.3151940426        5.2566503261  MEMB      41              0.0000000000
      4676        41  SAPE      C311          -22.7951091051       -1.2818429607        4.2231410113  MEMB      41              0.0000000000
      4677        41  SAPE      H11X          -22.0650540789       -1.1917351683        3.3630532790  MEMB      41              0.0000000000
      4678        41  SAPE      H11Y          -23.2363626084       -0.3056567237        4.2998588663  MEMB      41              0.0000000000
      4679        41  SAPE      C312          -24.1506397115       -2.2106635773        4.1058253411  MEMB      41              0.0000000000
      4680        41  SAPE      H12X          -24.3470221651       -3.1453730335        4.6494660898  MEMB      41              0.0000000000
      4681        41  SAPE      H12Y          -23.2786663099       -2.6673640672        4.4005157371  MEMB      41              0.0000000000
      4682        41  SAPE      C313          -25.0321511049       -2.3368892727        2.6770072946  MEMB      41              0.0000000000
      4683        41  SAPE      H13X          -24.1082416209       -2.0012995314        2.3998526984  MEMB      41              0.0000000000
      4684        41  SAPE      H13Y          -25.6247188863       -1.4516223366        2.6025510538  MEMB      41              0.0000000000
      4685        41  SAPE      C314          -25.4432121012       -3.5114989651        1.4439564988  MEMB      41              0.0000000000
      4686        41  SAPE      H14X          -26.3219323648       -3.3577504403        0.8329770781  MEMB      41              0.0000000000
      4687        41  SAPE      H14Y          -25.7454448166       -4.2552948430        2.1807536986  MEMB      41              0.0000000000
      4688        41  SAPE      C315          -24.5554763695       -4.4613485829        0.4230128630  MEMB      41              0.0000000000
      4689        41  SAPE      H15X          -23.7290503051       -5.1002793827        0.6951076818  MEMB      41              0.0000000000
      4690        41  SAPE      H15Y          -23.6843711058       -4.2824685005       -0.0620466478  MEMB      41              0.0000000000
      4691        41  SAPE      C316          -24.6740642668       -5.3569737219       -0.5534604163  MEMB      41              0.0000000000
      4692        41  SAPE      H16X          -25.1683747444       -4.7838448407       -1.2885182496  MEMB      41              0.0000000000
      4693        41  SAPE      H16Y          -25.2688293588       -5.9154668329        0.2012288590  MEMB      41              0.0000000000
      4694        41  SAPE      C317          -23.2379659444       -5.8025169253       -1.1197859497  MEMB      41              0.0000000000
      4695        41  SAPE      H17X          -23.3230672434       -6.8047393863       -1.3310997599  MEMB      41              0.0000000000
      4696        41  SAPE      H17Y          -22.5341440660       -6.3887011896       -0.6184576605  MEMB      41              0.0000000000
      4697        41  SAPE      C318          -22.3652856153       -4.8066761204       -1.9097159341  MEMB      41              0.0000000000
      4698        41  SAPE      H18X          -21.7964908380       -5.1678415421       -2.7529982652  MEMB      41              0.0000000000
      4699        41  SAPE      H18Y          -21.5209836498       -4.3254958483       -1.3634450184  MEMB      41              0.0000000000
      4700        41  SAPE      H18Z          -23.1527268509       -4.2696484191       -2.4244610443  MEMB      41              0.0000000000
      4701        42  OSM       N             -14.1256091968      -25.4542407347       20.4217426771  MEMB      42              0.0000000000
      4702        42  OSM       C15           -14.4543562971      -26.8918171201       20.6039590839  MEMB      42              0.0000000000
      4703        42  OSM       H15A          -15.3542361980      -27.1133738943       20.0442688455  MEMB      42              0.0000000000
      4704        42  OSM       H15B          -14.6678296927      -27.0952612341       21.6500359052  MEMB      42              0.0000000000
      4705        42  OSM       H15C          -13.6500663052      -27.5077116240       20.2529022181  MEMB      42              0.0000000000
      4706        42  OSM       C14           -13.8699853589      -25.1157775120       18.9839922013  MEMB      42              0.0000000000
      4707        42  OSM       H14A          -13.9605676186      -24.0364851271       18.8396655714  MEMB      42              0.0000000000
      4708        42  OSM       H14B          -14.5922895194      -25.6062333354       18.3406128583  MEMB      42              0.0000000000
      4709        42  OSM       H14C          -12.8778922310      -25.3844223605       18.6519137259  MEMB      42              0.0000000000
      4710        42  OSM       C13           -15.3547462789      -24.7370067360       20.8684286392  MEMB      42              0.0000000000
      4711        42  OSM       H13A          -15.4745125448      -24.7952103054       21.9460015142  MEMB      42              0.0000000000
      4712        42  OSM       H13B          -16.2455315705      -25.1657423311       20.4213786830  MEMB      42              0.0000000000
      4713        42  OSM       H13C          -15.3054410729      -23.6788261607       20.6264070319  MEMB      42              0.0000000000
      4714        42  OSM       C12           -12.9267023546      -25.1382762394       21.3143664600  MEMB      42              0.0000000000
      4715        42  OSM       H12A          -12.0972301270      -25.7988998768       21.0889279601  MEMB      42              0.0000000000
      4716        42  OSM       H12B          -13.2348641105      -25.3861648160       22.3255533954  MEMB      42              0.0000000000
      4717        42  OSM       C11           -12.3958359003      -23.6899936500       21.3830576593  MEMB      42              0.0000000000
      4718        42  OSM       H11A          -12.0768260713      -23.3131856927       20.3804820235  MEMB      42              0.0000000000
      4719        42  OSM       H11B          -11.4774902220      -23.7268334420       22.0198446652  MEMB      42              0.0000000000
      4720        42  OSM       P             -13.8561103767      -21.4290603277       21.5715455781  MEMB      42              0.0000000000
      4721        42  OSM       O13           -14.8478211172      -20.8873028617       22.5331747645  MEMB      42              0.0000000000
      4722        42  OSM       O14           -12.6703144875      -20.6167505279       21.2370505220  MEMB      42              0.0000000000
      4723        42  OSM       O11           -14.5938251970      -21.7959293963       20.1930415242  MEMB      42              0.0000000000
      4724        42  OSM       O12           -13.3709040382      -22.8813349042       22.0309156102  MEMB      42              0.0000000000
      4725        42  OSM       C1S           -14.8282756248      -20.5812585665       19.4631395646  MEMB      42              0.0000000000
      4726        42  OSM       H1S           -13.8879202517      -20.0248162738       19.2596213603  MEMB      42              0.0000000000
      4727        42  OSM       H1T           -15.5047628689      -19.8691550438       20.0139759712  MEMB      42              0.0000000000
      4728        42  OSM       NF            -15.3228819933      -19.8663743840       17.3507075520  MEMB      42              0.0000000000
      4729        42  OSM       HNF           -16.0193580370      -19.1133187447       17.3453115089  MEMB      42              0.0000000000
      4730        42  OSM       C2S           -15.5601792495      -20.8245736808       18.1414789197  MEMB      42              0.0000000000
      4731        42  OSM       H2S           -15.1606052130      -21.7147016758       17.5882694966  MEMB      42              0.0000000000
      4732        42  OSM       C3S           -16.9611582876      -20.7923349536       18.2620427364  MEMB      42              0.0000000000
      4733        42  OSM       H3S           -17.4681727800      -19.9079341730       18.6294411227  MEMB      42              0.0000000000
      4734        42  OSM       O3            -17.1777362688      -21.5932559410       19.4031805502  MEMB      42              0.0000000000
      4735        42  OSM       HO3           -16.4238535565      -22.1988277443       19.5372607348  MEMB      42              0.0000000000
      4736        42  OSM       C4S           -17.6202794924      -21.0806017920       16.8751838445  MEMB      42              0.0000000000
      4737        42  OSM       H4S           -18.4837877534      -20.4512784553       16.6743651177  MEMB      42              0.0000000000
      4738        42  OSM       C5S           -17.3584678901      -21.9641956973       15.8742897092  MEMB      42              0.0000000000
      4739        42  OSM       H5S           -16.6769790141      -22.8012544529       16.0453667603  MEMB      42              0.0000000000
      4740        42  OSM       C6S           -18.3414901001      -22.0849574670       14.7358490651  MEMB      42              0.0000000000
      4741        42  OSM       H6S           -19.2090294891      -21.4073662174       14.7967708372  MEMB      42              0.0000000000
      4742        42  OSM       H6T           -19.0497123107      -22.9612651795       14.7301457872  MEMB      42              0.0000000000
      4743        42  OSM       C7S           -17.5597486079      -22.2110319169       13.5160958544  MEMB      42              0.0000000000
      4744        42  OSM       H7S           -17.0863898070      -23.1970039683       13.2811000001  MEMB      42              0.0000000000
      4745        42  OSM       H7T           -16.7197948423      -21.4760177836       13.5948380305  MEMB      42              0.0000000000
      4746        42  OSM       C8S           -18.5342146088      -21.7654589300       12.4880854921  MEMB      42              0.0000000000
      4747        42  OSM       H8S           -18.8068678861      -20.7190952115       12.8188872311  MEMB      42              0.0000000000
      4748        42  OSM       H8T           -19.4743635586      -22.2874828197       12.3108441622  MEMB      42              0.0000000000
      4749        42  OSM       C9S           -17.7524648835      -21.7654469118       11.2606295150  MEMB      42              0.0000000000
      4750        42  OSM       H9S           -16.6762566673      -21.6030658663       11.5802398193  MEMB      42              0.0000000000
      4751        42  OSM       H9T           -18.2636779000      -20.9126733554       10.7269821800  MEMB      42              0.0000000000
      4752        42  OSM       C10S          -17.7152326333      -22.8185782519       10.1995745242  MEMB      42              0.0000000000
      4753        42  OSM       H10S          -18.7519569621      -22.8034089559        9.8078085093  MEMB      42              0.0000000000
      4754        42  OSM       H10T          -17.4361826343      -23.7416318045       10.7374757538  MEMB      42              0.0000000000
      4755        42  OSM       C11S          -16.6728910915      -22.5510660780        9.0723402966  MEMB      42              0.0000000000
      4756        42  OSM       H11S          -15.6480631227      -22.7164409190        9.4532477361  MEMB      42              0.0000000000
      4757        42  OSM       H11T          -16.7651131431      -21.6046685955        8.5272352933  MEMB      42              0.0000000000
      4758        42  OSM       C12S          -16.8290380260      -23.3497789923        7.8539111773  MEMB      42              0.0000000000
      4759        42  OSM       H12S          -17.8251069394      -23.1211923197        7.4120432292  MEMB      42              0.0000000000
      4760        42  OSM       H12T          -16.7793496834      -24.2078933504        8.4510846787  MEMB      42              0.0000000000
      4761        42  OSM       C13S          -15.6017976185      -23.6380020880        6.9715617823  MEMB      42              0.0000000000
      4762        42  OSM       H13S          -15.8279444172      -24.5161767046        6.3348251192  MEMB      42              0.0000000000
      4763        42  OSM       H13T          -14.7947818750      -23.9454821640        7.6542343705  MEMB      42              0.0000000000
      4764        42  OSM       C14S          -15.0435046229      -22.5043077265        6.1254161567  MEMB      42              0.0000000000
      4765        42  OSM       H14S          -14.3809755044      -22.7859482160        5.2894140352  MEMB      42              0.0000000000
      4766        42  OSM       H14T          -14.6626934243      -21.7106752635        6.7875818617  MEMB      42              0.0000000000
      4767        42  OSM       C15S          -16.0944261427      -21.8403552809        5.4220225745  MEMB      42              0.0000000000
      4768        42  OSM       H15S          -15.9531536259      -20.9019847557        4.8511385497  MEMB      42              0.0000000000
      4769        42  OSM       H15T          -16.7702569325      -21.6785060837        6.2901399096  MEMB      42              0.0000000000
      4770        42  OSM       C16S          -16.8709840817      -22.6959891857        4.5901785021  MEMB      42              0.0000000000
      4771        42  OSM       H16S          -17.4750334117      -21.9108639602        4.1165971291  MEMB      42              0.0000000000
      4772        42  OSM       H16T          -17.6696904813      -22.9564127903        5.2403702750  MEMB      42              0.0000000000
      4773        42  OSM       C17S          -16.3282119678      -23.8821822542        3.7372509853  MEMB      42              0.0000000000
      4774        42  OSM       H17S          -17.1068243892      -24.4251429505        3.1504290553  MEMB      42              0.0000000000
      4775        42  OSM       H17T          -15.8897949773      -24.6834176668        4.3243330023  MEMB      42              0.0000000000
      4776        42  OSM       C18S          -15.5338610599      -23.4197529581        2.5759391864  MEMB      42              0.0000000000
      4777        42  OSM       H18S          -14.6643198582      -22.7921735979        2.7772878480  MEMB      42              0.0000000000
      4778        42  OSM       H18T          -16.1807634847      -22.6335688311        2.3204269499  MEMB      42              0.0000000000
      4779        42  OSM       H18U          -15.5901381194      -24.0668992942        1.6713867415  MEMB      42              0.0000000000
      4780        42  OSM       C1F           -14.2100363769      -19.6060412834       16.9512313251  MEMB      42              0.0000000000
      4781        42  OSM       OF            -13.1715254263      -20.2202999853       16.8057561921  MEMB      42              0.0000000000
      4782        42  OSM       C2F           -14.5608405317      -18.4326994186       16.4932411505  MEMB      42              0.0000000000
      4783        42  OSM       H2F           -13.7473879787      -17.7095606043       16.6922380656  MEMB      42              0.0000000000
      4784        42  OSM       H2G           -15.3281570863      -17.8893167617       17.1010152895  MEMB      42              0.0000000000
      4785        42  OSM       C3F           -15.2623331746      -18.7114290819       15.0144643129  MEMB      42              0.0000000000
      4786        42  OSM       H3F           -15.5191114439      -19.7321680034       14.7673117425  MEMB      42              0.0000000000
      4787        42  OSM       H3G           -14.1773069492      -19.2033796224       14.8035404461  MEMB      42              0.0000000000
      4788        42  OSM       C4F           -15.4800569645      -16.6237832019       12.9939025573  MEMB      42              0.0000000000
      4789        42  OSM       H4F           -14.6012430570      -15.9050035929       12.8809920372  MEMB      42              0.0000000000
      4790        42  OSM       H4G           -16.3690341935      -16.1716157641       13.2449622192  MEMB      42              0.0000000000
      4791        42  OSM       C5F           -15.0404407746      -16.6618014006       11.2375151084  MEMB      42              0.0000000000
      4792        42  OSM       H5F           -15.5235678570      -15.7540098307       10.9140937877  MEMB      42              0.0000000000
      4793        42  OSM       H5G           -15.8889384196      -17.1328404146       10.6634445602  MEMB      42              0.0000000000
      4794        42  OSM       C6F           -13.7761194415      -17.7777923478       10.6277845376  MEMB      42              0.0000000000
      4795        42  OSM       H6F           -13.6894215042      -18.9599496139       10.9323113234  MEMB      42              0.0000000000
      4796        42  OSM       H6G           -12.9150863835      -17.7548315065       11.2199387771  MEMB      42              0.0000000000
      4797        42  OSM       C7F           -13.7371346389      -18.1047081897        9.2177056914  MEMB      42              0.0000000000
      4798        42  OSM       H7F           -14.1354652286      -17.3412063095        8.5726558944  MEMB      42              0.0000000000
      4799        42  OSM       H7G           -14.5945599873      -18.2842418668        9.7129895498  MEMB      42              0.0000000000
      4800        42  OSM       C8F           -13.1758204657      -19.4595048664        8.6509378981  MEMB      42              0.0000000000
      4801        42  OSM       H8F           -12.1779676497      -19.2524684895        8.9967603092  MEMB      42              0.0000000000
      4802        42  OSM       H8G           -13.3854662220      -19.2841350843        7.5679729572  MEMB      42              0.0000000000
      4803        42  OSM       C9F           -13.3948729867      -20.9479971607        8.9372220640  MEMB      42              0.0000000000
      4804        42  OSM       H9F           -14.3906498763      -21.3615578289        8.7605554551  MEMB      42              0.0000000000
      4805        42  OSM       C10F          -12.4528693323      -21.8180696699        9.3070378263  MEMB      42              0.0000000000
      4806        42  OSM       H10F          -12.6647973657      -22.8891400245        9.3763315637  MEMB      42              0.0000000000
      4807        42  OSM       C11F          -11.0422072471      -21.4165659295        9.4940935847  MEMB      42              0.0000000000
      4808        42  OSM       H11F          -10.4593544465      -22.1892044613       10.0128816223  MEMB      42              0.0000000000
      4809        42  OSM       H11G          -11.0790634684      -20.5231896848       10.1616237970  MEMB      42              0.0000000000
      4810        42  OSM       C12F          -10.3810076249      -21.0432548177        8.1761455039  MEMB      42              0.0000000000
      4811        42  OSM       H12F           -9.3661528234      -20.5981997364        8.3339626401  MEMB      42              0.0000000000
      4812        42  OSM       H12G          -11.0674192678      -20.3962792156        7.5783137431  MEMB      42              0.0000000000
      4813        42  OSM       C13F          -10.1367211021      -21.9995379356        7.1223914174  MEMB      42              0.0000000000
      4814        42  OSM       H13F          -11.0244881429      -22.5934952000        6.9030782460  MEMB      42              0.0000000000
      4815        42  OSM       H13G           -9.3975967027      -22.6774728192        7.5850214441  MEMB      42              0.0000000000
      4816        42  OSM       C14F           -9.7005015905      -21.2068863152        5.8683294355  MEMB      42              0.0000000000
      4817        42  OSM       H14F           -9.6743876455      -21.9707297824        5.1172189463  MEMB      42              0.0000000000
      4818        42  OSM       H14G           -8.8009243910      -20.5694505466        5.8359197817  MEMB      42              0.0000000000
      4819        42  OSM       C15F          -10.5716900988      -20.4372085458        5.0085351514  MEMB      42              0.0000000000
      4820        42  OSM       H15F           -9.9098352715      -20.1224199834        4.1520535643  MEMB      42              0.0000000000
      4821        42  OSM       H15G          -10.7564352101      -19.6398467924        5.6905433563  MEMB      42              0.0000000000
      4822        42  OSM       C16F          -11.7163636538      -21.3253488153        4.6185340775  MEMB      42              0.0000000000
      4823        42  OSM       H16F          -12.2544918496      -21.5796385262        5.5564786769  MEMB      42              0.0000000000
      4824        42  OSM       H16G          -11.3106571700      -22.2668566989        4.1921091588  MEMB      42              0.0000000000
      4825        42  OSM       C17F          -12.5711805695      -20.6355006291        3.5950316045  MEMB      42              0.0000000000
      4826        42  OSM       H17F          -12.1708953551      -19.6319545571        3.5833348784  MEMB      42              0.0000000000
      4827        42  OSM       H17G          -13.6069047639      -20.5305587271        3.9601442614  MEMB      42              0.0000000000
      4828        42  OSM       C18F          -12.4269084289      -21.1163431485        2.1522247808  MEMB      42              0.0000000000
      4829        42  OSM       H18F          -11.3957631783      -20.9037443283        1.7821253343  MEMB      42              0.0000000000
      4830        42  OSM       H18G          -13.1249097654      -20.5620589087        1.4876332924  MEMB      42              0.0000000000
      4831        42  OSM       H18H          -12.6388873410      -22.1924726526        2.0637033963  MEMB      42              0.0000000000
      4832        43  SAPE      N              -0.4988042663       24.1628672248       20.2044738105  MEMB      43              0.0000000000
      4833        43  SAPE      HN1             0.5400412859       24.3268581378       20.2510302438  MEMB      43              0.0000000000
      4834        43  SAPE      HN2            -0.8556646849       24.0479111982       21.1754338022  MEMB      43              0.0000000000
      4835        43  SAPE      HN3            -0.7254446634       23.2836151035       19.6957340110  MEMB      43              0.0000000000
      4836        43  SAPE      C12            -1.1609331810       25.3327331858       19.5034868884  MEMB      43              0.0000000000
      4837        43  SAPE      H12A           -2.1963416771       25.0570284995       19.2187184002  MEMB      43              0.0000000000
      4838        43  SAPE      H12B           -0.5888694088       25.5445662844       18.5788759087  MEMB      43              0.0000000000
      4839        43  SAPE      C11            -1.1236079317       26.5864867010       20.3783710842  MEMB      43              0.0000000000
      4840        43  SAPE      H11A           -0.0691186846       26.8326491674       20.6328963544  MEMB      43              0.0000000000
      4841        43  SAPE      H11B           -1.6929346934       26.3821818756       21.3208048816  MEMB      43              0.0000000000
      4842        43  SAPE      P              -3.0394282822       28.2847887742       20.0638084953  MEMB      43              0.0000000000
      4843        43  SAPE      O13            -3.9883921969       27.1393166093       20.0191948272  MEMB      43              0.0000000000
      4844        43  SAPE      O14            -2.8962008974       28.9960217404       21.3473919290  MEMB      43              0.0000000000
      4845        43  SAPE      O12            -1.6288242505       27.6963859903       19.6439192292  MEMB      43              0.0000000000
      4846        43  SAPE      O11            -3.2861561986       29.3104222737       18.9105647371  MEMB      43              0.0000000000
      4847        43  SAPE      C1             -2.4193499237       30.4267355195       18.6448225523  MEMB      43              0.0000000000
      4848        43  SAPE      HA             -2.8973458900       31.3762982143       18.9795675528  MEMB      43              0.0000000000
      4849        43  SAPE      HB             -1.4467290325       30.3629228781       19.1892725219  MEMB      43              0.0000000000
      4850        43  SAPE      C2             -2.0862945274       30.4931254368       17.1310187430  MEMB      43              0.0000000000
      4851        43  SAPE      HS             -1.4972308233       31.4220370659       16.9315467211  MEMB      43              0.0000000000
      4852        43  SAPE      O21            -3.2833015765       30.4154010061       16.3441689905  MEMB      43              0.0000000000
      4853        43  SAPE      C21            -3.4602702652       31.2712859096       15.3948405397  MEMB      43              0.0000000000
      4854        43  SAPE      O22            -2.7909335892       32.2491513548       15.1074747886  MEMB      43              0.0000000000
      4855        43  SAPE      C22            -4.6322590985       30.7243914966       14.6086178578  MEMB      43              0.0000000000
      4856        43  SAPE      H2R            -4.7655406234       29.6316927500       14.7142129942  MEMB      43              0.0000000000
      4857        43  SAPE      H2S            -5.5430231796       31.2023024008       15.0227045696  MEMB      43              0.0000000000
      4858        43  SAPE      C3             -1.2320750667       29.2639715136       16.7765967311  MEMB      43              0.0000000000
      4859        43  SAPE      HX             -1.9051215091       28.3853585215       16.8482155361  MEMB      43              0.0000000000
      4860        43  SAPE      HY             -0.4018770298       29.0855653577       17.4972020419  MEMB      43              0.0000000000
      4861        43  SAPE      O31            -0.7999857274       29.3359681067       15.4241509564  MEMB      43              0.0000000000
      4862        43  SAPE      C31             0.4201071779       29.7468266616       15.2534986375  MEMB      43              0.0000000000
      4863        43  SAPE      O32             1.2174425892       30.1132210285       16.0883110828  MEMB      43              0.0000000000
      4864        43  SAPE      C32             0.7223942795       29.5526341031       13.7853257906  MEMB      43              0.0000000000
      4865        43  SAPE      H2X             0.1415678096       30.3384740977       13.2448453331  MEMB      43              0.0000000000
      4866        43  SAPE      H2Y             0.2921969868       28.6352480409       13.3893114554  MEMB      43              0.0000000000
      4867        43  SAPE      C23            -4.2994727107       30.9728386342       13.1528512920  MEMB      43              0.0000000000
      4868        43  SAPE      H3R            -3.4262791588       30.3656849466       12.8432063510  MEMB      43              0.0000000000
      4869        43  SAPE      H3S            -4.0916813696       32.0626470245       13.0121575686  MEMB      43              0.0000000000
      4870        43  SAPE      C24            -5.3762989481       30.5268277947       12.2236852477  MEMB      43              0.0000000000
      4871        43  SAPE      H4R            -6.0250302876       31.3160359844       11.9174253976  MEMB      43              0.0000000000
      4872        43  SAPE      H4S            -5.9965246815       29.6815123387       12.5121275041  MEMB      43              0.0000000000
      4873        43  SAPE      C25            -4.8972495932       30.2880798702       10.9123918563  MEMB      43              0.0000000000
      4874        43  SAPE      H5R            -5.9340092425       30.1296476159       10.5009454285  MEMB      43              0.0000000000
      4875        43  SAPE      C26            -4.0351843853       31.1656303350       10.2948592815  MEMB      43              0.0000000000
      4876        43  SAPE      H6R            -4.0738523943       31.2009169332        9.2014322652  MEMB      43              0.0000000000
      4877        43  SAPE      C27            -3.3721617942       32.4991433839       10.6641345456  MEMB      43              0.0000000000
      4878        43  SAPE      H7R            -3.6901303031       33.1329209437       11.5283979336  MEMB      43              0.0000000000
      4879        43  SAPE      H7S            -3.4021026973       33.2274077839        9.8395641534  MEMB      43              0.0000000000
      4880        43  SAPE      C28            -2.1071415665       31.7763703595       10.7579278183  MEMB      43              0.0000000000
      4881        43  SAPE      H8R            -2.0826683934       30.9335148198       11.4513144069  MEMB      43              0.0000000000
      4882        43  SAPE      C29            -1.0597762303       31.9299026923       10.0034468538  MEMB      43              0.0000000000
      4883        43  SAPE      H9R            -0.2285677334       31.2873206958       10.2157293271  MEMB      43              0.0000000000
      4884        43  SAPE      C210           -0.8447827730       32.8417505873        8.8982696815  MEMB      43              0.0000000000
      4885        43  SAPE      H10R           -0.3076971150       33.6905414029        9.4007079914  MEMB      43              0.0000000000
      4886        43  SAPE      H10S           -1.7648373272       33.1786454236        8.3788658914  MEMB      43              0.0000000000
      4887        43  SAPE      C211           -0.0000688406       32.1377876834        7.9340313610  MEMB      43              0.0000000000
      4888        43  SAPE      H11R            0.9401008344       32.7224539129        7.8924001072  MEMB      43              0.0000000000
      4889        43  SAPE      C212           -0.3869149165       31.7504458212        6.7270302792  MEMB      43              0.0000000000
      4890        43  SAPE      H12R            0.3595853804       31.4380970549        6.0122673021  MEMB      43              0.0000000000
      4891        43  SAPE      C213           -1.6196679729       31.8722977557        5.9671064745  MEMB      43              0.0000000000
      4892        43  SAPE      H13R           -2.1131187163       32.8571496487        6.1778739548  MEMB      43              0.0000000000
      4893        43  SAPE      H13S           -2.1276767139       31.0355513818        6.4294033669  MEMB      43              0.0000000000
      4894        43  SAPE      C214           -1.4002110773       31.6140570408        4.4733823306  MEMB      43              0.0000000000
      4895        43  SAPE      H14R           -0.4458569119       31.7654575507        3.9528256659  MEMB      43              0.0000000000
      4896        43  SAPE      C215           -2.3369814706       31.6380949764        3.6115083703  MEMB      43              0.0000000000
      4897        43  SAPE      H15R           -2.0980333342       31.6074068638        2.5702481786  MEMB      43              0.0000000000
      4898        43  SAPE      C216           -3.6989166379       31.9179793715        3.9688857491  MEMB      43              0.0000000000
      4899        43  SAPE      H16R           -4.1547581678       32.7387574296        3.4490914321  MEMB      43              0.0000000000
      4900        43  SAPE      H16S           -3.7443626010       32.1509515905        4.9838068157  MEMB      43              0.0000000000
      4901        43  SAPE      C217           -4.5874728258       30.9869178800        3.5346577127  MEMB      43              0.0000000000
      4902        43  SAPE      H17R           -5.5957505178       31.3348386650        3.8781013642  MEMB      43              0.0000000000
      4903        43  SAPE      H17S           -4.2950228339       29.9892101652        3.9251133515  MEMB      43              0.0000000000
      4904        43  SAPE      C218           -4.4140214798       31.0534222420        2.1056186868  MEMB      43              0.0000000000
      4905        43  SAPE      H18R           -3.4672485342       30.7965904250        1.5760838168  MEMB      43              0.0000000000
      4906        43  SAPE      H18S           -4.5774633647       32.0718466936        1.6631547028  MEMB      43              0.0000000000
      4907        43  SAPE      C219           -5.1050807917       29.7448184148        2.0901346980  MEMB      43              0.0000000000
      4908        43  SAPE      H19R           -4.3534980015       29.0284427125        1.7824588487  MEMB      43              0.0000000000
      4909        43  SAPE      H19S           -4.9034376514       29.7874656902        1.0288337353  MEMB      43              0.0000000000
      4910        43  SAPE      C220           -6.6253925346       29.2008943476        2.7828440895  MEMB      43              0.0000000000
      4911        43  SAPE      H20R           -6.7925953043       29.3395364915        3.8068274670  MEMB      43              0.0000000000
      4912        43  SAPE      H20S           -7.4320642780       28.6924624807        2.1778928636  MEMB      43              0.0000000000
      4913        43  SAPE      H20T           -7.6067071099       29.6938388931        2.4774321836  MEMB      43              0.0000000000
      4914        43  SAPE      C33             2.2491128468       29.4850614628       13.5599159295  MEMB      43              0.0000000000
      4915        43  SAPE      H3X             2.8904064661       28.8048059141       14.1251454237  MEMB      43              0.0000000000
      4916        43  SAPE      H3Y             2.6344119615       30.3051039910       14.1974859260  MEMB      43              0.0000000000
      4917        43  SAPE      C34             2.5551748997       29.4417573803       12.0298235396  MEMB      43              0.0000000000
      4918        43  SAPE      H4X             3.6201578163       29.5298140328       11.7256659406  MEMB      43              0.0000000000
      4919        43  SAPE      H4Y             1.9718136969       30.1365301278       11.4019890028  MEMB      43              0.0000000000
      4920        43  SAPE      C35             2.0450581801       28.1705995936       11.4727733797  MEMB      43              0.0000000000
      4921        43  SAPE      H5X             0.9452741684       28.2205246307       11.5216113911  MEMB      43              0.0000000000
      4922        43  SAPE      H5Y             2.5515766435       27.4632201597       12.1696241278  MEMB      43              0.0000000000
      4923        43  SAPE      C36             2.2587211157       27.9267775789       10.0060285686  MEMB      43              0.0000000000
      4924        43  SAPE      H6X             2.1443708633       26.8752371917        9.7154394208  MEMB      43              0.0000000000
      4925        43  SAPE      H6Y             3.2197337403       28.2866402974        9.8065900686  MEMB      43              0.0000000000
      4926        43  SAPE      C37             1.9141929795       28.9223276068        8.9359135931  MEMB      43              0.0000000000
      4927        43  SAPE      H7X             2.3998056308       28.4931935447        8.0097281404  MEMB      43              0.0000000000
      4928        43  SAPE      H7Y             2.3354438397       29.9120815145        9.2148607267  MEMB      43              0.0000000000
      4929        43  SAPE      C38             0.5239441247       28.9897710761        8.5468979683  MEMB      43              0.0000000000
      4930        43  SAPE      H8X             0.4857460917       29.5581272740        7.5912884250  MEMB      43              0.0000000000
      4931        43  SAPE      H8Y             0.0360779603       29.5326557484        9.3711164587  MEMB      43              0.0000000000
      4932        43  SAPE      C39             0.0359795000       27.5780067876        8.3679220319  MEMB      43              0.0000000000
      4933        43  SAPE      H9X            -0.4397436791       27.2743413823        9.3248608048  MEMB      43              0.0000000000
      4934        43  SAPE      H9Y             0.8549552689       26.8533566957        8.1369859556  MEMB      43              0.0000000000
      4935        43  SAPE      C310           -0.8868781540       27.5401027388        7.1827512409  MEMB      43              0.0000000000
      4936        43  SAPE      H10X           -0.3954928576       28.0412589144        6.3151957024  MEMB      43              0.0000000000
      4937        43  SAPE      H10Y           -1.7680932995       28.1554703759        7.4710592000  MEMB      43              0.0000000000
      4938        43  SAPE      C311           -1.2746084948       26.1116421496        6.8139903704  MEMB      43              0.0000000000
      4939        43  SAPE      H11X           -1.2385485395       25.4760261970        7.7307151133  MEMB      43              0.0000000000
      4940        43  SAPE      H11Y           -0.5451348817       25.6507299213        6.1124070737  MEMB      43              0.0000000000
      4941        43  SAPE      C312           -2.6676773074       26.0660352742        6.1812579537  MEMB      43              0.0000000000
      4942        43  SAPE      H12X           -3.4104938918       26.1338849545        7.0077645371  MEMB      43              0.0000000000
      4943        43  SAPE      H12Y           -2.7795875939       25.0831609080        5.6819575318  MEMB      43              0.0000000000
      4944        43  SAPE      C313           -2.9907977820       27.1974697869        5.1790623409  MEMB      43              0.0000000000
      4945        43  SAPE      H13X           -2.9425582254       28.1682087374        5.7082113517  MEMB      43              0.0000000000
      4946        43  SAPE      H13Y           -4.0317969504       27.0533648873        4.8075157448  MEMB      43              0.0000000000
      4947        43  SAPE      C314           -2.1266361243       27.2468318831        3.9225104723  MEMB      43              0.0000000000
      4948        43  SAPE      H14X           -1.0677130824       27.4444288644        4.1990337104  MEMB      43              0.0000000000
      4949        43  SAPE      H14Y           -2.4642890814       28.1211629095        3.3079577549  MEMB      43              0.0000000000
      4950        43  SAPE      C315           -2.2833620060       25.8972321467        3.1872998181  MEMB      43              0.0000000000
      4951        43  SAPE      H15X           -3.3403810341       25.7872359836        2.8445615056  MEMB      43              0.0000000000
      4952        43  SAPE      H15Y           -2.0171474492       25.0874240687        3.8720041941  MEMB      43              0.0000000000
      4953        43  SAPE      C316           -1.3745677942       25.5560899085        2.0441227228  MEMB      43              0.0000000000
      4954        43  SAPE      H16X           -1.7798819414       24.7177817344        1.4277639226  MEMB      43              0.0000000000
      4955        43  SAPE      H16Y           -0.2917930328       25.4183767932        2.2670187690  MEMB      43              0.0000000000
      4956        43  SAPE      C317           -1.4423863793       26.6756783499        1.1861935062  MEMB      43              0.0000000000
      4957        43  SAPE      H17X           -2.4638550096       27.1131429000        1.0975095089  MEMB      43              0.0000000000
      4958        43  SAPE      H17Y           -1.1561815568       26.2029871261        0.1993928293  MEMB      43              0.0000000000
      4959        43  SAPE      C318           -0.4475949553       27.7417084074        1.5657311756  MEMB      43              0.0000000000
      4960        43  SAPE      H18X           -0.6142060249       28.8330753647        1.3992139312  MEMB      43              0.0000000000
      4961        43  SAPE      H18Y            0.1936153167       27.6061835160        0.6666048285  MEMB      43              0.0000000000
      4962        43  SAPE      H18Z            0.0985382177       27.6065541681        2.5064791110  MEMB      43              0.0000000000
      4963        44  OSM       N              21.8618818736      -14.7925421077       21.6945874399  MEMB      44              0.0000000000
      4964        44  OSM       C15            21.1220394472      -15.1241424080       20.4283759402  MEMB      44              0.0000000000
      4965        44  OSM       H15A           21.4341665646      -16.1115290377       20.0808923126  MEMB      44              0.0000000000
      4966        44  OSM       H15B           21.3964631891      -14.4672766945       19.6053957695  MEMB      44              0.0000000000
      4967        44  OSM       H15C           20.0485081211      -15.0766949726       20.5192287153  MEMB      44              0.0000000000
      4968        44  OSM       C14            21.4873430609      -13.3900710693       22.0266929098  MEMB      44              0.0000000000
      4969        44  OSM       H14A           20.4324717597      -13.3680899112       22.2710486201  MEMB      44              0.0000000000
      4970        44  OSM       H14B           21.6756283866      -12.7533022238       21.1706154075  MEMB      44              0.0000000000
      4971        44  OSM       H14C           22.0590407117      -12.9863047657       22.8465770278  MEMB      44              0.0000000000
      4972        44  OSM       C13            21.4487414233      -15.7202962204       22.8103853199  MEMB      44              0.0000000000
      4973        44  OSM       H13A           20.3819899815      -15.8788396743       22.8858943525  MEMB      44              0.0000000000
      4974        44  OSM       H13B           21.8077784451      -15.3646743781       23.7668553591  MEMB      44              0.0000000000
      4975        44  OSM       H13C           21.9376323375      -16.6894727501       22.6619059465  MEMB      44              0.0000000000
      4976        44  OSM       C12            23.3802060773      -14.9595945984       21.5193119237  MEMB      44              0.0000000000
      4977        44  OSM       H12A           23.8847513588      -14.6039465767       22.4066192431  MEMB      44              0.0000000000
      4978        44  OSM       H12B           23.7158790631      -14.3637294982       20.6845576622  MEMB      44              0.0000000000
      4979        44  OSM       C11            23.9954301844      -16.3675558576       21.2691069988  MEMB      44              0.0000000000
      4980        44  OSM       H11A           24.0754968413      -16.9514455928       22.2169718064  MEMB      44              0.0000000000
      4981        44  OSM       H11B           25.0484420072      -16.1980793964       20.9370218801  MEMB      44              0.0000000000
      4982        44  OSM       P              23.1448459708      -18.6347479420       20.3517057744  MEMB      44              0.0000000000
      4983        44  OSM       O13            24.4661483466      -19.2638345773       20.4351778663  MEMB      44              0.0000000000
      4984        44  OSM       O14            22.1932056122      -18.9924063369       21.4334942292  MEMB      44              0.0000000000
      4985        44  OSM       O11            22.4324540263      -19.0915143338       19.0225699912  MEMB      44              0.0000000000
      4986        44  OSM       O12            23.2765677774      -17.0618132076       20.2559243219  MEMB      44              0.0000000000
      4987        44  OSM       C1S            21.6133081297      -18.2087259198       18.2655879289  MEMB      44              0.0000000000
      4988        44  OSM       H1S            21.5127149651      -17.2159551076       18.7337814045  MEMB      44              0.0000000000
      4989        44  OSM       H1T            20.5912174514      -18.6268658022       18.2077456474  MEMB      44              0.0000000000
      4990        44  OSM       NF             21.6327948387      -16.7822065612       16.2504748747  MEMB      44              0.0000000000
      4991        44  OSM       HNF            21.3977428815      -16.8644401899       15.2884107702  MEMB      44              0.0000000000
      4992        44  OSM       C2S            22.1896228115      -17.9581880202       16.8486956587  MEMB      44              0.0000000000
      4993        44  OSM       H2S            23.3014597543      -17.8216772005       16.9589821630  MEMB      44              0.0000000000
      4994        44  OSM       C3S            21.9348172209      -19.1373333754       15.9340508603  MEMB      44              0.0000000000
      4995        44  OSM       H3S            20.8555877458      -19.3000695642       15.7445647749  MEMB      44              0.0000000000
      4996        44  OSM       O3             22.3226268169      -20.3233909877       16.5246614011  MEMB      44              0.0000000000
      4997        44  OSM       HO3            22.7466038439      -20.1004761229       17.3651755377  MEMB      44              0.0000000000
      4998        44  OSM       C4S            22.6807216709      -18.8552850019       14.6553862162  MEMB      44              0.0000000000
      4999        44  OSM       H4S            23.7740463329      -18.8396445429       14.7700435911  MEMB      44              0.0000000000
      5000        44  OSM       C5S            22.1500586815      -18.6286352308       13.4407007165  MEMB      44              0.0000000000
      5001        44  OSM       H5S            21.0736957238      -18.7786001605       13.2561148241  MEMB      44              0.0000000000
      5002        44  OSM       C6S            22.9789809214      -18.3368653135       12.2218681079  MEMB      44              0.0000000000
      5003        44  OSM       H6S            24.0561514058      -18.1848009251       12.4716610016  MEMB      44              0.0000000000
      5004        44  OSM       H6T            22.6156872698      -17.4193929296       11.7211685700  MEMB      44              0.0000000000
      5005        44  OSM       C7S            22.8248409847      -19.4746861714       11.2267181120  MEMB      44              0.0000000000
      5006        44  OSM       H7S            21.8167281834      -19.5180283466       10.7663511558  MEMB      44              0.0000000000
      5007        44  OSM       H7T            22.8704877607      -20.3522719531       11.8623716467  MEMB      44              0.0000000000
      5008        44  OSM       C8S            23.9153184694      -19.4836174951       10.1611287950  MEMB      44              0.0000000000
      5009        44  OSM       H8S            23.8759504004      -20.4321996938        9.5740750225  MEMB      44              0.0000000000
      5010        44  OSM       H8T            24.9234253937      -19.4234336677       10.6324737515  MEMB      44              0.0000000000
      5011        44  OSM       C9S            23.7340633367      -18.3416811428        9.1722329708  MEMB      44              0.0000000000
      5012        44  OSM       H9S            23.9177414290      -17.3487169215        9.6459663479  MEMB      44              0.0000000000
      5013        44  OSM       H9T            22.6825897768      -18.3455311725        8.8103435834  MEMB      44              0.0000000000
      5014        44  OSM       C10S           24.6529421669      -18.5906036274        7.9950151105  MEMB      44              0.0000000000
      5015        44  OSM       H10S           24.4955035809      -19.5999142626        7.5664406472  MEMB      44              0.0000000000
      5016        44  OSM       H10T           25.7143674241      -18.5642302798        8.3590895843  MEMB      44              0.0000000000
      5017        44  OSM       C11S           24.3973645193      -17.6344038397        6.8447247854  MEMB      44              0.0000000000
      5018        44  OSM       H11S           25.3992883831      -17.5053470250        6.6205534343  MEMB      44              0.0000000000
      5019        44  OSM       H11T           23.9464398279      -16.6599708422        7.1022445391  MEMB      44              0.0000000000
      5020        44  OSM       C12S           24.0770312173      -18.1819732463        5.4576034476  MEMB      44              0.0000000000
      5021        44  OSM       H12S           24.8058447007      -18.9739868127        5.1723028012  MEMB      44              0.0000000000
      5022        44  OSM       H12T           24.1723159250      -17.3782756892        4.6905319378  MEMB      44              0.0000000000
      5023        44  OSM       C13S           22.6447694728      -18.6096512908        5.4859687475  MEMB      44              0.0000000000
      5024        44  OSM       H13S           22.0747794563      -17.6914232686        5.7542698661  MEMB      44              0.0000000000
      5025        44  OSM       H13T           22.4996464073      -19.3743112073        6.2803237186  MEMB      44              0.0000000000
      5026        44  OSM       C14S           22.1072458934      -19.1124597025        4.1742281707  MEMB      44              0.0000000000
      5027        44  OSM       H14S           22.6783619270      -20.0139691922        3.8502689272  MEMB      44              0.0000000000
      5028        44  OSM       H14T           22.1916058960      -18.3415544663        3.3748870297  MEMB      44              0.0000000000
      5029        44  OSM       C15S           20.6539438735      -19.4830690687        4.3739006729  MEMB      44              0.0000000000
      5030        44  OSM       H15S           19.9646184117      -18.6504668971        4.6235180211  MEMB      44              0.0000000000
      5031        44  OSM       H15T           20.5861327016      -20.2346179934        5.2002862800  MEMB      44              0.0000000000
      5032        44  OSM       C16S           20.1384997911      -20.1156818093        3.1274385952  MEMB      44              0.0000000000
      5033        44  OSM       H16S           19.0170866640      -20.0324966069        3.1580611856  MEMB      44              0.0000000000
      5034        44  OSM       H16T           20.5901573260      -21.1319488160        3.1889271268  MEMB      44              0.0000000000
      5035        44  OSM       C17S           20.5648632128      -19.6526684330        1.7731443575  MEMB      44              0.0000000000
      5036        44  OSM       H17S           20.3575550773      -20.2864739859        0.9353354100  MEMB      44              0.0000000000
      5037        44  OSM       H17T           21.6254339123      -19.8056714467        1.5842084853  MEMB      44              0.0000000000
      5038        44  OSM       C18S           19.7370002531      -18.5035785010        1.3058800113  MEMB      44              0.0000000000
      5039        44  OSM       H18S           18.6292739165      -18.6535624053        1.3910087488  MEMB      44              0.0000000000
      5040        44  OSM       H18T           20.0333490203      -18.2972385126        0.2620663497  MEMB      44              0.0000000000
      5041        44  OSM       H18U           20.0229989203      -17.7267967216        1.9886844265  MEMB      44              0.0000000000
      5042        44  OSM       C1F            21.7754111207      -15.5807364626       16.7830243894  MEMB      44              0.0000000000
      5043        44  OSM       OF             22.4879137850      -15.3640803177       17.7562077325  MEMB      44              0.0000000000
      5044        44  OSM       C2F            21.1646560232      -14.4409835348       16.0227927396  MEMB      44              0.0000000000
      5045        44  OSM       H2F            21.7208643409      -13.5247125754       16.3170259058  MEMB      44              0.0000000000
      5046        44  OSM       H2G            20.1240544005      -14.3353953290       16.3781010639  MEMB      44              0.0000000000
      5047        44  OSM       C3F            21.2232268108      -14.6251539125       14.4783087120  MEMB      44              0.0000000000
      5048        44  OSM       H3F            20.9153945429      -15.6332109567       14.1430485373  MEMB      44              0.0000000000
      5049        44  OSM       H3G            22.2246379479      -14.4428299836       14.0730699626  MEMB      44              0.0000000000
      5050        44  OSM       C4F            20.4725302928      -13.6052648430       13.6704857311  MEMB      44              0.0000000000
      5051        44  OSM       H4F            20.7475005591      -12.5645485614       13.9438553824  MEMB      44              0.0000000000
      5052        44  OSM       H4G            19.4541758944      -13.6045601401       14.0331433057  MEMB      44              0.0000000000
      5053        44  OSM       C5F            20.6729683339      -13.8210325935       12.1391047571  MEMB      44              0.0000000000
      5054        44  OSM       H5F            21.6363814954      -13.4682593826       11.7840266280  MEMB      44              0.0000000000
      5055        44  OSM       H5G            20.0493210542      -13.0235879592       11.7820199743  MEMB      44              0.0000000000
      5056        44  OSM       C6F            20.1027847542      -15.0338338403       11.2908142950  MEMB      44              0.0000000000
      5057        44  OSM       H6F            19.3134942769      -15.5674271557       11.8450513582  MEMB      44              0.0000000000
      5058        44  OSM       H6G            20.8369450634      -15.8305354123       11.1936931225  MEMB      44              0.0000000000
      5059        44  OSM       C7F            19.4519631866      -14.6800765719        9.8993784821  MEMB      44              0.0000000000
      5060        44  OSM       H7F            18.8757186071      -13.7502457774        9.8527572375  MEMB      44              0.0000000000
      5061        44  OSM       H7G            18.7858647490      -15.4733222227        9.5136974599  MEMB      44              0.0000000000
      5062        44  OSM       C8F            20.3820785855      -14.3403360644        8.7984351824  MEMB      44              0.0000000000
      5063        44  OSM       H8F            19.8351498130      -14.0450516934        7.8759418329  MEMB      44              0.0000000000
      5064        44  OSM       H8G            21.1028849633      -15.1610732036        8.6934610547  MEMB      44              0.0000000000
      5065        44  OSM       C9F            21.0275611796      -13.1775220668        9.3565812038  MEMB      44              0.0000000000
      5066        44  OSM       H9F            20.4467300302      -12.4064212246        9.8911639779  MEMB      44              0.0000000000
      5067        44  OSM       C10F           22.2521187696      -12.9635669560        9.2432351583  MEMB      44              0.0000000000
      5068        44  OSM       H10F           22.5551195243      -12.0445643830        9.7515098498  MEMB      44              0.0000000000
      5069        44  OSM       C11F           23.2723601550      -13.7596135125        8.5667182244  MEMB      44              0.0000000000
      5070        44  OSM       H11F           23.2655914446      -14.8494541722        8.4085407066  MEMB      44              0.0000000000
      5071        44  OSM       H11G           24.1233207280      -13.3440525432        9.0351088226  MEMB      44              0.0000000000
      5072        44  OSM       C12F           23.5766855779      -13.4102350238        7.3010423438  MEMB      44              0.0000000000
      5073        44  OSM       H12F           24.7047338070      -13.5884231524        7.2211888033  MEMB      44              0.0000000000
      5074        44  OSM       H12G           24.4432332951      -12.7612501359        7.0627062969  MEMB      44              0.0000000000
      5075        44  OSM       C13F           22.3304366579      -13.6348134264        6.3225722766  MEMB      44              0.0000000000
      5076        44  OSM       H13F           22.3475841378      -13.3426396556        5.2414655705  MEMB      44              0.0000000000
      5077        44  OSM       H13G           21.4761607303      -13.0287987789        6.6154912583  MEMB      44              0.0000000000
      5078        44  OSM       C14F           22.1692298293      -15.0185934392        5.7888555974  MEMB      44              0.0000000000
      5079        44  OSM       H14F           21.7930484271      -15.3607381425        6.7371483024  MEMB      44              0.0000000000
      5080        44  OSM       H14G           23.0096278156      -15.6222613413        5.3677651156  MEMB      44              0.0000000000
      5081        44  OSM       C15F           21.4005828370      -14.9353737697        4.5253271242  MEMB      44              0.0000000000
      5082        44  OSM       H15F           20.7935768126      -13.9772354984        4.5694686882  MEMB      44              0.0000000000
      5083        44  OSM       H15G           20.7551771264      -15.7982566290        4.6973618851  MEMB      44              0.0000000000
      5084        44  OSM       C16F           22.3043002671      -14.9944799573        3.2526952902  MEMB      44              0.0000000000
      5085        44  OSM       H16F           23.2123267269      -15.6137920975        3.3314529487  MEMB      44              0.0000000000
      5086        44  OSM       H16G           22.4503654823      -13.9712471051        2.8118614496  MEMB      44              0.0000000000
      5087        44  OSM       C17F           21.6623048301      -15.6872300984        2.1382960710  MEMB      44              0.0000000000
      5088        44  OSM       H17F           21.3053287816      -14.7994165069        1.6113661114  MEMB      44              0.0000000000
      5089        44  OSM       H17G           20.8260489308      -16.2625949966        2.4979851321  MEMB      44              0.0000000000
      5090        44  OSM       C18F           22.1096097332      -15.8573833255        0.7974996827  MEMB      44              0.0000000000
      5091        44  OSM       H18F           22.5114341521      -14.8687981919        0.3571734446  MEMB      44              0.0000000000
      5092        44  OSM       H18G           21.1837795292      -16.1410456484        0.2111283836  MEMB      44              0.0000000000
      5093        44  OSM       H18H           22.8022635009      -16.6767858674        0.7241474685  MEMB      44              0.0000000000
      5094        45  SAPE      N              28.4348992869      -12.2307709080       20.2567178489  MEMB      45              0.0000000000
      5095        45  SAPE      HN1            29.4716148836      -12.2244822617       20.1465158729  MEMB      45              0.0000000000
      5096        45  SAPE      HN2            28.2915561541      -13.1086425079       20.8116858212  MEMB      45              0.0000000000
      5097        45  SAPE      HN3            27.9722285994      -12.2433225194       19.3347271372  MEMB      45              0.0000000000
      5098        45  SAPE      C12            28.0747023580      -11.0468377623       21.0992809691  MEMB      45              0.0000000000
      5099        45  SAPE      H12A           28.4729477023      -10.1590765005       20.5697602542  MEMB      45              0.0000000000
      5100        45  SAPE      H12B           28.5774878019      -11.1935036940       22.0787887351  MEMB      45              0.0000000000
      5101        45  SAPE      C11            26.5636599135      -10.8444887785       21.2759841464  MEMB      45              0.0000000000
      5102        45  SAPE      H11A           26.4066835115       -9.9957665827       21.9859353365  MEMB      45              0.0000000000
      5103        45  SAPE      H11B           26.0931705732      -11.7508914232       21.7135384397  MEMB      45              0.0000000000
      5104        45  SAPE      P              25.7255352017       -9.0754467091       19.5233742265  MEMB      45              0.0000000000
      5105        45  SAPE      O13            24.4208498896       -8.6370389740       20.0489647893  MEMB      45              0.0000000000
      5106        45  SAPE      O14            26.9621894846       -8.3082581264       19.7930772545  MEMB      45              0.0000000000
      5107        45  SAPE      O12            25.9608789449      -10.5758309931       20.0257718509  MEMB      45              0.0000000000
      5108        45  SAPE      O11            25.5771962079       -9.3758625145       17.9838212286  MEMB      45              0.0000000000
      5109        45  SAPE      C1             24.7213496601      -10.4339793748       17.5343498006  MEMB      45              0.0000000000
      5110        45  SAPE      HA             24.0473186147      -10.8517470425       18.3219962044  MEMB      45              0.0000000000
      5111        45  SAPE      HB             24.0691003909      -10.0471090083       16.7184636442  MEMB      45              0.0000000000
      5112        45  SAPE      C2             25.5390003926      -11.5899544032       16.9335155339  MEMB      45              0.0000000000
      5113        45  SAPE      HS             26.2256319547      -11.9943679953       17.7149830097  MEMB      45              0.0000000000
      5114        45  SAPE      O21            26.2478585762      -11.1121149423       15.7910194000  MEMB      45              0.0000000000
      5115        45  SAPE      C21            27.4258693633      -10.6201289547       15.9603173781  MEMB      45              0.0000000000
      5116        45  SAPE      O22            28.0676912832      -10.5780508835       16.9977339171  MEMB      45              0.0000000000
      5117        45  SAPE      C22            27.8573505433      -10.1471713472       14.5718108651  MEMB      45              0.0000000000
      5118        45  SAPE      H2R            27.8802516220      -11.0391739149       13.9094193508  MEMB      45              0.0000000000
      5119        45  SAPE      H2S            27.0906622935       -9.4276928767       14.2139738103  MEMB      45              0.0000000000
      5120        45  SAPE      C3             24.6101301896      -12.7094026370       16.4385049228  MEMB      45              0.0000000000
      5121        45  SAPE      HX             23.6832498403      -12.2013807667       16.0735582911  MEMB      45              0.0000000000
      5122        45  SAPE      HY             24.3282379200      -13.3843148599       17.2861147452  MEMB      45              0.0000000000
      5123        45  SAPE      O31            25.2708472357      -13.3439668718       15.3140442761  MEMB      45              0.0000000000
      5124        45  SAPE      C31            24.6886737049      -14.3918887928       14.8458972712  MEMB      45              0.0000000000
      5125        45  SAPE      O32            23.8921631292      -15.0799804006       15.4013575491  MEMB      45              0.0000000000
      5126        45  SAPE      C32            25.0611089479      -14.7280655002       13.4638582867  MEMB      45              0.0000000000
      5127        45  SAPE      H2X            24.6763014438      -15.7560056128       13.2507892644  MEMB      45              0.0000000000
      5128        45  SAPE      H2Y            26.1563342795      -14.7034648565       13.3931543689  MEMB      45              0.0000000000
      5129        45  SAPE      C23            29.2581396778       -9.5449722490       14.5903508034  MEMB      45              0.0000000000
      5130        45  SAPE      H3R            29.9555179646      -10.3339227029       14.9455114369  MEMB      45              0.0000000000
      5131        45  SAPE      H3S            29.2899244680       -8.6777113637       15.2943127821  MEMB      45              0.0000000000
      5132        45  SAPE      C24            29.7612748210       -8.9339630827       13.2891773675  MEMB      45              0.0000000000
      5133        45  SAPE      H4R            30.7393099152       -8.5229383027       13.6010690530  MEMB      45              0.0000000000
      5134        45  SAPE      H4S            29.0918779423       -8.1096834077       12.9711947240  MEMB      45              0.0000000000
      5135        45  SAPE      C25            30.0721312271       -9.5714596465       12.0105084014  MEMB      45              0.0000000000
      5136        45  SAPE      H5R            31.0834350407      -10.0500882608       11.9472146922  MEMB      45              0.0000000000
      5137        45  SAPE      C26            29.1293901363       -9.9692418244       11.1602245272  MEMB      45              0.0000000000
      5138        45  SAPE      H6R            29.4818751336      -10.3598122456       10.2189345729  MEMB      45              0.0000000000
      5139        45  SAPE      C27            27.6576221239      -10.0388218672       11.0156653709  MEMB      45              0.0000000000
      5140        45  SAPE      H7R            27.1251144345      -10.3381591316       11.9331894501  MEMB      45              0.0000000000
      5141        45  SAPE      H7S            27.4289697917      -10.8765157246       10.3100315541  MEMB      45              0.0000000000
      5142        45  SAPE      C28            27.3915351718       -8.6977028916       10.4657876984  MEMB      45              0.0000000000
      5143        45  SAPE      H8R            27.8972551104       -7.8846602115       10.9702426714  MEMB      45              0.0000000000
      5144        45  SAPE      C29            26.6403562173       -8.4284997814        9.4189196200  MEMB      45              0.0000000000
      5145        45  SAPE      H9R            26.3683588506       -7.4212224864        9.1373265848  MEMB      45              0.0000000000
      5146        45  SAPE      C210           25.9359104330       -9.4071912273        8.6432652439  MEMB      45              0.0000000000
      5147        45  SAPE      H10R           26.3390005746      -10.4462698206        8.8004393432  MEMB      45              0.0000000000
      5148        45  SAPE      H10S           25.9289115180       -9.2148489521        7.5398274938  MEMB      45              0.0000000000
      5149        45  SAPE      C211           24.5941944860       -9.1404693370        9.2655980624  MEMB      45              0.0000000000
      5150        45  SAPE      H11R           24.0864939888       -8.2512884984        9.6309106483  MEMB      45              0.0000000000
      5151        45  SAPE      C212           23.7493530912       -9.8490302408        8.7299584482  MEMB      45              0.0000000000
      5152        45  SAPE      H12R           22.9614968876      -10.1513665177        9.3072065993  MEMB      45              0.0000000000
      5153        45  SAPE      C213           24.1362476705      -10.7518113042        7.7394366030  MEMB      45              0.0000000000
      5154        45  SAPE      H13R           23.7846309607      -11.4707820360        8.4521261410  MEMB      45              0.0000000000
      5155        45  SAPE      H13S           25.0231219774      -11.3026487561        7.8997362795  MEMB      45              0.0000000000
      5156        45  SAPE      C214           23.5943032572      -10.7529352745        6.3327476350  MEMB      45              0.0000000000
      5157        45  SAPE      H14R           22.6736670478      -10.2239204784        6.5266210705  MEMB      45              0.0000000000
      5158        45  SAPE      C215           23.6946108067      -11.6051099253        5.2261081485  MEMB      45              0.0000000000
      5159        45  SAPE      H15R           22.6269699216      -11.6405022554        4.8849992367  MEMB      45              0.0000000000
      5160        45  SAPE      C216           24.4854058343      -13.0714681012        4.9311971748  MEMB      45              0.0000000000
      5161        45  SAPE      H16R           24.1457327908      -14.1387703165        5.2472983035  MEMB      45              0.0000000000
      5162        45  SAPE      H16S           24.7363056208      -14.0008592242        5.5714697059  MEMB      45              0.0000000000
      5163        45  SAPE      C217           24.8443557442      -13.4458984015        3.7114549416  MEMB      45              0.0000000000
      5164        45  SAPE      H17R           25.4008839008      -12.4966591462        3.8170302852  MEMB      45              0.0000000000
      5165        45  SAPE      H17S           24.1313828598      -13.5445398162        2.9547604478  MEMB      45              0.0000000000
      5166        45  SAPE      C218           25.6186436354      -14.6851336353        3.8180809029  MEMB      45              0.0000000000
      5167        45  SAPE      H18R           25.2407614221      -15.6801048243        4.1370602926  MEMB      45              0.0000000000
      5168        45  SAPE      H18S           26.2132552851      -14.2620093464        4.6673642064  MEMB      45              0.0000000000
      5169        45  SAPE      C219           26.3670924228      -14.5690057459        2.6027280865  MEMB      45              0.0000000000
      5170        45  SAPE      H19R           26.7444748333      -13.5357271468        2.8409658219  MEMB      45              0.0000000000
      5171        45  SAPE      H19S           25.8611642211      -14.2504954940        1.7018366142  MEMB      45              0.0000000000
      5172        45  SAPE      C220           27.2184345814      -15.7412930500        2.1589064775  MEMB      45              0.0000000000
      5173        45  SAPE      H20R           27.9325731087      -15.2224563853        1.4901067103  MEMB      45              0.0000000000
      5174        45  SAPE      H20S           27.3089105112      -16.7118811082        2.6793990346  MEMB      45              0.0000000000
      5175        45  SAPE      H20T           28.0079531900      -16.0516333970        2.8497477142  MEMB      45              0.0000000000
      5176        45  SAPE      C33            24.3934132571      -13.7332342854       12.5556083931  MEMB      45              0.0000000000
      5177        45  SAPE      H3X            24.7606496928      -12.6945220155       12.7207083176  MEMB      45              0.0000000000
      5178        45  SAPE      H3Y            23.2919048328      -13.7231928653       12.6475580352  MEMB      45              0.0000000000
      5179        45  SAPE      C34            24.7031962066      -14.1001469245       11.1458719166  MEMB      45              0.0000000000
      5180        45  SAPE      H4X            23.7601682218      -13.7580552078       10.7656879585  MEMB      45              0.0000000000
      5181        45  SAPE      H4Y            24.7148047605      -15.1959713036       10.9313626873  MEMB      45              0.0000000000
      5182        45  SAPE      C35            25.9451304933      -13.2441127305       10.7011785127  MEMB      45              0.0000000000
      5183        45  SAPE      H5X            26.5317316947      -13.5947646578       11.5620991317  MEMB      45              0.0000000000
      5184        45  SAPE      H5Y            25.7514717844      -12.1779745809       10.8249120424  MEMB      45              0.0000000000
      5185        45  SAPE      C36            26.3946079057      -13.3385430451        9.1730753242  MEMB      45              0.0000000000
      5186        45  SAPE      H6X            25.8005009937      -12.7085529117        8.6047539489  MEMB      45              0.0000000000
      5187        45  SAPE      H6Y            25.7428660651      -14.2240740370        9.2016179683  MEMB      45              0.0000000000
      5188        45  SAPE      C37            27.8126361433      -13.0888246738        8.1908776657  MEMB      45              0.0000000000
      5189        45  SAPE      H7X            28.6427238120      -13.8301190529        8.2909568597  MEMB      45              0.0000000000
      5190        45  SAPE      H7Y            27.7269005501      -12.2925421820        8.7978970018  MEMB      45              0.0000000000
      5191        45  SAPE      C38            29.1174199908      -13.4358306882        7.1672934702  MEMB      45              0.0000000000
      5192        45  SAPE      H8X            29.2674775714      -14.3293684742        6.5093331546  MEMB      45              0.0000000000
      5193        45  SAPE      H8Y            30.2156887569      -13.6616485473        7.3383065294  MEMB      45              0.0000000000
      5194        45  SAPE      C39            28.4075177689      -12.3710364992        6.4759617666  MEMB      45              0.0000000000
      5195        45  SAPE      H9X            27.2700614665      -12.3385672826        6.5022503680  MEMB      45              0.0000000000
      5196        45  SAPE      H9Y            28.4927477365      -12.3175487123        5.4473220797  MEMB      45              0.0000000000
      5197        45  SAPE      C310           29.1647290253      -11.2107393803        6.8448206761  MEMB      45              0.0000000000
      5198        45  SAPE      H10X           30.2220081311      -11.6069632466        6.8229191473  MEMB      45              0.0000000000
      5199        45  SAPE      H10Y           28.8206323907      -10.9051508625        7.8524143007  MEMB      45              0.0000000000
      5200        45  SAPE      C311           28.9634052780      -10.2140785749        5.7389847252  MEMB      45              0.0000000000
      5201        45  SAPE      H11X           29.7216288620      -10.4278951202        4.9480542506  MEMB      45              0.0000000000
      5202        45  SAPE      H11Y           29.1764342988       -9.2857065982        6.2860123649  MEMB      45              0.0000000000
      5203        45  SAPE      C312           27.5814947338      -10.1369451827        5.0525539013  MEMB      45              0.0000000000
      5204        45  SAPE      H12X           26.7294553493      -10.2496429067        5.7528656965  MEMB      45              0.0000000000
      5205        45  SAPE      H12Y           27.4646082671      -10.9165419678        4.2606646282  MEMB      45              0.0000000000
      5206        45  SAPE      C313           27.4461006275       -8.7914819727        4.3851908350  MEMB      45              0.0000000000
      5207        45  SAPE      H13X           27.8456571607       -8.8971328478        3.3549138642  MEMB      45              0.0000000000
      5208        45  SAPE      H13Y           28.0114391787       -8.0227655656        4.9680892737  MEMB      45              0.0000000000
      5209        45  SAPE      C314           26.0276534247       -8.3234036829        4.1835008444  MEMB      45              0.0000000000
      5210        45  SAPE      H14X           26.0745448816       -7.2431635734        3.9168132831  MEMB      45              0.0000000000
      5211        45  SAPE      H14Y           25.5009480255       -8.4533442401        5.1515639735  MEMB      45              0.0000000000
      5212        45  SAPE      C315           25.3876249089       -9.1068005380        3.0338170978  MEMB      45              0.0000000000
      5213        45  SAPE      H15X           24.3997245966       -9.4918153718        3.3357217366  MEMB      45              0.0000000000
      5214        45  SAPE      H15Y           26.0397412224       -9.9857119072        2.8359233744  MEMB      45              0.0000000000
      5215        45  SAPE      C316           25.1260758378       -8.2401503972        1.7878846505  MEMB      45              0.0000000000
      5216        45  SAPE      H16X           25.9289485376       -7.5115608240        1.6835825986  MEMB      45              0.0000000000
      5217        45  SAPE      H16Y           24.2026285289       -7.6768095967        1.8873503379  MEMB      45              0.0000000000
      5218        45  SAPE      C317           24.8844219308       -8.9586396915        0.4975665278  MEMB      45              0.0000000000
      5219        45  SAPE      H17X           24.8936458806       -8.3652088678       -0.4538835324  MEMB      45              0.0000000000
      5220        45  SAPE      H17Y           24.1630690374       -9.8065230993        0.5497322005  MEMB      45              0.0000000000
      5221        45  SAPE      C318           26.0475016830       -9.6616135252        0.2883611860  MEMB      45              0.0000000000
      5222        45  SAPE      H18X           26.9374127531       -8.9744278163        0.3439391996  MEMB      45              0.0000000000
      5223        45  SAPE      H18Y           25.8756161663      -10.2179609803       -0.6420421581  MEMB      45              0.0000000000
      5224        45  SAPE      H18Z           26.1154238985      -10.4951870827        0.9568847147  MEMB      45              0.0000000000
      5225        46  CHL1      C3            -10.1463267802       26.4164834829       17.3350387667  MEMB      46              0.0000000000
      5226        46  CHL1      H3             -9.3924433216       25.6231922342       17.1439564032  MEMB      46              0.0000000000
      5227        46  CHL1      O3            -10.3057395007       26.5776965001       18.7325034451  MEMB      46              0.0000000000
      5228        46  CHL1      H3'            -9.4362871364       26.8116183372       19.0642996804  MEMB      46              0.0000000000
      5229        46  CHL1      C4             -9.6664592525       27.7029271233       16.7078524577  MEMB      46              0.0000000000
      5230        46  CHL1      H4A           -10.3514908120       28.5080144547       17.0933788499  MEMB      46              0.0000000000
      5231        46  CHL1      H4B            -8.6569512950       28.0013251223       17.0847070021  MEMB      46              0.0000000000
      5232        46  CHL1      C5             -9.7130507842       27.5441615186       15.1783632954  MEMB      46              0.0000000000
      5233        46  CHL1      C6             -8.6619642276       27.7640239524       14.3626573174  MEMB      46              0.0000000000
      5234        46  CHL1      H6             -7.7652456826       28.1802910839       14.8345579514  MEMB      46              0.0000000000
      5235        46  CHL1      C7             -8.7724050361       27.9266789879       12.8544157498  MEMB      46              0.0000000000
      5236        46  CHL1      H7A            -8.0481270888       28.6267327594       12.3924753099  MEMB      46              0.0000000000
      5237        46  CHL1      H7B            -8.4669668867       27.0266935780       12.3147251893  MEMB      46              0.0000000000
      5238        46  CHL1      C8            -10.2213781691       28.2846466567       12.4500469263  MEMB      46              0.0000000000
      5239        46  CHL1      H8            -10.6255687049       29.2668085873       12.8042844748  MEMB      46              0.0000000000
      5240        46  CHL1      C14           -10.2521494182       28.2966902473       10.9535802925  MEMB      46              0.0000000000
      5241        46  CHL1      H14            -9.7934056077       27.3266031295       10.6376843855  MEMB      46              0.0000000000
      5242        46  CHL1      C15            -9.4884401573       29.3864258057       10.1739344523  MEMB      46              0.0000000000
      5243        46  CHL1      H15A           -9.7236226014       30.3798568672       10.6023709226  MEMB      46              0.0000000000
      5244        46  CHL1      H15B           -8.4085945811       29.1734447984       10.1135358707  MEMB      46              0.0000000000
      5245        46  CHL1      C16           -10.0528754689       29.3135703094        8.7866806726  MEMB      46              0.0000000000
      5246        46  CHL1      H16A          -10.5056089380       30.2948413189        8.4883646777  MEMB      46              0.0000000000
      5247        46  CHL1      H16B           -9.3327359698       28.9825354685        8.0114020714  MEMB      46              0.0000000000
      5248        46  CHL1      C17           -11.1540935747       28.2802255311        8.9419213317  MEMB      46              0.0000000000
      5249        46  CHL1      H17           -10.8134850335       27.2374150909        8.7068279073  MEMB      46              0.0000000000
      5250        46  CHL1      C13           -11.6103578627       28.2249405430       10.3942348289  MEMB      46              0.0000000000
      5251        46  CHL1      C18           -12.4363762657       29.4670116597       10.7354300760  MEMB      46              0.0000000000
      5252        46  CHL1      H18A          -12.0396004824       30.3493961271       10.2266738037  MEMB      46              0.0000000000
      5253        46  CHL1      H18B          -13.4782152783       29.4009168378       10.3755873504  MEMB      46              0.0000000000
      5254        46  CHL1      H18C          -12.4652019012       29.6518820098       11.8312756328  MEMB      46              0.0000000000
      5255        46  CHL1      C12           -12.1792518275       26.9057041280       10.9416831481  MEMB      46              0.0000000000
      5256        46  CHL1      H12A          -13.1586973195       26.7400417827       10.5734547484  MEMB      46              0.0000000000
      5257        46  CHL1      H12B          -11.6155517488       26.0395710758       10.5626263431  MEMB      46              0.0000000000
      5258        46  CHL1      C11           -12.3630859548       26.9145679315       12.4218626287  MEMB      46              0.0000000000
      5259        46  CHL1      H11A          -13.0466093422       27.7381056051       12.6667279791  MEMB      46              0.0000000000
      5260        46  CHL1      H11B          -12.8241075367       25.9577872720       12.7435348107  MEMB      46              0.0000000000
      5261        46  CHL1      C9            -11.0273323211       27.1543251393       13.0729176249  MEMB      46              0.0000000000
      5262        46  CHL1      H9            -10.4452622662       26.2375376979       12.8472598151  MEMB      46              0.0000000000
      5263        46  CHL1      C10           -11.0826018890       27.2526271853       14.5910174626  MEMB      46              0.0000000000
      5264        46  CHL1      C19           -12.1724288620       28.2292591785       14.8823498629  MEMB      46              0.0000000000
      5265        46  CHL1      H19A          -12.2070215649       28.9779975541       14.0933594166  MEMB      46              0.0000000000
      5266        46  CHL1      H19B          -13.1840998330       27.8047419314       14.7280940117  MEMB      46              0.0000000000
      5267        46  CHL1      H19C          -12.1263656746       28.6949007172       15.8833082350  MEMB      46              0.0000000000
      5268        46  CHL1      C1            -11.5448399266       25.9649799408       15.2254567406  MEMB      46              0.0000000000
      5269        46  CHL1      H1A           -12.5885271878       25.7657131198       14.8998549773  MEMB      46              0.0000000000
      5270        46  CHL1      H1B           -10.8919984969       25.1743545707       14.8164521015  MEMB      46              0.0000000000
      5271        46  CHL1      C2            -11.5130639389       26.0447087147       16.7584236437  MEMB      46              0.0000000000
      5272        46  CHL1      H2A           -11.8004337793       25.0623372524       17.1623414050  MEMB      46              0.0000000000
      5273        46  CHL1      H2B           -12.2414753200       26.8180225823       17.1014479972  MEMB      46              0.0000000000
      5274        46  CHL1      C20           -12.1239226185       28.6317305374        7.9666951372  MEMB      46              0.0000000000
      5275        46  CHL1      H20           -12.6064892296       29.6229784758        8.1459004547  MEMB      46              0.0000000000
      5276        46  CHL1      C21           -13.0131089884       27.4386709220        8.3733666911  MEMB      46              0.0000000000
      5277        46  CHL1      H21A          -12.9014937604       26.3445839062        8.3125874429  MEMB      46              0.0000000000
      5278        46  CHL1      H21B          -13.5966943482       26.9729430964        7.7045838698  MEMB      46              0.0000000000
      5279        46  CHL1      H21C          -13.8964423856       27.9175624787        8.7669245214  MEMB      46              0.0000000000
      5280        46  CHL1      C22           -11.4997828060       28.8487668180        6.5557958000  MEMB      46              0.0000000000
      5281        46  CHL1      H22A          -10.4608200076       29.0909807584        6.3877233110  MEMB      46              0.0000000000
      5282        46  CHL1      H22B          -11.3384414464       27.7507254801        6.4464858975  MEMB      46              0.0000000000
      5283        46  CHL1      C23           -12.2354383646       29.7315930716        5.4373363362  MEMB      46              0.0000000000
      5284        46  CHL1      H23A          -13.3210236402       29.7956088109        5.3282849123  MEMB      46              0.0000000000
      5285        46  CHL1      H23B          -12.0181418749       30.7726783709        5.3754653670  MEMB      46              0.0000000000
      5286        46  CHL1      C24           -11.9552899027       29.2034221612        4.0521695318  MEMB      46              0.0000000000
      5287        46  CHL1      H24A          -10.9657809210       29.5081035934        3.7145334917  MEMB      46              0.0000000000
      5288        46  CHL1      H24B          -11.4946744304       28.2164624371        4.2064326393  MEMB      46              0.0000000000
      5289        46  CHL1      C25           -13.0911559291       29.2126119425        2.9524425627  MEMB      46              0.0000000000
      5290        46  CHL1      H25           -13.2236076319       30.2457448624        2.7678446772  MEMB      46              0.0000000000
      5291        46  CHL1      C26           -11.9018913784       28.6574062854        1.7391003348  MEMB      46              0.0000000000
      5292        46  CHL1      H26A          -11.7030632877       27.5991307778        1.4742784385  MEMB      46              0.0000000000
      5293        46  CHL1      H26B          -12.1884865936       28.4884043712        0.6992133676  MEMB      46              0.0000000000
      5294        46  CHL1      H26C          -10.9589591355       29.1806187199        1.6534722785  MEMB      46              0.0000000000
      5295        46  CHL1      C27           -14.9589307314       29.0548157965        3.1577847072  MEMB      46              0.0000000000
      5296        46  CHL1      H27A          -15.1487992646       28.0102803574        2.9443614575  MEMB      46              0.0000000000
      5297        46  CHL1      H27B          -15.6336824895       28.6360032775        3.9074761372  MEMB      46              0.0000000000
      5298        46  CHL1      H27C          -15.7644635302       28.9161605023        2.4201507501  MEMB      46              0.0000000000
      5299        47  SAPC      N             -27.0183114093       11.5281763760       22.1878361283  MEMB      47              0.0000000000
      5300        47  SAPC      C12           -28.0558138465       11.2191840560       21.1278342983  MEMB      47              0.0000000000
      5301        47  SAPC      H12A          -29.0313313260       11.3830328361       21.5696509307  MEMB      47              0.0000000000
      5302        47  SAPC      H12B          -27.9851569764       10.1783371732       20.8357409481  MEMB      47              0.0000000000
      5303        47  SAPC      C13           -26.9700175286       13.0159027706       22.4253781214  MEMB      47              0.0000000000
      5304        47  SAPC      H13A          -26.5125249074       13.5879314718       21.6159528604  MEMB      47              0.0000000000
      5305        47  SAPC      H13B          -27.9891101668       13.3707755903       22.5057730237  MEMB      47              0.0000000000
      5306        47  SAPC      H13C          -26.4801285331       13.2866440827       23.3503599431  MEMB      47              0.0000000000
      5307        47  SAPC      C14           -27.4826513686       10.8838634830       23.4423284259  MEMB      47              0.0000000000
      5308        47  SAPC      H14A          -27.4527011013        9.8165669696       23.3045658600  MEMB      47              0.0000000000
      5309        47  SAPC      H14B          -26.8846362027       11.1936261136       24.2886925560  MEMB      47              0.0000000000
      5310        47  SAPC      H14C          -28.5049849530       11.1703511334       23.6646377159  MEMB      47              0.0000000000
      5311        47  SAPC      C15           -25.6810958323       10.9530294168       21.7696209697  MEMB      47              0.0000000000
      5312        47  SAPC      H15A          -24.8747842696       11.1751390656       22.4544165388  MEMB      47              0.0000000000
      5313        47  SAPC      H15B          -25.7138289934        9.8771645276       21.6105139039  MEMB      47              0.0000000000
      5314        47  SAPC      H15C          -25.4118345594       11.3348363654       20.7759334010  MEMB      47              0.0000000000
      5315        47  SAPC      C11           -28.0184508404       12.0097803199       19.8189862726  MEMB      47              0.0000000000
      5316        47  SAPC      H11A          -28.2979737477       13.0410700000       20.0279851371  MEMB      47              0.0000000000
      5317        47  SAPC      H11B          -28.8051195118       11.5817571215       19.1449522793  MEMB      47              0.0000000000
      5318        47  SAPC      P             -26.4428249843       11.4112024443       17.8555335032  MEMB      47              0.0000000000
      5319        47  SAPC      O13           -25.1502079481       11.9318145265       17.3640589493  MEMB      47              0.0000000000
      5320        47  SAPC      O14           -26.7198830468        9.9769706352       17.9622381389  MEMB      47              0.0000000000
      5321        47  SAPC      O12           -26.7151866888       12.0292031034       19.2663991377  MEMB      47              0.0000000000
      5322        47  SAPC      O11           -27.6228217494       12.0412984865       17.0294695319  MEMB      47              0.0000000000
      5323        47  SAPC      C1            -27.5451352146       13.3085793095       16.4075045884  MEMB      47              0.0000000000
      5324        47  SAPC      HA            -27.0153013662       14.0642615210       17.0333985829  MEMB      47              0.0000000000
      5325        47  SAPC      HB            -26.9821326553       13.2011177791       15.4570626072  MEMB      47              0.0000000000
      5326        47  SAPC      C2            -28.9230195562       13.8079614860       15.9141323230  MEMB      47              0.0000000000
      5327        47  SAPC      HS            -29.5164236218       14.1964776967       16.7747541593  MEMB      47              0.0000000000
      5328        47  SAPC      O21           -29.6687944948       12.7664262536       15.2722494863  MEMB      47              0.0000000000
      5329        47  SAPC      C21           -30.2756611547       11.8491275057       15.9905660331  MEMB      47              0.0000000000
      5330        47  SAPC      O22           -30.7622064108       11.9893391977       17.1024698778  MEMB      47              0.0000000000
      5331        47  SAPC      C22           -30.3698417408       10.5983796243       15.1349251121  MEMB      47              0.0000000000
      5332        47  SAPC      H2R           -30.9571583186        9.8156896429       15.6581078867  MEMB      47              0.0000000000
      5333        47  SAPC      H2S           -30.8826985732       10.8620516204       14.1876532727  MEMB      47              0.0000000000
      5334        47  SAPC      C3            -28.6472995393       14.9442751398       14.8650273500  MEMB      47              0.0000000000
      5335        47  SAPC      HX            -28.4063154677       15.8912358888       15.4057479532  MEMB      47              0.0000000000
      5336        47  SAPC      HY            -29.5232618842       15.1765268536       14.3087730421  MEMB      47              0.0000000000
      5337        47  SAPC      O31           -27.7970792827       14.6519015018       13.7767646457  MEMB      47              0.0000000000
      5338        47  SAPC      C31           -28.3038937083       13.9115345306       12.7672200546  MEMB      47              0.0000000000
      5339        47  SAPC      O32           -29.3866293672       13.3884774147       12.6817209667  MEMB      47              0.0000000000
      5340        47  SAPC      C32           -27.2484856026       13.7083373183       11.7530832436  MEMB      47              0.0000000000
      5341        47  SAPC      H2X           -27.2613625331       14.5590517090       11.0424337932  MEMB      47              0.0000000000
      5342        47  SAPC      H2Y           -27.5449161066       12.7634745818       11.2530788781  MEMB      47              0.0000000000
      5343        47  SAPC      C23           -28.9831922411       10.0273655130       14.8125028093  MEMB      47              0.0000000000
      5344        47  SAPC      H3R           -28.2186100147       10.2732282221       15.5922494350  MEMB      47              0.0000000000
      5345        47  SAPC      H3S           -28.6223577644       10.4975668732       13.8729137068  MEMB      47              0.0000000000
      5346        47  SAPC      C24           -29.1515162902        8.5163330362       14.7118844726  MEMB      47              0.0000000000
      5347        47  SAPC      H4R           -29.9723281671        8.2117597025       14.0560495819  MEMB      47              0.0000000000
      5348        47  SAPC      H4S           -29.2964031084        8.1459052795       15.7606044955  MEMB      47              0.0000000000
      5349        47  SAPC      C25           -27.9863390423        7.8427628137       14.1628698766  MEMB      47              0.0000000000
      5350        47  SAPC      H5R           -27.6330802991        7.1856551232       14.9509180323  MEMB      47              0.0000000000
      5351        47  SAPC      C26           -27.4283513591        7.7367021278       12.9454154163  MEMB      47              0.0000000000
      5352        47  SAPC      H6R           -26.3576802558        7.4947912205       12.8789228097  MEMB      47              0.0000000000
      5353        47  SAPC      C27           -27.8730010371        8.3192943265       11.6803675278  MEMB      47              0.0000000000
      5354        47  SAPC      H7R           -27.7732252615        9.4159828693       11.6803547781  MEMB      47              0.0000000000
      5355        47  SAPC      H7S           -28.9519334828        8.1228426829       11.7171977774  MEMB      47              0.0000000000
      5356        47  SAPC      C28           -27.0964588879        7.6526851254       10.5493077325  MEMB      47              0.0000000000
      5357        47  SAPC      H8R           -27.0857306508        6.5585408312       10.4931196166  MEMB      47              0.0000000000
      5358        47  SAPC      C29           -26.1984540387        8.1867117280        9.7423389785  MEMB      47              0.0000000000
      5359        47  SAPC      H9R           -25.8303433320        7.5545288135        8.9188634195  MEMB      47              0.0000000000
      5360        47  SAPC      C210          -25.7528291244        9.6111170486        9.7921489391  MEMB      47              0.0000000000
      5361        47  SAPC      H10R          -24.8250406484        9.6551794670       10.3994093923  MEMB      47              0.0000000000
      5362        47  SAPC      H10S          -26.4706017592       10.2561376709       10.3466264929  MEMB      47              0.0000000000
      5363        47  SAPC      C211          -25.4802570440       10.1483697861        8.4175417162  MEMB      47              0.0000000000
      5364        47  SAPC      H11R          -24.4435063688       10.0273496957        8.0713357734  MEMB      47              0.0000000000
      5365        47  SAPC      C212          -26.3807888680       10.7388971921        7.6125465998  MEMB      47              0.0000000000
      5366        47  SAPC      H12R          -26.0258153504       11.2026360869        6.6791813335  MEMB      47              0.0000000000
      5367        47  SAPC      C213          -27.8357592941       10.9748083010        7.9345766331  MEMB      47              0.0000000000
      5368        47  SAPC      H13R          -28.0262085333       10.8701421906        9.0252434401  MEMB      47              0.0000000000
      5369        47  SAPC      H13S          -28.4494761828       10.1788894899        7.4539056162  MEMB      47              0.0000000000
      5370        47  SAPC      C214          -28.2643856216       12.3576798015        7.5049237096  MEMB      47              0.0000000000
      5371        47  SAPC      H14R          -28.2922869170       13.0769342044        8.3364851977  MEMB      47              0.0000000000
      5372        47  SAPC      C215          -28.6165290503       12.7746496073        6.2695250944  MEMB      47              0.0000000000
      5373        47  SAPC      H15R          -28.9638223365       13.8165981345        6.1465396746  MEMB      47              0.0000000000
      5374        47  SAPC      C216          -28.6584749598       11.9056567678        5.0343886520  MEMB      47              0.0000000000
      5375        47  SAPC      H16R          -28.7360121130       10.8544607042        5.3533578272  MEMB      47              0.0000000000
      5376        47  SAPC      H16S          -27.7295905578       12.0186929696        4.4248511164  MEMB      47              0.0000000000
      5377        47  SAPC      C217          -29.9003790083       12.0604715958        4.1410523893  MEMB      47              0.0000000000
      5378        47  SAPC      H17R          -30.2144779128       13.0390456918        4.2055474734  MEMB      47              0.0000000000
      5379        47  SAPC      H17S          -30.8602285082       11.7471508681        4.5641584654  MEMB      47              0.0000000000
      5380        47  SAPC      C218          -29.7656595483       11.6121715785        2.7007143969  MEMB      47              0.0000000000
      5381        47  SAPC      H18R          -29.1253182803       12.1913863099        2.0000582409  MEMB      47              0.0000000000
      5382        47  SAPC      H18S          -30.7875268427       11.5264074387        2.2440920010  MEMB      47              0.0000000000
      5383        47  SAPC      C219          -29.1420835614       10.2920649611        2.7522968261  MEMB      47              0.0000000000
      5384        47  SAPC      H19R          -29.7097687033        9.7538664816        3.5752493581  MEMB      47              0.0000000000
      5385        47  SAPC      H19S          -28.0717363126       10.2264301009        3.0007264644  MEMB      47              0.0000000000
      5386        47  SAPC      C220          -29.2953763996        9.7624226806        1.3646735566  MEMB      47              0.0000000000
      5387        47  SAPC      H20R          -29.1957626872       10.3395226325        0.4572562588  MEMB      47              0.0000000000
      5388        47  SAPC      H20S          -30.3452067368        9.4038332909        1.4014482650  MEMB      47              0.0000000000
      5389        47  SAPC      H20T          -28.6072252064        8.9070880652        1.2393846576  MEMB      47              0.0000000000
      5390        47  SAPC      C33           -25.9395827356       13.5417158578       12.5250005516  MEMB      47              0.0000000000
      5391        47  SAPC      H3X           -26.1473678902       12.9816398380       13.4712278814  MEMB      47              0.0000000000
      5392        47  SAPC      H3Y           -25.6054956566       14.5386218710       12.8605290600  MEMB      47              0.0000000000
      5393        47  SAPC      C34           -24.8486676263       12.7386617990       11.8124372325  MEMB      47              0.0000000000
      5394        47  SAPC      H4X           -25.0665240615       11.6619274208       11.9648008269  MEMB      47              0.0000000000
      5395        47  SAPC      H4Y           -23.8917436928       12.9980480753       12.3199130350  MEMB      47              0.0000000000
      5396        47  SAPC      C35           -24.6762991033       12.9299695630       10.3109215229  MEMB      47              0.0000000000
      5397        47  SAPC      H5X           -25.6119043957       12.7402486087        9.7402444655  MEMB      47              0.0000000000
      5398        47  SAPC      H5Y           -23.8499239800       12.3129970172        9.8979042149  MEMB      47              0.0000000000
      5399        47  SAPC      C36           -24.2556275367       14.3126605970       10.0297042397  MEMB      47              0.0000000000
      5400        47  SAPC      H6X           -23.3976659593       14.6118693902       10.6866851089  MEMB      47              0.0000000000
      5401        47  SAPC      H6Y           -25.1498434093       14.9225590782       10.2958620488  MEMB      47              0.0000000000
      5402        47  SAPC      C37           -23.8096511408       14.5551180400        8.5908054598  MEMB      47              0.0000000000
      5403        47  SAPC      H7X           -22.8758610986       14.0225609680        8.3597014339  MEMB      47              0.0000000000
      5404        47  SAPC      H7Y           -23.4483973341       15.5766443499        8.5921979774  MEMB      47              0.0000000000
      5405        47  SAPC      C38           -24.9209275650       14.3334177125        7.5613163165  MEMB      47              0.0000000000
      5406        47  SAPC      H8X           -25.8316549832       14.8988092835        7.8740860750  MEMB      47              0.0000000000
      5407        47  SAPC      H8Y           -25.1649087279       13.2521710594        7.5603001782  MEMB      47              0.0000000000
      5408        47  SAPC      C39           -24.5828628762       14.7727023000        6.1352467195  MEMB      47              0.0000000000
      5409        47  SAPC      H9X           -23.7817222314       14.1463676641        5.6875231174  MEMB      47              0.0000000000
      5410        47  SAPC      H9Y           -24.2377235341       15.8298454525        6.1772779756  MEMB      47              0.0000000000
      5411        47  SAPC      C310          -25.8071154984       14.7062844994        5.2282359265  MEMB      47              0.0000000000
      5412        47  SAPC      H10X          -26.6362870766       15.2438151193        5.7429755975  MEMB      47              0.0000000000
      5413        47  SAPC      H10Y          -26.1148221924       13.6521400011        5.0532669707  MEMB      47              0.0000000000
      5414        47  SAPC      C311          -25.5797420402       15.4335981157        3.9104395446  MEMB      47              0.0000000000
      5415        47  SAPC      H11X          -24.6782854153       15.0466630709        3.4134584502  MEMB      47              0.0000000000
      5416        47  SAPC      H11Y          -25.3704523704       16.4675023649        4.1665611662  MEMB      47              0.0000000000
      5417        47  SAPC      C312          -26.8769982478       15.5919387471        3.1335742309  MEMB      47              0.0000000000
      5418        47  SAPC      H12X          -27.1274294207       16.5990030928        2.7236940795  MEMB      47              0.0000000000
      5419        47  SAPC      H12Y          -27.6132116294       15.2345681281        3.8271281424  MEMB      47              0.0000000000
      5420        47  SAPC      C313          -27.0145471887       14.6993494183        1.9807368001  MEMB      47              0.0000000000
      5421        47  SAPC      H13X          -26.9370925467       13.6191506392        2.2569087530  MEMB      47              0.0000000000
      5422        47  SAPC      H13Y          -26.0487593784       15.0883044484        1.6983615653  MEMB      47              0.0000000000
      5423        47  SAPC      C314          -27.9707581988       15.1847269497        0.8872893875  MEMB      47              0.0000000000
      5424        47  SAPC      H14X          -27.7216028826       16.1697875476        0.4602461597  MEMB      47              0.0000000000
      5425        47  SAPC      H14Y          -29.0157017788       15.2672308251        1.0217506570  MEMB      47              0.0000000000
      5426        47  SAPC      C315          -28.3144055352       14.1401753574       -0.0604891543  MEMB      47              0.0000000000
      5427        47  SAPC      H15X          -28.3831710298       13.0347155118        0.0999208833  MEMB      47              0.0000000000
      5428        47  SAPC      H15Y          -27.4864200049       14.6281982518       -0.7032090567  MEMB      47              0.0000000000
      5429        47  SAPC      C316          -29.1955695044       14.1627570594       -1.0857408257  MEMB      47              0.0000000000
      5430        47  SAPC      H16X          -28.6781456702       13.6601300014       -1.9593275905  MEMB      47              0.0000000000
      5431        47  SAPC      H16Y          -29.1152364010       15.2737077526       -1.2358577716  MEMB      47              0.0000000000
      5432        47  SAPC      C317          -30.6224352263       13.5625199720       -0.7990558555  MEMB      47              0.0000000000
      5433        47  SAPC      H17X          -30.9062277126       14.6025718521       -0.5298718665  MEMB      47              0.0000000000
      5434        47  SAPC      H17Y          -30.5687240513       12.7747258222       -0.0424708900  MEMB      47              0.0000000000
      5435        47  SAPC      C318          -31.9285432796       13.3745515031       -1.6356319579  MEMB      47              0.0000000000
      5436        47  SAPC      H18X          -32.7196058155       12.7938689145       -1.1652424187  MEMB      47              0.0000000000
      5437        47  SAPC      H18Y          -31.6996672387       12.9186570889       -2.6175132908  MEMB      47              0.0000000000
      5438        47  SAPC      H18Z          -32.3820686807       14.3816857622       -1.8585536939  MEMB      47              0.0000000000
      5439        48  CHL1      C3            -22.6836952970       18.8646233629       17.3404171257  MEMB      48              0.0000000000
      5440        48  CHL1      H3            -23.6974955969       19.3221537952       17.2501498548  MEMB      48              0.0000000000
      5441        48  CHL1      O3            -22.4432892971       18.6720880998       18.7189824456  MEMB      48              0.0000000000
      5442        48  CHL1      H3'           -23.1511924198       19.2090518717       19.1210617943  MEMB      48              0.0000000000
      5443        48  CHL1      C4            -22.6551525894       17.5009533767       16.6558489139  MEMB      48              0.0000000000
      5444        48  CHL1      H4A           -21.6259952231       17.0996018946       16.7916581642  MEMB      48              0.0000000000
      5445        48  CHL1      H4B           -23.3548432044       16.8331422702       17.2103611062  MEMB      48              0.0000000000
      5446        48  CHL1      C5            -22.9938002785       17.6186158914       15.1883890652  MEMB      48              0.0000000000
      5447        48  CHL1      C6            -24.0468027258       16.9820607149       14.6334746807  MEMB      48              0.0000000000
      5448        48  CHL1      H6            -24.6743628623       16.2994145017       15.2280205014  MEMB      48              0.0000000000
      5449        48  CHL1      C7            -24.3578715216       17.0330085367       13.1649947515  MEMB      48              0.0000000000
      5450        48  CHL1      H7A           -24.4286761624       16.0047167329       12.7842833111  MEMB      48              0.0000000000
      5451        48  CHL1      H7B           -25.3354977880       17.5221794363       12.9586730429  MEMB      48              0.0000000000
      5452        48  CHL1      C8            -23.2190918033       17.6777192248       12.3325448532  MEMB      48              0.0000000000
      5453        48  CHL1      H8            -22.4408317140       16.8862348235       12.2033357639  MEMB      48              0.0000000000
      5454        48  CHL1      C14           -23.7481728209       18.2054191984       11.0033715730  MEMB      48              0.0000000000
      5455        48  CHL1      H14           -24.4973600164       18.9892082252       11.2437630551  MEMB      48              0.0000000000
      5456        48  CHL1      C15           -24.5260532312       17.2560401121       10.1436656109  MEMB      48              0.0000000000
      5457        48  CHL1      H15A          -23.7878382042       16.4841614299       10.3407457284  MEMB      48              0.0000000000
      5458        48  CHL1      H15B          -25.5196533615       16.9259092261       10.4956319082  MEMB      48              0.0000000000
      5459        48  CHL1      C16           -24.4670063327       17.7969978779        8.7126936998  MEMB      48              0.0000000000
      5460        48  CHL1      H16A          -24.1565529666       17.1115720867        7.9114356230  MEMB      48              0.0000000000
      5461        48  CHL1      H16B          -25.4704225929       18.1489206833        8.4267761163  MEMB      48              0.0000000000
      5462        48  CHL1      C17           -23.4498829935       18.9544202246        8.7433692483  MEMB      48              0.0000000000
      5463        48  CHL1      H17           -24.1180079056       19.8291597124        8.8784496175  MEMB      48              0.0000000000
      5464        48  CHL1      C13           -22.6777661617       18.7661995524       10.0641748190  MEMB      48              0.0000000000
      5465        48  CHL1      C18           -21.5361724457       17.7342493449        9.7774792889  MEMB      48              0.0000000000
      5466        48  CHL1      H18A          -20.8271864393       18.1910228044        9.0621286240  MEMB      48              0.0000000000
      5467        48  CHL1      H18B          -20.9542652010       17.4491394882       10.6728131548  MEMB      48              0.0000000000
      5468        48  CHL1      H18C          -21.9149239861       16.7959784754        9.3257474656  MEMB      48              0.0000000000
      5469        48  CHL1      C12           -22.2084073124       20.0438247262       10.7594715617  MEMB      48              0.0000000000
      5470        48  CHL1      H12A          -21.4152283268       20.5733158609       10.2037010878  MEMB      48              0.0000000000
      5471        48  CHL1      H12B          -23.0831866034       20.7165983752       10.9081737048  MEMB      48              0.0000000000
      5472        48  CHL1      C11           -21.6459960617       19.6882882570       12.1290651204  MEMB      48              0.0000000000
      5473        48  CHL1      H11A          -20.7540971818       19.0762526448       11.8963382105  MEMB      48              0.0000000000
      5474        48  CHL1      H11B          -21.2900290452       20.6076228298       12.6301735541  MEMB      48              0.0000000000
      5475        48  CHL1      C9            -22.6337074355       18.8922116675       13.0290071082  MEMB      48              0.0000000000
      5476        48  CHL1      H9            -23.5330331232       19.5432600916       13.1755341118  MEMB      48              0.0000000000
      5477        48  CHL1      C10           -22.0668917992       18.5954378584       14.4240059645  MEMB      48              0.0000000000
      5478        48  CHL1      C19           -20.6433872369       17.9863486684       14.2511191314  MEMB      48              0.0000000000
      5479        48  CHL1      H19A          -20.6630415685       17.0090534494       13.7291221407  MEMB      48              0.0000000000
      5480        48  CHL1      H19B          -19.9668459703       18.6419132534       13.6677253427  MEMB      48              0.0000000000
      5481        48  CHL1      H19C          -20.1798068686       17.8628892563       15.2471006349  MEMB      48              0.0000000000
      5482        48  CHL1      C1            -21.9661926477       19.9508617972       15.2004036838  MEMB      48              0.0000000000
      5483        48  CHL1      H1A           -21.1796599438       20.5876632434       14.7465908909  MEMB      48              0.0000000000
      5484        48  CHL1      H1B           -22.9392622932       20.4780442320       15.0754532867  MEMB      48              0.0000000000
      5485        48  CHL1      C2            -21.6794670375       19.8388278096       16.7100740610  MEMB      48              0.0000000000
      5486        48  CHL1      H2A           -21.8175886946       20.8302380692       17.1923448156  MEMB      48              0.0000000000
      5487        48  CHL1      H2B           -20.6202554537       19.5367906970       16.8632923832  MEMB      48              0.0000000000
      5488        48  CHL1      C20           -22.6635127306       19.1458736215        7.4273282044  MEMB      48              0.0000000000
      5489        48  CHL1      H20           -21.8979976712       18.3427819481        7.2901678937  MEMB      48              0.0000000000
      5490        48  CHL1      C21           -21.9200516359       20.4977900238        7.4531507457  MEMB      48              0.0000000000
      5491        48  CHL1      H21A          -21.1023861756       20.4834775560        8.1975966381  MEMB      48              0.0000000000
      5492        48  CHL1      H21B          -22.6327851786       21.3154229535        7.6865974193  MEMB      48              0.0000000000
      5493        48  CHL1      H21C          -21.4535663749       20.7214254809        6.4736776903  MEMB      48              0.0000000000
      5494        48  CHL1      C22           -23.5584644770       19.0739763544        6.1674438298  MEMB      48              0.0000000000
      5495        48  CHL1      H22A          -24.2995978330       18.2519408756        6.2410434783  MEMB      48              0.0000000000
      5496        48  CHL1      H22B          -24.1166400388       20.0244699600        6.0373358305  MEMB      48              0.0000000000
      5497        48  CHL1      C23           -22.7223204682       18.8251775506        4.9103755855  MEMB      48              0.0000000000
      5498        48  CHL1      H23A          -22.0769072497       19.7089991645        4.7416161022  MEMB      48              0.0000000000
      5499        48  CHL1      H23B          -22.0698283936       17.9391528664        5.0881539309  MEMB      48              0.0000000000
      5500        48  CHL1      C24           -23.5724277088       18.5898109181        3.6612112281  MEMB      48              0.0000000000
      5501        48  CHL1      H24A          -24.0542898777       17.6262124046        3.7978907013  MEMB      48              0.0000000000
      5502        48  CHL1      H24B          -24.3702928995       19.3580244848        3.5831317845  MEMB      48              0.0000000000
      5503        48  CHL1      C25           -22.7506542891       18.5117151506        2.3654987272  MEMB      48              0.0000000000
      5504        48  CHL1      H25           -21.8280875118       17.9148917697        2.5696190861  MEMB      48              0.0000000000
      5505        48  CHL1      C26           -23.5005339144       17.8673854774        1.1896644797  MEMB      48              0.0000000000
      5506        48  CHL1      H26A          -24.1379023504       17.0065225352        1.4720219174  MEMB      48              0.0000000000
      5507        48  CHL1      H26B          -24.1446202553       18.6379258284        0.7158304049  MEMB      48              0.0000000000
      5508        48  CHL1      H26C          -22.7478987566       17.5446662413        0.4376188559  MEMB      48              0.0000000000
      5509        48  CHL1      C27           -22.4243800635       19.9319857473        1.9112906446  MEMB      48              0.0000000000
      5510        48  CHL1      H27A          -23.4010462262       20.4369154845        1.7577974885  MEMB      48              0.0000000000
      5511        48  CHL1      H27B          -21.8478864201       20.5027100130        2.6652312272  MEMB      48              0.0000000000
      5512        48  CHL1      H27C          -21.8839081959       19.9345301682        0.9421025848  MEMB      48              0.0000000000
      5513        49  SAPE      N              20.2924257684      -21.1885637680       21.1406721629  MEMB      49              0.0000000000
      5514        49  SAPE      HN1            20.5283762308      -21.4500487609       22.1129529374  MEMB      49              0.0000000000
      5515        49  SAPE      HN2            20.7002514339      -20.2379000464       20.9590688276  MEMB      49              0.0000000000
      5516        49  SAPE      HN3            19.2598000671      -21.1884071175       21.0208206504  MEMB      49              0.0000000000
      5517        49  SAPE      C12            20.7664333835      -22.2440955969       20.1633467524  MEMB      49              0.0000000000
      5518        49  SAPE      H12A           21.8707474981      -22.2093457283       20.1274403970  MEMB      49              0.0000000000
      5519        49  SAPE      H12B           20.3697173504      -21.9612851426       19.1643083449  MEMB      49              0.0000000000
      5520        49  SAPE      C11            20.2398178906      -23.6426949601       20.5724341663  MEMB      49              0.0000000000
      5521        49  SAPE      H11A           20.7748217459      -23.9748405016       21.4823360167  MEMB      49              0.0000000000
      5522        49  SAPE      H11B           20.4960225242      -24.4215382293       19.8027684906  MEMB      49              0.0000000000
      5523        49  SAPE      P              17.8225998452      -23.7160250922       19.6957298610  MEMB      49              0.0000000000
      5524        49  SAPE      O13            16.4727419847      -23.7829648695       20.2460830064  MEMB      49              0.0000000000
      5525        49  SAPE      O14            18.0924151870      -22.5577918643       18.8364246204  MEMB      49              0.0000000000
      5526        49  SAPE      O12            18.8382105516      -23.5987070427       20.8910071013  MEMB      49              0.0000000000
      5527        49  SAPE      O11            18.3458139671      -24.9972043333       19.0294319477  MEMB      49              0.0000000000
      5528        49  SAPE      C1             17.6742644090      -26.2133192691       19.2104326580  MEMB      49              0.0000000000
      5529        49  SAPE      HA             18.2815470463      -26.9370233062       19.8022492537  MEMB      49              0.0000000000
      5530        49  SAPE      HB             16.6069725378      -26.1965027807       19.5930686161  MEMB      49              0.0000000000
      5531        49  SAPE      C2             17.5081184818      -26.7716042053       17.8470257324  MEMB      49              0.0000000000
      5532        49  SAPE      HS             17.2059832430      -27.7884162915       18.0735434569  MEMB      49              0.0000000000
      5533        49  SAPE      O21            18.6691246262      -26.5057154770       16.9290770512  MEMB      49              0.0000000000
      5534        49  SAPE      C21            19.1253317543      -26.9424477103       15.7578300065  MEMB      49              0.0000000000
      5535        49  SAPE      O22            18.7143408885      -27.6472133191       14.8855984800  MEMB      49              0.0000000000
      5536        49  SAPE      C22            20.4242172077      -26.6871772478       15.3872284222  MEMB      49              0.0000000000
      5537        49  SAPE      H2R            20.8827564569      -25.9283637484       16.0128572650  MEMB      49              0.0000000000
      5538        49  SAPE      H2S            20.8060270579      -27.7150909386       15.6696188489  MEMB      49              0.0000000000
      5539        49  SAPE      C3             16.1652441571      -26.2680598142       17.2589149599  MEMB      49              0.0000000000
      5540        49  SAPE      HX             15.3175539083      -26.8101630818       17.7547441986  MEMB      49              0.0000000000
      5541        49  SAPE      HY             16.0388802964      -26.5555325858       16.2396696025  MEMB      49              0.0000000000
      5542        49  SAPE      O31            16.0893487988      -24.9070781695       17.1965753105  MEMB      49              0.0000000000
      5543        49  SAPE      C31            15.6212070390      -24.4220403611       16.0987515750  MEMB      49              0.0000000000
      5544        49  SAPE      O32            14.8835826833      -24.9307304577       15.2663631946  MEMB      49              0.0000000000
      5545        49  SAPE      C32            16.1902016328      -23.1230096026       16.0766699812  MEMB      49              0.0000000000
      5546        49  SAPE      H2X            17.0764193576      -23.1802628268       15.4330934195  MEMB      49              0.0000000000
      5547        49  SAPE      H2Y            16.4106272733      -22.7993341551       17.1242648789  MEMB      49              0.0000000000
      5548        49  SAPE      C23            20.1610384392      -26.3838318331       13.8392412534  MEMB      49              0.0000000000
      5549        49  SAPE      H3R            19.6120183053      -27.0867197753       13.1484084347  MEMB      49              0.0000000000
      5550        49  SAPE      H3S            21.0569550402      -26.2920071989       13.2248334087  MEMB      49              0.0000000000
      5551        49  SAPE      C24            19.4228290306      -25.1107176816       13.6090214401  MEMB      49              0.0000000000
      5552        49  SAPE      H4R            19.8722762398      -24.7809152579       12.6440248249  MEMB      49              0.0000000000
      5553        49  SAPE      H4S            19.7512865193      -24.4874712359       14.4626696797  MEMB      49              0.0000000000
      5554        49  SAPE      C25            17.9304711568      -25.3713359675       13.5512657316  MEMB      49              0.0000000000
      5555        49  SAPE      H5R            17.4695993850      -25.7187980430       14.4848614617  MEMB      49              0.0000000000
      5556        49  SAPE      C26            17.1998422466      -25.4547566272       12.4452989687  MEMB      49              0.0000000000
      5557        49  SAPE      H6R            16.1346304379      -25.7000747072       12.5002340672  MEMB      49              0.0000000000
      5558        49  SAPE      C27            17.7807703977      -25.2891299502       11.0957767111  MEMB      49              0.0000000000
      5559        49  SAPE      H7R            18.7068063255      -25.8576899373       11.1523024599  MEMB      49              0.0000000000
      5560        49  SAPE      H7S            18.1192605445      -24.2468395611       10.9296154212  MEMB      49              0.0000000000
      5561        49  SAPE      C28            16.7908394669      -25.6494788174       10.0215652549  MEMB      49              0.0000000000
      5562        49  SAPE      H8R            15.8349254617      -25.1328651761       10.1725294836  MEMB      49              0.0000000000
      5563        49  SAPE      C29            16.8060355952      -26.3217212630        8.8662491488  MEMB      49              0.0000000000
      5564        49  SAPE      H9R            15.8700387936      -26.1316986421        8.3649714681  MEMB      49              0.0000000000
      5565        49  SAPE      C210           17.7752340198      -27.0940156083        7.9642992923  MEMB      49              0.0000000000
      5566        49  SAPE      H10R           17.5268653840      -27.9892342655        7.4103238824  MEMB      49              0.0000000000
      5567        49  SAPE      H10S           18.2033250421      -27.9152188234        8.5834201354  MEMB      49              0.0000000000
      5568        49  SAPE      C211           18.5516078577      -26.2316156614        6.9398634585  MEMB      49              0.0000000000
      5569        49  SAPE      H11R           19.0948390921      -25.3695073985        7.2531786307  MEMB      49              0.0000000000
      5570        49  SAPE      C212           18.8620920861      -26.3870143348        5.6666946758  MEMB      49              0.0000000000
      5571        49  SAPE      H12R           19.4977588096      -25.6799800154        5.1280532821  MEMB      49              0.0000000000
      5572        49  SAPE      C213           18.5044796320      -27.4824244376        4.8523823588  MEMB      49              0.0000000000
      5573        49  SAPE      H13R           18.1283448485      -27.0696591445        3.9197118250  MEMB      49              0.0000000000
      5574        49  SAPE      H13S           17.7734130768      -27.9210672520        5.4246262501  MEMB      49              0.0000000000
      5575        49  SAPE      C214           19.3637462525      -28.6206457950        4.7578684671  MEMB      49              0.0000000000
      5576        49  SAPE      H14R           19.7961357393      -29.0328693448        5.6901674522  MEMB      49              0.0000000000
      5577        49  SAPE      C215           19.4940545647      -29.2187082851        3.6054153085  MEMB      49              0.0000000000
      5578        49  SAPE      H15R           20.1401013652      -30.0327508846        3.7126453602  MEMB      49              0.0000000000
      5579        49  SAPE      C216           18.9465511116      -29.0393956425        2.2047010196  MEMB      49              0.0000000000
      5580        49  SAPE      H16R           18.2446817615      -28.1931076026        2.1400851362  MEMB      49              0.0000000000
      5581        49  SAPE      H16S           18.3817873485      -29.9386911156        1.8562890462  MEMB      49              0.0000000000
      5582        49  SAPE      C217           20.0366622526      -28.9248259209        1.1274132902  MEMB      49              0.0000000000
      5583        49  SAPE      H17R           19.5476931955      -28.8421519175        0.1305447508  MEMB      49              0.0000000000
      5584        49  SAPE      H17S           20.6385311168      -29.8672753969        1.1101470726  MEMB      49              0.0000000000
      5585        49  SAPE      C218           20.9250726534      -27.6919269344        1.2387232281  MEMB      49              0.0000000000
      5586        49  SAPE      H18R           21.5723949375      -27.6137231384        0.3359217143  MEMB      49              0.0000000000
      5587        49  SAPE      H18S           21.5759853094      -27.6693479282        2.1199504816  MEMB      49              0.0000000000
      5588        49  SAPE      C219           20.2679283911      -26.3835163841        1.5556581573  MEMB      49              0.0000000000
      5589        49  SAPE      H19R           19.9515231727      -26.3003660135        2.6079310174  MEMB      49              0.0000000000
      5590        49  SAPE      H19S           19.3313657945      -26.2265948971        1.1169256376  MEMB      49              0.0000000000
      5591        49  SAPE      C220           21.1738425692      -25.2976433373        1.0541568256  MEMB      49              0.0000000000
      5592        49  SAPE      H20R           20.7466090896      -24.3271282447        1.3568638238  MEMB      49              0.0000000000
      5593        49  SAPE      H20S           21.2505363296      -25.3752676204       -0.0534930854  MEMB      49              0.0000000000
      5594        49  SAPE      H20T           22.1898489255      -25.4452833785        1.4525423333  MEMB      49              0.0000000000
      5595        49  SAPE      C33            15.2522987396      -22.1780053268       15.4808406886  MEMB      49              0.0000000000
      5596        49  SAPE      H3X            15.8390723230      -21.2997563540       15.7844344742  MEMB      49              0.0000000000
      5597        49  SAPE      H3Y            14.3175773418      -22.0497813586       16.0228658408  MEMB      49              0.0000000000
      5598        49  SAPE      C34            15.0232331495      -22.3443013618       13.9763639987  MEMB      49              0.0000000000
      5599        49  SAPE      H4X            14.1074503056      -21.7977578093       13.6532575916  MEMB      49              0.0000000000
      5600        49  SAPE      H4Y            14.7133215298      -23.3477174371       13.6605168455  MEMB      49              0.0000000000
      5601        49  SAPE      C35            16.2111692913      -21.9680997414       13.1762565650  MEMB      49              0.0000000000
      5602        49  SAPE      H5X            16.9962207987      -22.7072207407       13.3631156649  MEMB      49              0.0000000000
      5603        49  SAPE      H5Y            16.5402861153      -20.9526509805       13.4821191494  MEMB      49              0.0000000000
      5604        49  SAPE      C36            15.7985029851      -21.9989269241       11.7476197086  MEMB      49              0.0000000000
      5605        49  SAPE      H6X            14.8258827849      -21.4874518882       11.9088072121  MEMB      49              0.0000000000
      5606        49  SAPE      H6Y            15.3185278369      -22.8991818192       11.3448745068  MEMB      49              0.0000000000
      5607        49  SAPE      C37            16.9223304108      -21.4334195964       10.8120450293  MEMB      49              0.0000000000
      5608        49  SAPE      H7X            17.8950300948      -21.7279278057       11.2433959711  MEMB      49              0.0000000000
      5609        49  SAPE      H7Y            16.9926560183      -20.3236956717       10.7987532964  MEMB      49              0.0000000000
      5610        49  SAPE      C38            16.8007745650      -21.9644727116        9.3672513990  MEMB      49              0.0000000000
      5611        49  SAPE      H8X            16.1488981287      -21.4637267275        8.6289380605  MEMB      49              0.0000000000
      5612        49  SAPE      H8Y            16.3327982739      -22.9550222333        9.4476486208  MEMB      49              0.0000000000
      5613        49  SAPE      C39            17.9910721848      -21.8237264702        8.4525983801  MEMB      49              0.0000000000
      5614        49  SAPE      H9X            18.8554150946      -22.2734863886        8.9520233280  MEMB      49              0.0000000000
      5615        49  SAPE      H9Y            18.2416157349      -20.7522119158        8.2972008662  MEMB      49              0.0000000000
      5616        49  SAPE      C310           17.5503775741      -22.4659791852        7.1266219081  MEMB      49              0.0000000000
      5617        49  SAPE      H10X           16.6115614184      -21.9951361475        6.7391802155  MEMB      49              0.0000000000
      5618        49  SAPE      H10Y           17.3249003367      -23.5357178327        7.3281584692  MEMB      49              0.0000000000
      5619        49  SAPE      C311           18.5655956908      -22.3885504466        6.0126665266  MEMB      49              0.0000000000
      5620        49  SAPE      H11X           19.4551288949      -22.9646127278        6.3411390688  MEMB      49              0.0000000000
      5621        49  SAPE      H11Y           18.8550087252      -21.3168651374        5.8747402258  MEMB      49              0.0000000000
      5622        49  SAPE      C312           18.0208789206      -23.0145424338        4.7156030901  MEMB      49              0.0000000000
      5623        49  SAPE      H12X           16.9989833147      -22.6078846865        4.4876269946  MEMB      49              0.0000000000
      5624        49  SAPE      H12Y           18.0202107886      -24.1010083393        4.7172493610  MEMB      49              0.0000000000
      5625        49  SAPE      C313           18.9605458931      -22.7126283544        3.5845727720  MEMB      49              0.0000000000
      5626        49  SAPE      H13X           20.0309737671      -22.8946128411        3.7897249661  MEMB      49              0.0000000000
      5627        49  SAPE      H13Y           18.6612179992      -21.6750248542        3.7461005808  MEMB      49              0.0000000000
      5628        49  SAPE      C314           18.5432816993      -22.9469846401        2.1428097357  MEMB      49              0.0000000000
      5629        49  SAPE      H14X           17.5283766585      -22.4891469827        2.2747789493  MEMB      49              0.0000000000
      5630        49  SAPE      H14Y           18.5748103693      -24.0039660516        1.8616718104  MEMB      49              0.0000000000
      5631        49  SAPE      C315           19.2279321313      -22.1437391065        1.0276310098  MEMB      49              0.0000000000
      5632        49  SAPE      H15X           20.3294665674      -22.2377540416        1.0681027080  MEMB      49              0.0000000000
      5633        49  SAPE      H15Y           18.8112894986      -21.1650901338        1.3665615795  MEMB      49              0.0000000000
      5634        49  SAPE      C316           18.9805590460      -22.0518374560       -0.4962317888  MEMB      49              0.0000000000
      5635        49  SAPE      H16X           19.0986112982      -22.9854173970       -0.9613027390  MEMB      49              0.0000000000
      5636        49  SAPE      H16Y           19.5239290956      -21.2838249894       -1.0847206160  MEMB      49              0.0000000000
      5637        49  SAPE      C317           17.7045297657      -21.7655247280       -0.8470917303  MEMB      49              0.0000000000
      5638        49  SAPE      H17X           17.5129311455      -21.1150041911        0.0608473547  MEMB      49              0.0000000000
      5639        49  SAPE      H17Y           17.0654207811      -21.6192631939        0.2627208180  MEMB      49              0.0000000000
      5640        49  SAPE      C318           16.6391074111      -22.8191245692       -2.2408370595  MEMB      49              0.0000000000
      5641        49  SAPE      H18X           16.8961995524      -23.0932011427       -3.1446908119  MEMB      49              0.0000000000
      5642        49  SAPE      H18Y           15.5290625246      -22.4932240890       -2.5544949520  MEMB      49              0.0000000000
      5643        49  SAPE      H18Z           15.4981806839      -22.9008689793       -2.0138773280  MEMB      49              0.0000000000
      5644        50  OSM       N              23.2296439708       16.4092171233       21.9977971978  MEMB      50              0.0000000000
      5645        50  OSM       C15            21.7522236069       16.3626027905       21.8799815328  MEMB      50              0.0000000000
      5646        50  OSM       H15A           21.3534571930       15.3842522837       22.0606477539  MEMB      50              0.0000000000
      5647        50  OSM       H15B           21.4461651927       16.6756941046       20.8779186115  MEMB      50              0.0000000000
      5648        50  OSM       H15C           21.3176169763       17.0874758268       22.5563666896  MEMB      50              0.0000000000
      5649        50  OSM       C14            23.6591499330       17.8072679443       21.5951834745  MEMB      50              0.0000000000
      5650        50  OSM       H14A           23.2895780687       18.0912791061       20.6111189010  MEMB      50              0.0000000000
      5651        50  OSM       H14B           24.7530530273       17.8460463882       21.5062828325  MEMB      50              0.0000000000
      5652        50  OSM       H14C           23.3476713316       18.5918734533       22.2680822623  MEMB      50              0.0000000000
      5653        50  OSM       C13            23.7015185239       16.1619849100       23.3795168309  MEMB      50              0.0000000000
      5654        50  OSM       H13A           23.4984527273       15.1494737195       23.7062089144  MEMB      50              0.0000000000
      5655        50  OSM       H13B           23.3107053165       16.9080745259       24.0518972655  MEMB      50              0.0000000000
      5656        50  OSM       H13C           24.7899088228       16.2727974974       23.3685626867  MEMB      50              0.0000000000
      5657        50  OSM       C12            23.9009850201       15.4053850015       21.0671340648  MEMB      50              0.0000000000
      5658        50  OSM       H12A           23.7177700852       15.7311244798       20.0476438664  MEMB      50              0.0000000000
      5659        50  OSM       H12B           23.4483447219       14.4370146513       21.1914955837  MEMB      50              0.0000000000
      5660        50  OSM       C11            25.4308295427       15.2059822340       21.2344069203  MEMB      50              0.0000000000
      5661        50  OSM       H11A           25.8392426294       14.5042585552       20.4674702073  MEMB      50              0.0000000000
      5662        50  OSM       H11B           25.6505161919       14.7167621060       22.2113986635  MEMB      50              0.0000000000
      5663        50  OSM       P              26.7220863969       17.0894067779       19.9122381708  MEMB      50              0.0000000000
      5664        50  OSM       O13            27.0081670311       18.5005931825       20.2423048972  MEMB      50              0.0000000000
      5665        50  OSM       O14            27.8359297183       16.2079394638       19.4995176486  MEMB      50              0.0000000000
      5666        50  OSM       O11            25.5480833997       17.0378042523       18.8071476612  MEMB      50              0.0000000000
      5667        50  OSM       O12            26.0875329724       16.4577435378       21.2088288559  MEMB      50              0.0000000000
      5668        50  OSM       C1S            25.9772809965       17.4921592845       17.4909706538  MEMB      50              0.0000000000
      5669        50  OSM       H1S            27.0803780334       17.5101706815       17.4123082153  MEMB      50              0.0000000000
      5670        50  OSM       H1T            25.6975982546       18.5482542882       17.2994468768  MEMB      50              0.0000000000
      5671        50  OSM       NF             26.0278925096       16.5997578028       15.0455432170  MEMB      50              0.0000000000
      5672        50  OSM       HNF            25.5824020897       16.9286580553       14.2313703756  MEMB      50              0.0000000000
      5673        50  OSM       C2S            25.3354693638       16.6584404813       16.3206551645  MEMB      50              0.0000000000
      5674        50  OSM       H2S            25.1798461429       15.6243150381       16.7216190502  MEMB      50              0.0000000000
      5675        50  OSM       C3S            23.9932591926       17.2463230693       15.9335255488  MEMB      50              0.0000000000
      5676        50  OSM       H3S            24.2208516112       18.2435607575       15.5378700746  MEMB      50              0.0000000000
      5677        50  OSM       O3             23.1132506138       17.4251181733       17.0197738268  MEMB      50              0.0000000000
      5678        50  OSM       HO3            23.6790632093       17.5494365536       17.7888747447  MEMB      50              0.0000000000
      5679        50  OSM       C4S            23.4285778968       16.3765327440       14.8366772795  MEMB      50              0.0000000000
      5680        50  OSM       H4S            23.2299402095       15.3477053617       15.1433113977  MEMB      50              0.0000000000
      5681        50  OSM       C5S            23.3735067878       16.6814312708       13.5248705865  MEMB      50              0.0000000000
      5682        50  OSM       H5S            23.7436002675       17.6576269900       13.1595269124  MEMB      50              0.0000000000
      5683        50  OSM       C6S            22.8076289559       15.7327756681       12.5020501855  MEMB      50              0.0000000000
      5684        50  OSM       H6S            22.3397265459       14.8461032952       12.9938268356  MEMB      50              0.0000000000
      5685        50  OSM       H6T            23.5747454970       15.3381443833       11.7990198671  MEMB      50              0.0000000000
      5686        50  OSM       C7S            21.7416307077       16.4739097745       11.6905664019  MEMB      50              0.0000000000
      5687        50  OSM       H7S            21.0508037277       16.9664756385       12.4171927989  MEMB      50              0.0000000000
      5688        50  OSM       H7T            21.1548901391       15.7082220095       11.1379486335  MEMB      50              0.0000000000
      5689        50  OSM       C8S            22.3013352895       17.5245763796       10.7005321695  MEMB      50              0.0000000000
      5690        50  OSM       H8S            23.0487666858       18.1665832839       11.2173030199  MEMB      50              0.0000000000
      5691        50  OSM       H8T            21.4673955594       18.2231640277       10.4548042574  MEMB      50              0.0000000000
      5692        50  OSM       C9S            22.8506900147       16.8559548380        9.4045348671  MEMB      50              0.0000000000
      5693        50  OSM       H9S            22.0067829794       16.3233139679        8.9189791935  MEMB      50              0.0000000000
      5694        50  OSM       H9T            23.7186990402       16.2049306594        9.6156150627  MEMB      50              0.0000000000
      5695        50  OSM       C10S           23.3366093158       17.7993882786        8.3277919914  MEMB      50              0.0000000000
      5696        50  OSM       H10S           23.9128875461       18.4906512128        8.9123622147  MEMB      50              0.0000000000
      5697        50  OSM       H10T           22.4020116755       18.2451633511        7.9536098968  MEMB      50              0.0000000000
      5698        50  OSM       C11S           24.2326209950       17.3742000055        7.1484204213  MEMB      50              0.0000000000
      5699        50  OSM       H11S           23.5336806809       17.0909255972        6.3318857125  MEMB      50              0.0000000000
      5700        50  OSM       H11T           24.9357861148       16.5812628838        7.4231020545  MEMB      50              0.0000000000
      5701        50  OSM       C12S           25.1402681887       18.4510215752        6.5695866977  MEMB      50              0.0000000000
      5702        50  OSM       H12S           26.0503721348       18.7494019388        7.1204898621  MEMB      50              0.0000000000
      5703        50  OSM       H12T           24.5928022432       19.3611878736        6.6324574585  MEMB      50              0.0000000000
      5704        50  OSM       C13S           25.5287391843       18.3163776200        5.1347372624  MEMB      50              0.0000000000
      5705        50  OSM       H13S           24.6866353360       18.1616162734        4.4177134000  MEMB      50              0.0000000000
      5706        50  OSM       H13T           26.2574019607       17.5106766208        5.0937347636  MEMB      50              0.0000000000
      5707        50  OSM       C14S           26.2887743563       19.5660947048        4.8818523293  MEMB      50              0.0000000000
      5708        50  OSM       H14S           26.8911057709       19.8994279634        5.7147215663  MEMB      50              0.0000000000
      5709        50  OSM       H14T           25.5093890582       20.2314616763        4.5730410391  MEMB      50              0.0000000000
      5710        50  OSM       C15S           27.3273154800       19.5411770578        3.8818633936  MEMB      50              0.0000000000
      5711        50  OSM       H15S           27.9846285460       20.4117964201        3.6508224840  MEMB      50              0.0000000000
      5712        50  OSM       H15T           26.6122523032       19.2637287580        3.1317910666  MEMB      50              0.0000000000
      5713        50  OSM       C16S           27.6979159292       18.4397398911        3.1294819572  MEMB      50              0.0000000000
      5714        50  OSM       H16S           27.0749957976       17.5004187206        3.1493275369  MEMB      50              0.0000000000
      5715        50  OSM       H16T           28.4112014620       18.5822396731        3.9988641173  MEMB      50              0.0000000000
      5716        50  OSM       C17S           28.5722973821       18.5963748663        1.9463562858  MEMB      50              0.0000000000
      5717        50  OSM       H17S           29.3386349734       19.4119999926        2.0254042628  MEMB      50              0.0000000000
      5718        50  OSM       H17T           28.0303014675       18.7344737031        1.0913709142  MEMB      50              0.0000000000
      5719        50  OSM       C18S           29.0257479374       17.4405724460        1.1617694404  MEMB      50              0.0000000000
      5720        50  OSM       H18S           29.2792943092       16.3774358913        1.3440068417  MEMB      50              0.0000000000
      5721        50  OSM       H18T           29.9021856990       17.6614045536        1.6592793838  MEMB      50              0.0000000000
      5722        50  OSM       H18U           29.4968301082       17.8807025997        0.3338879594  MEMB      50              0.0000000000
      5723        50  OSM       C1F            27.2586661746       16.4402825779       14.8664086118  MEMB      50              0.0000000000
      5724        50  OSM       OF             27.9536240259       16.4788972783       15.8190117701  MEMB      50              0.0000000000
      5725        50  OSM       C2F            27.7632732415       16.5043554220       13.4836375322  MEMB      50              0.0000000000
      5726        50  OSM       H2F            28.7456605080       17.0367733090       13.5445643246  MEMB      50              0.0000000000
      5727        50  OSM       H2G            27.0163217869       16.8352169316       12.7487939717  MEMB      50              0.0000000000
      5728        50  OSM       C3F            28.0392382988       15.2112172087       12.8151146294  MEMB      50              0.0000000000
      5729        50  OSM       H3F            29.1162869737       15.1193997515       12.9754699865  MEMB      50              0.0000000000
      5730        50  OSM       H3G            28.4665285826       15.3800954858       11.8154966945  MEMB      50              0.0000000000
      5731        50  OSM       C4F            27.0316415814       14.0665536798       13.2901003421  MEMB      50              0.0000000000
      5732        50  OSM       H4F            26.9101477640       13.9103437285       14.3745327490  MEMB      50              0.0000000000
      5733        50  OSM       H4G            27.1307575388       12.9674493767       13.1312960534  MEMB      50              0.0000000000
      5734        50  OSM       C5F            25.9232793041       13.9923572594       12.3919144905  MEMB      50              0.0000000000
      5735        50  OSM       H5F            26.3501925097       14.2701158378       11.4016377181  MEMB      50              0.0000000000
      5736        50  OSM       H5G            25.4489665927       14.7913938565       12.9831035825  MEMB      50              0.0000000000
      5737        50  OSM       C6F            25.2411289666       12.6161410335       12.4312759039  MEMB      50              0.0000000000
      5738        50  OSM       H6F            24.2767604958       12.9493911448       12.0223753336  MEMB      50              0.0000000000
      5739        50  OSM       H6G            25.1126669931       12.3080929228       13.5001068529  MEMB      50              0.0000000000
      5740        50  OSM       C7F            25.8774426916       11.3875520394       11.6831704815  MEMB      50              0.0000000000
      5741        50  OSM       H7F            25.2334030523       10.5238971571       11.8803238227  MEMB      50              0.0000000000
      5742        50  OSM       H7G            26.8548847593       11.0289953555       12.0705096683  MEMB      50              0.0000000000
      5743        50  OSM       C8F            25.9806491897       11.4562831397       10.1633145701  MEMB      50              0.0000000000
      5744        50  OSM       H8F            25.9177066860       10.4049628791        9.7788740311  MEMB      50              0.0000000000
      5745        50  OSM       H8G            26.9633794594       11.8730917173        9.8712696899  MEMB      50              0.0000000000
      5746        50  OSM       C9F            24.8443986961       12.2952210442        9.6880635055  MEMB      50              0.0000000000
      5747        50  OSM       H9F            23.8898067194       11.7539436650        9.6547918593  MEMB      50              0.0000000000
      5748        50  OSM       C10F           24.8948681776       13.4580371489        9.0218249643  MEMB      50              0.0000000000
      5749        50  OSM       H10F           23.9683467268       13.8415995916        8.5919698252  MEMB      50              0.0000000000
      5750        50  OSM       C11F           26.0764612901       14.2163162982        8.5651737948  MEMB      50              0.0000000000
      5751        50  OSM       H11F           26.9606781256       13.8725318330        9.1472631454  MEMB      50              0.0000000000
      5752        50  OSM       H11G           25.9355644197       15.2941318144        8.7268838112  MEMB      50              0.0000000000
      5753        50  OSM       C12F           26.4708355192       13.9383447205        7.1119903086  MEMB      50              0.0000000000
      5754        50  OSM       H12F           26.7167931035       12.8606000251        7.0522182378  MEMB      50              0.0000000000
      5755        50  OSM       H12G           27.4134546801       14.5257427257        7.0600026904  MEMB      50              0.0000000000
      5756        50  OSM       C13F           25.7298285088       14.4077167667        5.8202185007  MEMB      50              0.0000000000
      5757        50  OSM       H13F           25.9634643701       15.4575657104        5.6372144339  MEMB      50              0.0000000000
      5758        50  OSM       H13G           24.7054550144       14.6018960602        5.9285995281  MEMB      50              0.0000000000
      5759        50  OSM       C14F           25.8293760935       13.5165834228        4.5339515885  MEMB      50              0.0000000000
      5760        50  OSM       H14F           25.7595409304       12.4295397758        4.8053137128  MEMB      50              0.0000000000
      5761        50  OSM       H14G           26.7609227920       13.6837604525        3.9794814258  MEMB      50              0.0000000000
      5762        50  OSM       C15F           25.0370994096       13.9058527473        3.3219799382  MEMB      50              0.0000000000
      5763        50  OSM       H15F           24.3284377095       13.1495430667        3.5305993814  MEMB      50              0.0000000000
      5764        50  OSM       H15G           25.3672336779       13.5366604428        2.3379591544  MEMB      50              0.0000000000
      5765        50  OSM       C16F           24.6504240644       15.3815161026        3.2840077734  MEMB      50              0.0000000000
      5766        50  OSM       H16F           25.5827080143       15.9435124206        3.0727257002  MEMB      50              0.0000000000
      5767        50  OSM       H16G           24.2808745546       15.7200836205        4.2811405883  MEMB      50              0.0000000000
      5768        50  OSM       C17F           23.5258127455       15.7558455158        2.3049161476  MEMB      50              0.0000000000
      5769        50  OSM       H17F           23.2596039784       16.8112264976        2.5165003276  MEMB      50              0.0000000000
      5770        50  OSM       H17G           22.6251774728       15.1599938008        2.5251577524  MEMB      50              0.0000000000
      5771        50  OSM       C18F           23.7794674101       15.6240587857        0.8133569357  MEMB      50              0.0000000000
      5772        50  OSM       H18F           23.0096450885       16.1875593676        0.2443586302  MEMB      50              0.0000000000
      5773        50  OSM       H18G           23.7645546121       14.5629433651        0.4721558276  MEMB      50              0.0000000000
      5774        50  OSM       H18H           24.7555088418       16.0812390433        0.5733543278  MEMB      50              0.0000000000
      5775        51  SLPC      N              28.9847419963       -4.4269625854       18.2261588607  MEMB      51              0.0000000000
      5776        51  SLPC      C13            29.3782520329       -5.2857054542       19.3895491030  MEMB      51              0.0000000000
      5777        51  SLPC      H13A           30.4181952332       -5.1660569007       19.6573382939  MEMB      51              0.0000000000
      5778        51  SLPC      H13B           28.7640512169       -5.0197347913       20.2465723745  MEMB      51              0.0000000000
      5779        51  SLPC      H13C           29.1626152749       -6.3239744915       19.1617958510  MEMB      51              0.0000000000
      5780        51  SLPC      C14            29.0191745101       -3.0066657678       18.6835478250  MEMB      51              0.0000000000
      5781        51  SLPC      H14A           28.6061281262       -2.3430714389       17.9344620905  MEMB      51              0.0000000000
      5782        51  SLPC      H14B           28.4595497023       -2.9017124211       19.6040926803  MEMB      51              0.0000000000
      5783        51  SLPC      H14C           30.0567340502       -2.7193173951       18.8406920599  MEMB      51              0.0000000000
      5784        51  SLPC      C15            27.5822066689       -4.7932648940       17.8876594728  MEMB      51              0.0000000000
      5785        51  SLPC      H15A           27.5515361874       -5.7509052944       17.3744985379  MEMB      51              0.0000000000
      5786        51  SLPC      H15B           26.9824054092       -4.9077701019       18.7863880201  MEMB      51              0.0000000000
      5787        51  SLPC      H15C           27.1329972056       -4.0340852943       17.2615765159  MEMB      51              0.0000000000
      5788        51  SLPC      C12            29.8395489137       -4.6407761915       16.9841083441  MEMB      51              0.0000000000
      5789        51  SLPC      H12A           29.4063510788       -4.0687771968       16.1654335380  MEMB      51              0.0000000000
      5790        51  SLPC      H12B           29.7517850702       -5.6822741803       16.6980403667  MEMB      51              0.0000000000
      5791        51  SLPC      C11            31.3500077975       -4.2695144363       16.9723215898  MEMB      51              0.0000000000
      5792        51  SLPC      H11A           31.8081306238       -4.7179148218       16.0556586624  MEMB      51              0.0000000000
      5793        51  SLPC      H11B           31.8648614222       -4.7470532375       17.8314123924  MEMB      51              0.0000000000
      5794        51  SLPC      P              31.3089212384       -1.9275322589       15.7474157806  MEMB      51              0.0000000000
      5795        51  SLPC      O13            30.2221248771       -1.0034692162       16.1369992578  MEMB      51              0.0000000000
      5796        51  SLPC      O14            32.5766696582       -1.3476798036       15.2387506110  MEMB      51              0.0000000000
      5797        51  SLPC      O12            31.5719354803       -2.8600533864       17.0079300690  MEMB      51              0.0000000000
      5798        51  SLPC      O11            30.7446148156       -2.9769125362       14.7117330013  MEMB      51              0.0000000000
      5799        51  SLPC      C1             29.6751249872       -2.7007983021       13.8281006832  MEMB      51              0.0000000000
      5800        51  SLPC      HA             28.8961430119       -2.0395133094       14.2804585374  MEMB      51              0.0000000000
      5801        51  SLPC      HB             30.0532072480       -2.2065080477       12.9044800681  MEMB      51              0.0000000000
      5802        51  SLPC      C2             29.0049600955       -4.0193709987       13.4183859854  MEMB      51              0.0000000000
      5803        51  SLPC      HS             28.6516637046       -4.5859763383       14.3135675965  MEMB      51              0.0000000000
      5804        51  SLPC      O21            29.8709716129       -4.8030908515       12.5774833133  MEMB      51              0.0000000000
      5805        51  SLPC      C21            30.5087383089       -5.7880160587       13.1530002771  MEMB      51              0.0000000000
      5806        51  SLPC      O22            30.3206941782       -6.1919922877       14.2949942097  MEMB      51              0.0000000000
      5807        51  SLPC      C22            31.4940592920       -6.4175118538       12.1265349086  MEMB      51              0.0000000000
      5808        51  SLPC      H2R            32.5227236407       -6.2113650077       12.4424965808  MEMB      51              0.0000000000
      5809        51  SLPC      H2S            31.3880733910       -7.5011225598       12.1589537273  MEMB      51              0.0000000000
      5810        51  SLPC      C3             27.7648619807       -3.7125548544       12.6015024213  MEMB      51              0.0000000000
      5811        51  SLPC      HX             27.0066594455       -3.1231866523       13.1728934293  MEMB      51              0.0000000000
      5812        51  SLPC      HY             27.4127281263       -4.7538840074       12.4241753303  MEMB      51              0.0000000000
      5813        51  SLPC      O31            28.1217683380       -3.0793611046       11.3683608366  MEMB      51              0.0000000000
      5814        51  SLPC      C31            27.2332664619       -2.3292843763       10.7493922011  MEMB      51              0.0000000000
      5815        51  SLPC      O32            26.0628716443       -2.1803464865       11.0007644233  MEMB      51              0.0000000000
      5816        51  SLPC      C32            27.8974912111       -1.5466450545        9.6839069110  MEMB      51              0.0000000000
      5817        51  SLPC      H2X            28.9846864941       -1.5545134711        9.8927964309  MEMB      51              0.0000000000
      5818        51  SLPC      H2Y            27.5013960303       -0.5122111953        9.7618842752  MEMB      51              0.0000000000
      5819        51  SLPC      C23            31.3196558730       -6.1956066774       10.5949450800  MEMB      51              0.0000000000
      5820        51  SLPC      H3R            30.2880652077       -6.4603183629       10.2762476133  MEMB      51              0.0000000000
      5821        51  SLPC      H3S            31.9895679017       -6.9434844734       10.1059956603  MEMB      51              0.0000000000
      5822        51  SLPC      C24            31.8119358281       -4.8348604628       10.0834895034  MEMB      51              0.0000000000
      5823        51  SLPC      H4R            32.5243241711       -4.4085075870       10.8242248055  MEMB      51              0.0000000000
      5824        51  SLPC      H4S            30.9215295591       -4.1673950515       10.0865456961  MEMB      51              0.0000000000
      5825        51  SLPC      C25            32.5151732164       -4.9259273614        8.6985171958  MEMB      51              0.0000000000
      5826        51  SLPC      H5R            31.7561062657       -5.2403888475        7.9484824956  MEMB      51              0.0000000000
      5827        51  SLPC      H5S            33.2988981220       -5.7168419742        8.6922402820  MEMB      51              0.0000000000
      5828        51  SLPC      C26            33.1575735454       -3.6173077224        8.1805220572  MEMB      51              0.0000000000
      5829        51  SLPC      H6R            34.0101363152       -3.3016667204        8.8209121691  MEMB      51              0.0000000000
      5830        51  SLPC      H6S            32.3828757577       -2.8229863018        8.2630353988  MEMB      51              0.0000000000
      5831        51  SLPC      C27            33.6349531170       -3.7135908950        6.7088868671  MEMB      51              0.0000000000
      5832        51  SLPC      H7R            32.8327945226       -4.1995191222        6.1105962925  MEMB      51              0.0000000000
      5833        51  SLPC      H7S            34.5254760174       -4.3711388280        6.6508603378  MEMB      51              0.0000000000
      5834        51  SLPC      C28            33.9050900748       -2.3221507995        6.0864666756  MEMB      51              0.0000000000
      5835        51  SLPC      H8R            34.6817080330       -1.8002149216        6.6862229084  MEMB      51              0.0000000000
      5836        51  SLPC      H8S            32.9596649809       -1.7633613714        6.2784642781  MEMB      51              0.0000000000
      5837        51  SLPC      C29            34.3186919084       -2.2246315471        4.6285394705  MEMB      51              0.0000000000
      5838        51  SLPC      H9R            35.1670026224       -2.8283602805        4.2874060563  MEMB      51              0.0000000000
      5839        51  SLPC      C210           33.7118657722       -1.4924080595        3.6930806405  MEMB      51              0.0000000000
      5840        51  SLPC      H10R           34.2380337007       -1.3112147661        2.7359585439  MEMB      51              0.0000000000
      5841        51  SLPC      C211           32.5088348871       -0.6507190750        3.9578180475  MEMB      51              0.0000000000
      5842        51  SLPC      H11R           32.6178514845       -0.0616063883        4.8967157199  MEMB      51              0.0000000000
      5843        51  SLPC      H11S           31.5891134382       -1.2578086332        4.0518544351  MEMB      51              0.0000000000
      5844        51  SLPC      C212           32.3970771584        0.2767135667        2.8153847718  MEMB      51              0.0000000000
      5845        51  SLPC      H12R           33.0253911163        1.1576508529        3.0159853401  MEMB      51              0.0000000000
      5846        51  SLPC      C213           31.6619105311        0.1847306703        1.6869448655  MEMB      51              0.0000000000
      5847        51  SLPC      H13R           31.5004491673        1.0773932111        1.0700185100  MEMB      51              0.0000000000
      5848        51  SLPC      C214           30.7440293035       -0.8899886172        1.2624160263  MEMB      51              0.0000000000
      5849        51  SLPC      H14R           30.9141501058       -1.7874639756        1.8872226922  MEMB      51              0.0000000000
      5850        51  SLPC      H14S           30.9741961269       -1.0561385425        0.1945848259  MEMB      51              0.0000000000
      5851        51  SLPC      C215           29.2509880396       -0.6010227478        1.4078412600  MEMB      51              0.0000000000
      5852        51  SLPC      H15R           28.9540233139        0.2810747022        0.7929223625  MEMB      51              0.0000000000
      5853        51  SLPC      H15S           29.1042665967       -0.4435045189        2.4577046337  MEMB      51              0.0000000000
      5854        51  SLPC      C216           28.3657459549       -1.8189817050        1.1797849726  MEMB      51              0.0000000000
      5855        51  SLPC      H16R           28.7759325785       -2.8241478865        1.4103071582  MEMB      51              0.0000000000
      5856        51  SLPC      H16S           28.7936656621       -1.8223197549        0.1686299390  MEMB      51              0.0000000000
      5857        51  SLPC      C217           26.7263454245       -1.6750106491        1.3500008544  MEMB      51              0.0000000000
      5858        51  SLPC      H17R           26.5311727476       -1.6273552050        2.4228675746  MEMB      51              0.0000000000
      5859        51  SLPC      H17S           26.3283717882       -2.6784733284        1.0824253584  MEMB      51              0.0000000000
      5860        51  SLPC      C218           25.7699214828       -0.5868527543        0.5157566065  MEMB      51              0.0000000000
      5861        51  SLPC      H18R           24.7434491211       -0.3874083965        0.7815723508  MEMB      51              0.0000000000
      5862        51  SLPC      H18S           25.6828076974       -0.3295102064       -0.5493886032  MEMB      51              0.0000000000
      5863        51  SLPC      H18T           26.4990765747        0.2640053674        0.3133436760  MEMB      51              0.0000000000
      5864        51  SLPC      C33            27.5365349714       -2.1501401574        8.3332434890  MEMB      51              0.0000000000
      5865        51  SLPC      H3X            26.4660216576       -1.9451729440        8.0799008393  MEMB      51              0.0000000000
      5866        51  SLPC      H3Y            27.6835718651       -3.2557967635        8.3342722619  MEMB      51              0.0000000000
      5867        51  SLPC      C34            28.3983702386       -1.5166512845        7.2660520434  MEMB      51              0.0000000000
      5868        51  SLPC      H4X            29.4317634898       -1.9182353032        7.2967286522  MEMB      51              0.0000000000
      5869        51  SLPC      H4Y            28.4563208939       -0.4240989524        7.5039976871  MEMB      51              0.0000000000
      5870        51  SLPC      C35            27.7747062616       -1.7636618858        5.8998982209  MEMB      51              0.0000000000
      5871        51  SLPC      H5X            28.2907762153       -1.0799831767        5.1882376910  MEMB      51              0.0000000000
      5872        51  SLPC      H5Y            26.6859752176       -1.5205069635        5.9816923958  MEMB      51              0.0000000000
      5873        51  SLPC      C36            27.8854613102       -3.1719908972        5.3442050589  MEMB      51              0.0000000000
      5874        51  SLPC      H6X            27.0895209843       -3.3592429970        4.5852748161  MEMB      51              0.0000000000
      5875        51  SLPC      H6Y            27.7452198057       -3.8870037224        6.1787772750  MEMB      51              0.0000000000
      5876        51  SLPC      C37            29.2343257582       -3.3148197745        4.6448125510  MEMB      51              0.0000000000
      5877        51  SLPC      H7X            30.0015735714       -2.9033935941        5.3346384795  MEMB      51              0.0000000000
      5878        51  SLPC      H7Y            29.2414393886       -2.6815409038        3.7260220356  MEMB      51              0.0000000000
      5879        51  SLPC      C38            29.6553280374       -4.7522525886        4.3398337523  MEMB      51              0.0000000000
      5880        51  SLPC      H8X            29.6712805237       -5.3425860288        5.2806631009  MEMB      51              0.0000000000
      5881        51  SLPC      H8Y            30.7014430720       -4.6986762442        3.9546987040  MEMB      51              0.0000000000
      5882        51  SLPC      C39            28.7886294188       -5.4219581596        3.2699981330  MEMB      51              0.0000000000
      5883        51  SLPC      H9X            28.8221072791       -4.7060257225        2.4202895880  MEMB      51              0.0000000000
      5884        51  SLPC      H9Y            27.7283876122       -5.4793171974        3.5913657368  MEMB      51              0.0000000000
      5885        51  SLPC      C310           29.3402592591       -6.8102461695        2.8532461640  MEMB      51              0.0000000000
      5886        51  SLPC      H10X           29.2342343445       -7.5537768492        3.6019758154  MEMB      51              0.0000000000
      5887        51  SLPC      H10Y           30.4336402844       -6.7723799199        2.8392654209  MEMB      51              0.0000000000
      5888        51  SLPC      C311           28.7377583993       -7.5124243947        1.6482529060  MEMB      51              0.0000000000
      5889        51  SLPC      H11X           27.6674780604       -7.3415742965        1.4733054190  MEMB      51              0.0000000000
      5890        51  SLPC      H11Y           29.1405489501       -8.4660879907        1.2415659605  MEMB      51              0.0000000000
      5891        51  SLPC      C312           29.2070480093       -6.7780714372        0.5993060571  MEMB      51              0.0000000000
      5892        51  SLPC      H12X           28.6108724010       -5.8455943206        0.8454610502  MEMB      51              0.0000000000
      5893        51  SLPC      H12Y           28.7900640042       -7.1891669813       -0.3668724716  MEMB      51              0.0000000000
      5894        51  SLPC      C313           30.7429709937       -6.5734229409        0.6307294531  MEMB      51              0.0000000000
      5895        51  SLPC      H13X           31.2193516951       -7.6150278696        0.4075289902  MEMB      51              0.0000000000
      5896        51  SLPC      H13Y           31.2230043183       -6.0067123528        1.4217009931  MEMB      51              0.0000000000
      5897        51  SLPC      C314           31.4097583251       -5.2839042990       -0.0139638215  MEMB      51              0.0000000000
      5898        51  SLPC      H14X           30.9496244408       -6.1789115589       -0.5787585187  MEMB      51              0.0000000000
      5899        51  SLPC      H14Y           32.2028844224       -5.8495090049       -0.6222848028  MEMB      51              0.0000000000
      5900        51  SLPC      C315           30.8041005115       -3.4152635908       -0.6691965239  MEMB      51              0.0000000000
      5901        51  SLPC      H15X           31.6151345450       -2.8582947897       -0.2414152821  MEMB      51              0.0000000000
      5902        51  SLPC      H15Y           29.9248582984       -2.9057250850       -0.6177620571  MEMB      51              0.0000000000
      5903        51  SLPC      C316           30.2988872339       -2.8907768743       -2.5762660940  MEMB      51              0.0000000000
      5904        51  SLPC      H16X           30.7934677610       -3.4149141537       -3.4076242708  MEMB      51              0.0000000000
      5905        51  SLPC      H16Y           30.5231341722       -1.9407824201       -2.9555036665  MEMB      51              0.0000000000
      5906        51  SLPC      C317           29.3608464495       -3.5902678730       -3.8626200626  MEMB      51              0.0000000000
      5907        51  SLPC      H17X           29.3607261543       -4.6352553319       -4.2896192169  MEMB      51              0.0000000000
      5908        51  SLPC      H17Y           29.4633405594       -3.1951952402       -4.9004133679  MEMB      51              0.0000000000
      5909        51  SLPC      C318           28.0708896194       -3.6427643801       -3.2826786333  MEMB      51              0.0000000000
      5910        51  SLPC      H18X           27.2245334429       -3.5668822712       -3.8962751442  MEMB      51              0.0000000000
      5911        51  SLPC      H18Y           28.3710602533       -2.8533366121       -2.6126353081  MEMB      51              0.0000000000
      5912        51  SLPC      H18Z           27.6214454762       -4.2285597679       -2.5099087710  MEMB      51              0.0000000000
      5913        52  CHL1      C3            -26.0829085104      -15.9990392982       17.2742715396  MEMB      52              0.0000000000
      5914        52  CHL1      H3            -25.0488326166      -16.2026446276       16.9070875603  MEMB      52              0.0000000000
      5915        52  CHL1      O3            -26.0874491027      -16.1764855884       18.6845034209  MEMB      52              0.0000000000
      5916        52  CHL1      H3'           -25.3740832695      -15.6121298283       18.9909939993  MEMB      52              0.0000000000
      5917        52  CHL1      C4            -26.5682888534      -14.6207099628       16.9451699557  MEMB      52              0.0000000000
      5918        52  CHL1      H4A           -27.5906472265      -14.5582225786       17.3644165095  MEMB      52              0.0000000000
      5919        52  CHL1      H4B           -25.9380249826      -13.8734506787       17.4681395529  MEMB      52              0.0000000000
      5920        52  CHL1      C5            -26.5684540539      -14.4623182416       15.4440994763  MEMB      52              0.0000000000
      5921        52  CHL1      C6            -25.8099211800      -13.5077826691       14.9047174482  MEMB      52              0.0000000000
      5922        52  CHL1      H6            -25.3342012912      -12.7871081402       15.5843302294  MEMB      52              0.0000000000
      5923        52  CHL1      C7            -25.9098245972      -13.1517507571       13.4512518174  MEMB      52              0.0000000000
      5924        52  CHL1      H7A           -26.0966616122      -12.0592198244       13.3077535483  MEMB      52              0.0000000000
      5925        52  CHL1      H7B           -24.9541135541      -13.3573057942       12.9532886571  MEMB      52              0.0000000000
      5926        52  CHL1      C8            -27.0497418755      -13.9265245315       12.7248189239  MEMB      52              0.0000000000
      5927        52  CHL1      H8            -28.0127649788      -13.6392587144       13.1579822032  MEMB      52              0.0000000000
      5928        52  CHL1      C14           -26.8827952417      -13.7226585382       11.2187189339  MEMB      52              0.0000000000
      5929        52  CHL1      H14           -25.9160674568      -14.2558859272       11.0607688483  MEMB      52              0.0000000000
      5930        52  CHL1      C15           -26.6104971456      -12.3207253154       10.5932573311  MEMB      52              0.0000000000
      5931        52  CHL1      H15A          -27.0671160546      -11.4476316946       11.0313098278  MEMB      52              0.0000000000
      5932        52  CHL1      H15B          -25.5691848688      -11.9925823558       10.6820878017  MEMB      52              0.0000000000
      5933        52  CHL1      C16           -27.1333919021      -12.4245174551        9.1661217436  MEMB      52              0.0000000000
      5934        52  CHL1      H16A          -28.1081335531      -11.8941524312        9.0435245042  MEMB      52              0.0000000000
      5935        52  CHL1      H16B          -26.4000857524      -12.0186113327        8.4556290834  MEMB      52              0.0000000000
      5936        52  CHL1      C17           -27.3928636248      -13.9211026908        8.9217058048  MEMB      52              0.0000000000
      5937        52  CHL1      H17           -26.4200686934      -14.3822233671        8.6644247867  MEMB      52              0.0000000000
      5938        52  CHL1      C13           -27.8518337894      -14.4334654713       10.2902818747  MEMB      52              0.0000000000
      5939        52  CHL1      C18           -29.2543991012      -13.9133323171       10.4656323694  MEMB      52              0.0000000000
      5940        52  CHL1      H18A          -29.5515702173      -14.2218274032       11.4702512787  MEMB      52              0.0000000000
      5941        52  CHL1      H18B          -29.4353332057      -12.8420910312       10.2846668837  MEMB      52              0.0000000000
      5942        52  CHL1      H18C          -29.9830651600      -14.3994397371        9.8451710326  MEMB      52              0.0000000000
      5943        52  CHL1      C12           -27.8393699000      -15.9331014810       10.6309594667  MEMB      52              0.0000000000
      5944        52  CHL1      H12A          -28.6537026799      -16.4629658475       10.1066140901  MEMB      52              0.0000000000
      5945        52  CHL1      H12B          -26.8995991425      -16.3799368719       10.2806109259  MEMB      52              0.0000000000
      5946        52  CHL1      C11           -28.0502024194      -16.1910417113       12.1397105182  MEMB      52              0.0000000000
      5947        52  CHL1      H11A          -29.0901417186      -15.9334470957       12.3201789573  MEMB      52              0.0000000000
      5948        52  CHL1      H11B          -27.9785197151      -17.2728862777       12.3356932923  MEMB      52              0.0000000000
      5949        52  CHL1      C9            -27.1409882339      -15.3684312861       13.1027650071  MEMB      52              0.0000000000
      5950        52  CHL1      H9            -26.1152917049      -15.7520968742       12.9620161006  MEMB      52              0.0000000000
      5951        52  CHL1      C10           -27.4384845943      -15.4551600751       14.6227028494  MEMB      52              0.0000000000
      5952        52  CHL1      C19           -28.9448143788      -15.3416463132       14.9378436897  MEMB      52              0.0000000000
      5953        52  CHL1      H19A          -29.4372391154      -16.2062792256       14.4741906050  MEMB      52              0.0000000000
      5954        52  CHL1      H19B          -29.2109735415      -15.3278398888       16.0185604869  MEMB      52              0.0000000000
      5955        52  CHL1      H19C          -29.4458647905      -14.4943575554       14.4899079039  MEMB      52              0.0000000000
      5956        52  CHL1      C1            -27.0280847747      -16.8435088655       15.0368103026  MEMB      52              0.0000000000
      5957        52  CHL1      H1A           -27.6596688979      -17.6276101862       14.5575809974  MEMB      52              0.0000000000
      5958        52  CHL1      H1B           -25.9872367530      -17.0256995388       14.6897880420  MEMB      52              0.0000000000
      5959        52  CHL1      C2            -26.9913322616      -16.9688751970       16.5483668229  MEMB      52              0.0000000000
      5960        52  CHL1      H2A           -26.3112705989      -17.8279710798       16.6031068854  MEMB      52              0.0000000000
      5961        52  CHL1      H2B           -27.9967874815      -17.0909576764       17.0205025470  MEMB      52              0.0000000000
      5962        52  CHL1      C20           -28.3081847184      -14.1520987864        7.7559445004  MEMB      52              0.0000000000
      5963        52  CHL1      H20           -29.3302379779      -13.7514389630        8.0113456454  MEMB      52              0.0000000000
      5964        52  CHL1      C21           -28.3021819222      -15.6423402656        7.4862936806  MEMB      52              0.0000000000
      5965        52  CHL1      H21A          -28.9103242242      -15.9449750747        8.3306065625  MEMB      52              0.0000000000
      5966        52  CHL1      H21B          -27.4805676395      -16.3142286947        7.7057730422  MEMB      52              0.0000000000
      5967        52  CHL1      H21C          -28.7858761556      -15.8886834474        6.5110281605  MEMB      52              0.0000000000
      5968        52  CHL1      C22           -27.9435516685      -13.4736348310        6.4626392890  MEMB      52              0.0000000000
      5969        52  CHL1      H22A          -27.5648570614      -12.4943353787        6.6986166434  MEMB      52              0.0000000000
      5970        52  CHL1      H22B          -27.1044288945      -14.0131463033        5.9795066277  MEMB      52              0.0000000000
      5971        52  CHL1      C23           -29.1830595831      -13.3226397748        5.5876733987  MEMB      52              0.0000000000
      5972        52  CHL1      H23A          -29.3094739891      -14.3090138818        5.0794943532  MEMB      52              0.0000000000
      5973        52  CHL1      H23B          -30.0914471230      -12.9501879084        6.1032807311  MEMB      52              0.0000000000
      5974        52  CHL1      C24           -29.0720302416      -12.2518766265        4.5373260375  MEMB      52              0.0000000000
      5975        52  CHL1      H24A          -29.0158896236      -11.2684738733        4.9062980189  MEMB      52              0.0000000000
      5976        52  CHL1      H24B          -28.0779022122      -12.5679920988        4.1468056316  MEMB      52              0.0000000000
      5977        52  CHL1      C25           -30.3159525683      -11.7574460792        3.7509564615  MEMB      52              0.0000000000
      5978        52  CHL1      H25           -31.1720675791      -11.4854912995        4.3928385343  MEMB      52              0.0000000000
      5979        52  CHL1      C26           -30.3404782109      -10.7627853972        2.5558780202  MEMB      52              0.0000000000
      5980        52  CHL1      H26A          -30.1195715898       -9.8351294312        3.0205855154  MEMB      52              0.0000000000
      5981        52  CHL1      H26B          -29.6286205972      -10.9051537569        1.7301837622  MEMB      52              0.0000000000
      5982        52  CHL1      H26C          -31.1689465555      -10.6498121745        1.8365071381  MEMB      52              0.0000000000
      5983        52  CHL1      C27           -30.8000432102      -12.9372145206        3.3953630716  MEMB      52              0.0000000000
      5984        52  CHL1      H27A          -31.6833659586      -12.7743833639        2.8857087135  MEMB      52              0.0000000000
      5985        52  CHL1      H27B          -30.3630502562      -13.5102448640        2.7173503167  MEMB      52              0.0000000000
      5986        52  CHL1      H27C          -30.7699726771      -13.7576321952        4.0633448737  MEMB      52              0.0000000000
      5987        53  SAPC      N              27.8478761788        8.3800716512       19.7187331270  MEMB      53              0.0000000000
      5988        53  SAPC      C12            28.1313857907        9.7637539470       19.1743393804  MEMB      53              0.0000000000
      5989        53  SAPC      H12A           27.8614586689       10.5399034903       19.8946145863  MEMB      53              0.0000000000
      5990        53  SAPC      H12B           27.4971143917        9.8979502833       18.3069496165  MEMB      53              0.0000000000
      5991        53  SAPC      C13            26.3609126619        8.2383675207       19.8362348152  MEMB      53              0.0000000000
      5992        53  SAPC      H13A           25.9088046981        8.2022410311       18.8435857702  MEMB      53              0.0000000000
      5993        53  SAPC      H13B           26.0674143899        7.3390306590       20.3510209031  MEMB      53              0.0000000000
      5994        53  SAPC      H13C           25.9114765692        9.0960864790       20.3262666194  MEMB      53              0.0000000000
      5995        53  SAPC      C14            28.3488412120        7.4002005325       18.7013351739  MEMB      53              0.0000000000
      5996        53  SAPC      H14A           27.8836733615        7.5932085917       17.7405847619  MEMB      53              0.0000000000
      5997        53  SAPC      H14B           29.4250859284        7.5226729746       18.5496587686  MEMB      53              0.0000000000
      5998        53  SAPC      H14C           28.1352256142        6.3752029938       18.9493637736  MEMB      53              0.0000000000
      5999        53  SAPC      C15            28.5567411527        8.1433441881       21.0120741106  MEMB      53              0.0000000000
      6000        53  SAPC      H15A           29.5480682197        8.6158455848       20.9749215839  MEMB      53              0.0000000000
      6001        53  SAPC      H15B           28.0220065372        8.5857386019       21.8357787747  MEMB      53              0.0000000000
      6002        53  SAPC      H15C           28.7279204833        7.0934659005       21.1766878198  MEMB      53              0.0000000000
      6003        53  SAPC      C11            29.5673667826       10.0125078298       18.6885780880  MEMB      53              0.0000000000
      6004        53  SAPC      H11A           29.5507379799       10.9899119133       18.1388973582  MEMB      53              0.0000000000
      6005        53  SAPC      H11B           29.9087165038        9.2722196252       17.9428682682  MEMB      53              0.0000000000
      6006        53  SAPC      P              30.7455749653       11.2105226372       20.6069841549  MEMB      53              0.0000000000
      6007        53  SAPC      O13            29.6814894073       11.4096260936       21.6079830827  MEMB      53              0.0000000000
      6008        53  SAPC      O14            32.1140899157       11.2472871682       21.0971054634  MEMB      53              0.0000000000
      6009        53  SAPC      O12            30.4788076132        9.9324343587       19.7761166059  MEMB      53              0.0000000000
      6010        53  SAPC      O11            30.5523162953       12.3017136258       19.4970598928  MEMB      53              0.0000000000
      6011        53  SAPC      C1             31.1767387832       13.5445833247       19.6887622695  MEMB      53              0.0000000000
      6012        53  SAPC      HA             30.6034517583       14.1398642203       20.4179317733  MEMB      53              0.0000000000
      6013        53  SAPC      HB             32.2039296393       13.2831352419       19.9826854376  MEMB      53              0.0000000000
      6014        53  SAPC      C2             31.2481626534       14.5038140165       18.5084591585  MEMB      53              0.0000000000
      6015        53  SAPC      HS             31.2857831625       15.5925779613       18.7902801732  MEMB      53              0.0000000000
      6016        53  SAPC      O21            30.1490800255       14.0670191122       17.8281710708  MEMB      53              0.0000000000
      6017        53  SAPC      C21            29.7853557993       14.8988356961       17.0365398167  MEMB      53              0.0000000000
      6018        53  SAPC      O22            30.2586697813       16.0177637568       16.8101735951  MEMB      53              0.0000000000
      6019        53  SAPC      C22            28.8373929157       14.0071329649       16.2361407939  MEMB      53              0.0000000000
      6020        53  SAPC      H2R            28.7750710719       12.9409116295       16.4505581155  MEMB      53              0.0000000000
      6021        53  SAPC      H2S            27.8299165209       14.3785286883       16.5340456637  MEMB      53              0.0000000000
      6022        53  SAPC      C3             32.4688155009       14.3073222139       17.7361670580  MEMB      53              0.0000000000
      6023        53  SAPC      HX             33.1941406620       14.6887355143       18.4680774107  MEMB      53              0.0000000000
      6024        53  SAPC      HY             32.7222746390       14.8641950256       16.8044606361  MEMB      53              0.0000000000
      6025        53  SAPC      O31            32.6001175657       12.8947221224       17.6720228016  MEMB      53              0.0000000000
      6026        53  SAPC      C31            32.1155678498       12.4395020280       16.6064018520  MEMB      53              0.0000000000
      6027        53  SAPC      O32            31.7576053398       13.0447766703       15.6235182857  MEMB      53              0.0000000000
      6028        53  SAPC      C32            32.3209918374       11.0306060271       16.6863304690  MEMB      53              0.0000000000
      6029        53  SAPC      H2X            32.0524193469       10.5928674811       17.6677408823  MEMB      53              0.0000000000
      6030        53  SAPC      H2Y            33.4233092711       10.9943398191       16.6404761904  MEMB      53              0.0000000000
      6031        53  SAPC      C23            29.4880363948       14.0486627533       14.8439106345  MEMB      53              0.0000000000
      6032        53  SAPC      H3R            30.4675265911       14.5402535435       14.7388160477  MEMB      53              0.0000000000
      6033        53  SAPC      H3S            29.2560767706       15.0975469831       14.7233393026  MEMB      53              0.0000000000
      6034        53  SAPC      C24            29.3002214511       12.8100322602       13.7097358466  MEMB      53              0.0000000000
      6035        53  SAPC      H4R            28.4464486366       12.3636268806       14.2590067758  MEMB      53              0.0000000000
      6036        53  SAPC      H4S            30.0019150248       12.0548657114       13.9761136952  MEMB      53              0.0000000000
      6037        53  SAPC      C25            29.0321436627       12.7412293753       12.0742961721  MEMB      53              0.0000000000
      6038        53  SAPC      H5R            28.0757194628       12.8951751747       11.5227257919  MEMB      53              0.0000000000
      6039        53  SAPC      C26            29.7821842460       13.3400514465       11.2283217795  MEMB      53              0.0000000000
      6040        53  SAPC      H6R            29.4961725946       13.6999831518       10.1934233429  MEMB      53              0.0000000000
      6041        53  SAPC      C27            30.8450985562       13.9934014847       11.9327383842  MEMB      53              0.0000000000
      6042        53  SAPC      H7R            31.2610120044       13.0155654295       12.1109263944  MEMB      53              0.0000000000
      6043        53  SAPC      H7S            30.9893972506       14.2175824219       12.9848628523  MEMB      53              0.0000000000
      6044        53  SAPC      C28            31.3455627183       15.0625367110       11.0826387053  MEMB      53              0.0000000000
      6045        53  SAPC      H8R            32.0489441830       15.7265321192       11.6365803765  MEMB      53              0.0000000000
      6046        53  SAPC      C29            31.6872473811       14.7972047519        9.8375590446  MEMB      53              0.0000000000
      6047        53  SAPC      H9R            32.5454566119       15.4299491203        9.8572151903  MEMB      53              0.0000000000
      6048        53  SAPC      C210           31.7107337694       13.4496677311        8.9634605384  MEMB      53              0.0000000000
      6049        53  SAPC      H10R           31.4312958940       12.5047497161        9.4277088403  MEMB      53              0.0000000000
      6050        53  SAPC      H10S           32.7381237273       13.3719092257        8.5429039189  MEMB      53              0.0000000000
      6051        53  SAPC      C211           31.2076144547       13.0894292107        7.6641871373  MEMB      53              0.0000000000
      6052        53  SAPC      H11R           30.4545101821       13.8507118448        7.4931888637  MEMB      53              0.0000000000
      6053        53  SAPC      C212           31.7791341880       12.6447987189        6.5300781830  MEMB      53              0.0000000000
      6054        53  SAPC      H12R           31.1878102258       13.1926987281        5.8150592375  MEMB      53              0.0000000000
      6055        53  SAPC      C213           33.2341671233       12.3287937942        6.0849217151  MEMB      53              0.0000000000
      6056        53  SAPC      H13R           34.0366904157       12.7802988105        6.6681542996  MEMB      53              0.0000000000
      6057        53  SAPC      H13S           33.7979686963       12.6506976457        5.2108673139  MEMB      53              0.0000000000
      6058        53  SAPC      C214           33.3228717622       11.0046105753        6.4221200706  MEMB      53              0.0000000000
      6059        53  SAPC      H14R           32.9983177618       10.8356910701        7.4586918670  MEMB      53              0.0000000000
      6060        53  SAPC      C215           33.9929880577       10.0659113774        5.8179799473  MEMB      53              0.0000000000
      6061        53  SAPC      H15R           34.1720010938        9.2637553126        6.4302662706  MEMB      53              0.0000000000
      6062        53  SAPC      C216           34.5307826914        9.6220162760        4.3800709273  MEMB      53              0.0000000000
      6063        53  SAPC      H16R           34.7208765430        8.9084345173        3.6824613121  MEMB      53              0.0000000000
      6064        53  SAPC      H16S           35.0591419012       10.6301103804        4.6176099528  MEMB      53              0.0000000000
      6065        53  SAPC      C217           33.6246599750        9.2489099144        2.4154464729  MEMB      53              0.0000000000
      6066        53  SAPC      H17R           33.6172404605       10.0735294012        1.6360235242  MEMB      53              0.0000000000
      6067        53  SAPC      H17S           32.7762364960        9.9160253170        1.9730648508  MEMB      53              0.0000000000
      6068        53  SAPC      C218           32.4020967155        8.2956152917        2.0174126100  MEMB      53              0.0000000000
      6069        53  SAPC      H18R           32.0075855145        7.5766539702        2.7245873498  MEMB      53              0.0000000000
      6070        53  SAPC      H18S           33.1434702499        7.8296642490        1.4232997237  MEMB      53              0.0000000000
      6071        53  SAPC      C219           30.9255627993        8.5221107502        1.5549112692  MEMB      53              0.0000000000
      6072        53  SAPC      H19R           30.5551146562        7.4746475270        1.5104401645  MEMB      53              0.0000000000
      6073        53  SAPC      H19S           31.2271767369        8.7281058889        0.5638273178  MEMB      53              0.0000000000
      6074        53  SAPC      C220           29.5879145677        9.1748625579        2.0646995432  MEMB      53              0.0000000000
      6075        53  SAPC      H20R           29.1511367638        9.1039291525        3.0660837766  MEMB      53              0.0000000000
      6076        53  SAPC      H20S           29.0057406141        9.1953232571        1.1215590340  MEMB      53              0.0000000000
      6077        53  SAPC      H20T           29.3914338933       10.2083877588        2.2396149353  MEMB      53              0.0000000000
      6078        53  SAPC      C33            31.4693270610       10.4928193256       15.5582496714  MEMB      53              0.0000000000
      6079        53  SAPC      H3X            30.4417633178       10.8654199164       15.4498680346  MEMB      53              0.0000000000
      6080        53  SAPC      H3Y            31.1618852369        9.5575699709       16.0240750861  MEMB      53              0.0000000000
      6081        53  SAPC      C34            32.1170757037       10.5390496763       14.1625670768  MEMB      53              0.0000000000
      6082        53  SAPC      H4X            33.2014102681       10.2982688405       14.0652111888  MEMB      53              0.0000000000
      6083        53  SAPC      H4Y            32.0543374105       11.5665604015       13.8616949320  MEMB      53              0.0000000000
      6084        53  SAPC      C35            31.3186812907        9.8671487759       13.0825110274  MEMB      53              0.0000000000
      6085        53  SAPC      H5X            30.2922035898       10.2001824012       12.9424765424  MEMB      53              0.0000000000
      6086        53  SAPC      H5Y            31.0297727652        8.8228933834       13.2365511206  MEMB      53              0.0000000000
      6087        53  SAPC      C36            32.1457236123        9.7650944159       11.8986972077  MEMB      53              0.0000000000
      6088        53  SAPC      H6X            33.2369992334        9.5585344021       12.0432407032  MEMB      53              0.0000000000
      6089        53  SAPC      H6Y            32.0793743920       10.4129845863       11.0725503616  MEMB      53              0.0000000000
      6090        53  SAPC      C37            31.4287844845        8.8012799538       11.1245716942  MEMB      53              0.0000000000
      6091        53  SAPC      H7X            31.4022230023        7.8725507070       11.6006192840  MEMB      53              0.0000000000
      6092        53  SAPC      H7Y            32.3539353854        8.7327160756       10.5123443043  MEMB      53              0.0000000000
      6093        53  SAPC      C38            29.9943571833        9.0127051202       10.5501833620  MEMB      53              0.0000000000
      6094        53  SAPC      H8X            29.2654840184        9.0206538627       11.3797683858  MEMB      53              0.0000000000
      6095        53  SAPC      H8Y            29.6489209659        8.1432692696        9.9375071238  MEMB      53              0.0000000000
      6096        53  SAPC      C39            29.9280706158       10.2380543536        9.6475243642  MEMB      53              0.0000000000
      6097        53  SAPC      H9X            30.9592063881       10.4565022818        9.2873003806  MEMB      53              0.0000000000
      6098        53  SAPC      H9Y            29.6751231542       11.0441110709       10.3374376137  MEMB      53              0.0000000000
      6099        53  SAPC      C310           28.9259764509       10.1663666397        8.4724283375  MEMB      53              0.0000000000
      6100        53  SAPC      H10X           27.9087084320       10.1533334242        8.8611114876  MEMB      53              0.0000000000
      6101        53  SAPC      H10Y           29.0188467082        9.2662147579        7.8580313952  MEMB      53              0.0000000000
      6102        53  SAPC      C311           29.1059626924       11.2564315908        7.4363916062  MEMB      53              0.0000000000
      6103        53  SAPC      H11X           30.1647911797       11.0498449151        7.1807013973  MEMB      53              0.0000000000
      6104        53  SAPC      H11Y           28.9567743325       12.2604115783        7.8974078776  MEMB      53              0.0000000000
      6105        53  SAPC      C312           28.4541553650       11.1069171372        6.0606450252  MEMB      53              0.0000000000
      6106        53  SAPC      H12X           27.3707414443       11.2982151878        6.1327308503  MEMB      53              0.0000000000
      6107        53  SAPC      H12Y           28.6122691889       10.0826255124        5.6925495183  MEMB      53              0.0000000000
      6108        53  SAPC      C313           29.0529378581       12.0025744342        4.9798329987  MEMB      53              0.0000000000
      6109        53  SAPC      H13X           28.6230069844       11.7948312083        3.9748174266  MEMB      53              0.0000000000
      6110        53  SAPC      H13Y           30.1164092945       11.9878198731        4.9269449544  MEMB      53              0.0000000000
      6111        53  SAPC      C314           28.8030192385       13.4047214211        5.3144358904  MEMB      53              0.0000000000
      6112        53  SAPC      H14X           29.0593710667       13.8479902963        6.2755740570  MEMB      53              0.0000000000
      6113        53  SAPC      H14Y           27.7851390944       13.2611054140        5.4199978905  MEMB      53              0.0000000000
      6114        53  SAPC      C315           29.1026033053       14.3544055576        4.2872457068  MEMB      53              0.0000000000
      6115        53  SAPC      H15X           28.8645142329       14.0558885062        3.2168588433  MEMB      53              0.0000000000
      6116        53  SAPC      H15Y           30.2003418896       14.5284002894        4.3819348438  MEMB      53              0.0000000000
      6117        53  SAPC      C316           28.4347284314       15.5977120338        4.7143321077  MEMB      53              0.0000000000
      6118        53  SAPC      H16X           28.7437609989       16.2306977010        5.5769854101  MEMB      53              0.0000000000
      6119        53  SAPC      H16Y           27.3532135813       15.7163119655        4.4623623706  MEMB      53              0.0000000000
      6120        53  SAPC      C317           29.1432212208       16.1464927920        3.6446227065  MEMB      53              0.0000000000
      6121        53  SAPC      H17X           28.9117881768       17.0102637310        3.8910179496  MEMB      53              0.0000000000
      6122        53  SAPC      H17Y           28.3677444700       16.0442643596        2.8333513116  MEMB      53              0.0000000000
      6123        53  SAPC      C318           30.3647148263       17.0421339650        3.8278266802  MEMB      53              0.0000000000
      6124        53  SAPC      H18X           30.7352406329       17.6437494792        4.6597378699  MEMB      53              0.0000000000
      6125        53  SAPC      H18Y           30.4507615727       18.0169240179        3.3048962243  MEMB      53              0.0000000000
      6126        53  SAPC      H18Z           30.7852419998       16.7148101726        2.9534071338  MEMB      53              0.0000000000
      6127        54  SAPS      N              10.0286003528       30.2556904862       21.2372471003  MEMB      54              0.0000000000
      6128        54  SAPS      HN1            10.4733365540       31.1919746453       21.4366752621  MEMB      54              0.0000000000
      6129        54  SAPS      HN2            10.3867985549       29.5537851898       21.8996326849  MEMB      54              0.0000000000
      6130        54  SAPS      HN3            10.2396520490       29.9763524283       20.2605119591  MEMB      54              0.0000000000
      6131        54  SAPS      C12             8.5524636208       30.4982653581       21.3784825968  MEMB      54              0.0000000000
      6132        54  SAPS      H12A            8.2051716496       29.8775791580       22.1868898092  MEMB      54              0.0000000000
      6133        54  SAPS      C13             8.2328382153       31.9534634502       21.7516094538  MEMB      54              0.0000000000
      6134        54  SAPS      O13A            9.1963317360       32.6371015072       22.1832842989  MEMB      54              0.0000000000
      6135        54  SAPS      O13B            7.0250888267       32.3144030674       21.7802437786  MEMB      54              0.0000000000
      6136        54  SAPS      C11             7.7535347020       30.1425365977       20.1105097446  MEMB      54              0.0000000000
      6137        54  SAPS      H11A            7.9857285954       30.8717004297       19.2943692617  MEMB      54              0.0000000000
      6138        54  SAPS      H11B            6.6692157473       30.2528748625       20.3410579910  MEMB      54              0.0000000000
      6139        54  SAPS      P               7.6406240732       28.4488617081       18.2221656803  MEMB      54              0.0000000000
      6140        54  SAPS      O13             7.7147017316       27.0398244218       18.0053299163  MEMB      54              0.0000000000
      6141        54  SAPS      O14             6.6571380277       29.3559366179       17.6146461726  MEMB      54              0.0000000000
      6142        54  SAPS      O12             7.9952063087       28.7949920693       19.7272052483  MEMB      54              0.0000000000
      6143        54  SAPS      O11             8.9279208146       28.6144097840       17.5673028400  MEMB      54              0.0000000000
      6144        54  SAPS      C1             10.0884556840       28.7960114770       18.2418137819  MEMB      54              0.0000000000
      6145        54  SAPS      HA             10.0408854280       29.6922134159       18.8732171808  MEMB      54              0.0000000000
      6146        54  SAPS      HB             10.5713444298       27.9142242834       18.7217292966  MEMB      54              0.0000000000
      6147        54  SAPS      C2             10.8351245842       29.2417565925       17.1206424677  MEMB      54              0.0000000000
      6148        54  SAPS      HS             11.7521921702       29.5133040676       17.6647153935  MEMB      54              0.0000000000
      6149        54  SAPS      O21            10.1587972169       30.0893231012       16.1512063944  MEMB      54              0.0000000000
      6150        54  SAPS      C21             9.5598946622       31.1629150297       16.5142060087  MEMB      54              0.0000000000
      6151        54  SAPS      O22             9.7834123746       31.7450485171       17.5627560786  MEMB      54              0.0000000000
      6152        54  SAPS      C22             8.6273170678       31.6931790475       15.4155077459  MEMB      54              0.0000000000
      6153        54  SAPS      H2R             9.0703275150       32.0325115710       14.4619549729  MEMB      54              0.0000000000
      6154        54  SAPS      H2S             7.9702498798       30.8619550731       15.1309679457  MEMB      54              0.0000000000
      6155        54  SAPS      C3             11.4289950653       28.3308435650       16.2616555319  MEMB      54              0.0000000000
      6156        54  SAPS      HX             12.1664216554       27.7440402088       16.8599721494  MEMB      54              0.0000000000
      6157        54  SAPS      HY             11.9898185483       28.8335464362       15.4770555889  MEMB      54              0.0000000000
      6158        54  SAPS      O31            10.3690631941       27.6905909716       15.6489933914  MEMB      54              0.0000000000
      6159        54  SAPS      C31            10.0384995653       28.0009859867       14.4061433166  MEMB      54              0.0000000000
      6160        54  SAPS      O32            10.5775168678       28.7087453940       13.5908507255  MEMB      54              0.0000000000
      6161        54  SAPS      C32             9.1439905728       26.9724933186       14.0593754953  MEMB      54              0.0000000000
      6162        54  SAPS      H2X             8.3721374920       27.3303520257       14.6934578583  MEMB      54              0.0000000000
      6163        54  SAPS      H2Y             9.5631555200       25.9818971653       14.4176383100  MEMB      54              0.0000000000
      6164        54  SAPS      C23             7.9257595181       32.9291253884       15.9699872580  MEMB      54              0.0000000000
      6165        54  SAPS      H3R             8.6539680706       33.7693454634       15.9688396970  MEMB      54              0.0000000000
      6166        54  SAPS      H3S             7.6424735753       32.7268143817       17.0339498839  MEMB      54              0.0000000000
      6167        54  SAPS      C24             6.7110422560       33.2890309632       15.1223705461  MEMB      54              0.0000000000
      6168        54  SAPS      H4R             6.9374561590       33.1970194898       14.0402885768  MEMB      54              0.0000000000
      6169        54  SAPS      H4S             6.3865871635       34.3280250699       15.3266703488  MEMB      54              0.0000000000
      6170        54  SAPS      C25             5.6933696665       32.2810801729       15.5275733575  MEMB      54              0.0000000000
      6171        54  SAPS      H5R             5.2524349631       32.4490885958       16.5235809028  MEMB      54              0.0000000000
      6172        54  SAPS      C26             5.1042623479       31.4012864623       14.7181084793  MEMB      54              0.0000000000
      6173        54  SAPS      H6R             4.3310031322       30.7251263633       15.0997547553  MEMB      54              0.0000000000
      6174        54  SAPS      C27             5.2726622017       31.2086533270       13.2877680999  MEMB      54              0.0000000000
      6175        54  SAPS      H7R             5.1857088882       32.1726850335       12.7467266236  MEMB      54              0.0000000000
      6176        54  SAPS      H7S             4.4165944927       30.6240928756       12.9954154016  MEMB      54              0.0000000000
      6177        54  SAPS      C28             6.4526992360       30.3770800118       13.0425294357  MEMB      54              0.0000000000
      6178        54  SAPS      H8R             6.5846358530       29.5576199279       13.7583802088  MEMB      54              0.0000000000
      6179        54  SAPS      C29             7.3251105570       30.6044539872       12.0838456769  MEMB      54              0.0000000000
      6180        54  SAPS      H9R             8.2271896460       29.9833384876       12.0070651316  MEMB      54              0.0000000000
      6181        54  SAPS      C210            7.1974529542       31.7394403513       11.1475534108  MEMB      54              0.0000000000
      6182        54  SAPS      H10R            6.2969468277       32.3611077291       11.1976006971  MEMB      54              0.0000000000
      6183        54  SAPS      H10S            7.1122966133       31.2880384573       10.1202110958  MEMB      54              0.0000000000
      6184        54  SAPS      C211            8.2430870033       32.7545929616       11.5638751028  MEMB      54              0.0000000000
      6185        54  SAPS      H11R            8.7207438630       32.7726423026       12.5230741488  MEMB      54              0.0000000000
      6186        54  SAPS      C212            8.9724199775       33.4818320142       10.7963411384  MEMB      54              0.0000000000
      6187        54  SAPS      H12R           10.0303427058       33.5042348049       11.1007931551  MEMB      54              0.0000000000
      6188        54  SAPS      C213            8.8457109839       33.3449782493        9.4022339639  MEMB      54              0.0000000000
      6189        54  SAPS      H13R            7.8687045854       32.9254242577        8.8483428695  MEMB      54              0.0000000000
      6190        54  SAPS      H13S            8.5960534820       32.1492075589        9.4121516600  MEMB      54              0.0000000000
      6191        54  SAPS      C214           10.4018661309       34.0890827783        8.8593959094  MEMB      54              0.0000000000
      6192        54  SAPS      H14R            9.6054382760       34.8174682740        8.6113860246  MEMB      54              0.0000000000
      6193        54  SAPS      C215           11.4912980221       33.6050337518        7.6737299219  MEMB      54              0.0000000000
      6194        54  SAPS      H15R           11.9352125747       34.3550375522        7.0629785879  MEMB      54              0.0000000000
      6195        54  SAPS      C216           11.4823398623       32.0998944907        6.4082574224  MEMB      54              0.0000000000
      6196        54  SAPS      H16R           11.6889936880       31.0550216577        6.8077901446  MEMB      54              0.0000000000
      6197        54  SAPS      H16S           12.1869845739       31.6621329602        5.9481526826  MEMB      54              0.0000000000
      6198        54  SAPS      C217           10.3914764916       30.9112241792        5.6709012907  MEMB      54              0.0000000000
      6199        54  SAPS      H17R            9.2895840917       30.9246031444        5.6779767232  MEMB      54              0.0000000000
      6200        54  SAPS      H17S           10.7135544037       29.7875085248        5.7833981101  MEMB      54              0.0000000000
      6201        54  SAPS      C218           10.2487915148       31.0176735147        4.2081361631  MEMB      54              0.0000000000
      6202        54  SAPS      H18R           10.0858362651       29.9947241285        3.7988931571  MEMB      54              0.0000000000
      6203        54  SAPS      H18S           11.2999193195       30.5882627686        4.2824629052  MEMB      54              0.0000000000
      6204        54  SAPS      C219            9.9235691254       32.4624997999        3.0928345468  MEMB      54              0.0000000000
      6205        54  SAPS      H19R           10.5209614773       32.8546868738        3.8025250031  MEMB      54              0.0000000000
      6206        54  SAPS      H19S            8.9140351616       32.7596415707        3.0303494857  MEMB      54              0.0000000000
      6207        54  SAPS      C220           10.6810000987       33.3972087412        1.6655553972  MEMB      54              0.0000000000
      6208        54  SAPS      H20R           11.8303232967       33.4511222575        1.6389441937  MEMB      54              0.0000000000
      6209        54  SAPS      H20S           10.6068728909       34.4145946957        1.4580497042  MEMB      54              0.0000000000
      6210        54  SAPS      H20T           10.6277576757       32.8657572406        0.7244196347  MEMB      54              0.0000000000
      6211        54  SAPS      C33             8.2217208201       27.2899385364       12.8779400905  MEMB      54              0.0000000000
      6212        54  SAPS      H3X             8.8720997380       27.2192619852       12.0270632483  MEMB      54              0.0000000000
      6213        54  SAPS      H3Y             8.0080052692       28.3427513832       13.0576935140  MEMB      54              0.0000000000
      6214        54  SAPS      C34             6.8576293895       26.5894172966       12.7336223897  MEMB      54              0.0000000000
      6215        54  SAPS      H4X             6.3934887530       26.3935168826       13.7158168382  MEMB      54              0.0000000000
      6216        54  SAPS      H4Y             6.9195339385       25.6553150330       12.1554350527  MEMB      54              0.0000000000
      6217        54  SAPS      C35             5.7831972441       27.1222178068       11.8805785985  MEMB      54              0.0000000000
      6218        54  SAPS      H5X             5.3884211049       27.9870628330       12.4328170423  MEMB      54              0.0000000000
      6219        54  SAPS      H5Y             4.9872477763       26.3178136990       11.8359457217  MEMB      54              0.0000000000
      6220        54  SAPS      C36             6.3428690587       27.4542777685       10.5122337103  MEMB      54              0.0000000000
      6221        54  SAPS      H6X             6.3121180100       26.5504506614        9.8630758258  MEMB      54              0.0000000000
      6222        54  SAPS      H6Y             7.2991894431       27.9928564006       10.4874404218  MEMB      54              0.0000000000
      6223        54  SAPS      C37             5.3886872537       28.2997399286        9.8462468123  MEMB      54              0.0000000000
      6224        54  SAPS      H7X             5.1912432808       29.2328781955       10.4020957589  MEMB      54              0.0000000000
      6225        54  SAPS      H7Y             4.6682411224       27.4472295967       10.0080592848  MEMB      54              0.0000000000
      6226        54  SAPS      C38             5.5069941970       28.5010556602        8.3701148133  MEMB      54              0.0000000000
      6227        54  SAPS      H8X             5.0441639874       27.5625981801        7.9875822523  MEMB      54              0.0000000000
      6228        54  SAPS      H8Y             6.5862043000       28.6040214117        8.1313602038  MEMB      54              0.0000000000
      6229        54  SAPS      C39             4.7952626327       29.7449918703        7.8529760883  MEMB      54              0.0000000000
      6230        54  SAPS      H9X             5.0194621794       30.5911905521        8.5144278503  MEMB      54              0.0000000000
      6231        54  SAPS      H9Y             3.7371455501       29.7109560118        7.9012260804  MEMB      54              0.0000000000
      6232        54  SAPS      C310            4.9202204270       30.0157788726        6.3698323031  MEMB      54              0.0000000000
      6233        54  SAPS      H10X            4.1145218084       30.6928388838        6.0352170787  MEMB      54              0.0000000000
      6234        54  SAPS      H10Y            4.6877347051       29.0735140184        5.8618714187  MEMB      54              0.0000000000
      6235        54  SAPS      C311            6.3175330045       30.5138166726        6.0593524684  MEMB      54              0.0000000000
      6236        54  SAPS      H11X            6.9514942016       29.6096672992        5.9959713668  MEMB      54              0.0000000000
      6237        54  SAPS      H11Y            6.6678928153       31.0940439573        6.9520388306  MEMB      54              0.0000000000
      6238        54  SAPS      C312            6.5188013043       31.2748838325        4.7386241663  MEMB      54              0.0000000000
      6239        54  SAPS      H12X            7.5463131061       31.1264948005        4.3742338579  MEMB      54              0.0000000000
      6240        54  SAPS      H12Y            6.3022774411       32.3577496190        4.9092669140  MEMB      54              0.0000000000
      6241        54  SAPS      C313            5.6873262556       30.8815129074        3.5203705069  MEMB      54              0.0000000000
      6242        54  SAPS      H13X            5.6968083835       31.6873851893        2.7766435733  MEMB      54              0.0000000000
      6243        54  SAPS      H13Y            4.7174433459       30.8791782662        3.9727522966  MEMB      54              0.0000000000
      6244        54  SAPS      C314            5.9179583984       29.5560550586        2.7876883974  MEMB      54              0.0000000000
      6245        54  SAPS      H14X            5.1407180938       28.9157604190        3.1728330456  MEMB      54              0.0000000000
      6246        54  SAPS      H14Y            6.9562821463       29.1927977181        2.8928922644  MEMB      54              0.0000000000
      6247        54  SAPS      C315            5.4057019088       29.3292930541        1.3805175636  MEMB      54              0.0000000000
      6248        54  SAPS      H15X            4.4208724552       29.7449830997        1.2128479212  MEMB      54              0.0000000000
      6249        54  SAPS      H15Y            5.2757475708       28.2376518986        1.1549294481  MEMB      54              0.0000000000
      6250        54  SAPS      C316            6.2859818299       30.1408178535        0.5196395342  MEMB      54              0.0000000000
      6251        54  SAPS      H16X            7.1739558188       29.5112902943        0.2960091479  MEMB      54              0.0000000000
      6252        54  SAPS      H16Y            6.5199440106       31.0884922651        1.0163236941  MEMB      54              0.0000000000
      6253        54  SAPS      C317            5.6285797987       30.7604091465       -0.6591661415  MEMB      54              0.0000000000
      6254        54  SAPS      H17X            4.5864546303       31.0937735019       -0.6625305452  MEMB      54              0.0000000000
      6255        54  SAPS      H17Y            5.6180038968       29.8618688097       -1.1169155334  MEMB      54              0.0000000000
      6256        54  SAPS      C318            6.5053607540       31.3908661750       -1.6734315886  MEMB      54              0.0000000000
      6257        54  SAPS      H18X            6.7388273338       32.4001510454       -1.4109361110  MEMB      54              0.0000000000
      6258        54  SAPS      H18Y            5.9367575262       31.4289673872       -2.6231319978  MEMB      54              0.0000000000
      6259        54  SAPS      H18Z            7.4152236771       30.7578583469       -1.7969430572  MEMB      54              0.0000000000
      6260        55  SLPC      N             -29.1947591092        4.0958206304       15.8528806306  MEMB      55              0.0000000000
      6261        55  SLPC      C13           -28.8854115713        2.7446642950       16.4231946043  MEMB      55              0.0000000000
      6262        55  SLPC      H13A          -29.1369494589        1.9854583205       15.6938801599  MEMB      55              0.0000000000
      6263        55  SLPC      H13B          -27.8246927449        2.6091005027       16.6614862172  MEMB      55              0.0000000000
      6264        55  SLPC      H13C          -29.4678841783        2.5828978706       17.3252933432  MEMB      55              0.0000000000
      6265        55  SLPC      C14           -28.4344363946        4.3328534849       14.6696558687  MEMB      55              0.0000000000
      6266        55  SLPC      H14A          -27.5257101775        3.8654719672       14.9643241975  MEMB      55              0.0000000000
      6267        55  SLPC      H14B          -28.5830797999        3.6816500437       13.8162376096  MEMB      55              0.0000000000
      6268        55  SLPC      H14C          -28.0888025864        5.3415242622       14.4136895798  MEMB      55              0.0000000000
      6269        55  SLPC      C15           -29.0302524834        5.2188590061       16.7745223401  MEMB      55              0.0000000000
      6270        55  SLPC      H15A          -28.2595103073        5.1156027551       17.5197076621  MEMB      55              0.0000000000
      6271        55  SLPC      H15B          -28.6785689918        6.0602363503       16.1830022310  MEMB      55              0.0000000000
      6272        55  SLPC      H15C          -29.8793523061        5.4591625686       17.3916568891  MEMB      55              0.0000000000
      6273        55  SLPC      C12           -30.4866656058        4.1936444837       15.2390318384  MEMB      55              0.0000000000
      6274        55  SLPC      H12A          -30.4755235901        3.4781474015       14.4273082055  MEMB      55              0.0000000000
      6275        55  SLPC      H12B          -30.5185932160        5.1940461882       14.8059189814  MEMB      55              0.0000000000
      6276        55  SLPC      C11           -31.6193011946        3.9544399803       16.1829719691  MEMB      55              0.0000000000
      6277        55  SLPC      H11A          -31.5238554384        2.9005176462       16.5385942395  MEMB      55              0.0000000000
      6278        55  SLPC      H11B          -32.5375320202        4.0664780523       15.5793381794  MEMB      55              0.0000000000
      6279        55  SLPC      P             -32.5213871214        4.7916256890       18.4866794611  MEMB      55              0.0000000000
      6280        55  SLPC      O13           -31.7567989344        4.2712997212       19.6327205469  MEMB      55              0.0000000000
      6281        55  SLPC      O14           -33.2856415542        6.0399615043       18.6642095113  MEMB      55              0.0000000000
      6282        55  SLPC      O12           -31.5894400935        4.9111283919       17.2393829534  MEMB      55              0.0000000000
      6283        55  SLPC      O11           -33.4247327161        3.6256230801       18.0209870141  MEMB      55              0.0000000000
      6284        55  SLPC      C1            -34.3315580827        3.0617359530       18.9402833226  MEMB      55              0.0000000000
      6285        55  SLPC      HA            -33.9175855254        2.4772962815       19.7590172337  MEMB      55              0.0000000000
      6286        55  SLPC      HB            -35.0133462343        3.8761152154       19.3552693452  MEMB      55              0.0000000000
      6287        55  SLPC      C2            -35.1443983636        2.1604709755       18.0950421225  MEMB      55              0.0000000000
      6288        55  SLPC      HS            -35.8704162217        1.5485767102       18.7384896296  MEMB      55              0.0000000000
      6289        55  SLPC      O21           -34.6811664049        1.3592433181       17.0278590742  MEMB      55              0.0000000000
      6290        55  SLPC      C21           -33.7455033160        0.6587115568       17.3431704891  MEMB      55              0.0000000000
      6291        55  SLPC      O22           -33.5561423332        0.2098837461       18.4786893315  MEMB      55              0.0000000000
      6292        55  SLPC      C22           -33.1015122254        0.3667441255       15.9617470740  MEMB      55              0.0000000000
      6293        55  SLPC      H2R           -33.6140469250       -0.4184932966       15.4188436144  MEMB      55              0.0000000000
      6294        55  SLPC      H2S           -33.3785548146        1.0638941750       15.1631132918  MEMB      55              0.0000000000
      6295        55  SLPC      C3            -35.8640800371        3.2016696180       17.5181116926  MEMB      55              0.0000000000
      6296        55  SLPC      HX            -36.5513618265        3.6216430879       18.2781105969  MEMB      55              0.0000000000
      6297        55  SLPC      HY            -36.4448618466        2.4264896136       17.2416307902  MEMB      55              0.0000000000
      6298        55  SLPC      O31           -35.3870601211        4.0049944122       16.3525180362  MEMB      55              0.0000000000
      6299        55  SLPC      C31           -35.6966499873        4.2637772674       15.0524086660  MEMB      55              0.0000000000
      6300        55  SLPC      O32           -36.5380546586        3.8390954960       14.3065310867  MEMB      55              0.0000000000
      6301        55  SLPC      C32           -35.0402375218        5.4290456637       14.5404519096  MEMB      55              0.0000000000
      6302        55  SLPC      H2X           -34.1791415005        5.6222451381       15.1781371116  MEMB      55              0.0000000000
      6303        55  SLPC      H2Y           -35.8300739983        6.1796785259       14.7035284633  MEMB      55              0.0000000000
      6304        55  SLPC      C23           -31.6465840795        0.0021812532       16.1656706395  MEMB      55              0.0000000000
      6305        55  SLPC      H3R           -31.4944567685       -0.9941979063       16.6271407937  MEMB      55              0.0000000000
      6306        55  SLPC      H3S           -31.3207273856        0.7234822200       16.9512003303  MEMB      55              0.0000000000
      6307        55  SLPC      C24           -30.7568024794        0.3268527895       14.9654660099  MEMB      55              0.0000000000
      6308        55  SLPC      H4R           -29.7599187007        0.4160164904       15.4015117968  MEMB      55              0.0000000000
      6309        55  SLPC      H4S           -31.1430931208        1.2670365018       14.5142161670  MEMB      55              0.0000000000
      6310        55  SLPC      C25           -30.5857561778       -0.6055763939       13.7926009370  MEMB      55              0.0000000000
      6311        55  SLPC      H5R           -30.4333290286       -1.6342674151       14.1690246025  MEMB      55              0.0000000000
      6312        55  SLPC      H5S           -29.7377167777       -0.5350001825       13.1024975689  MEMB      55              0.0000000000
      6313        55  SLPC      C26           -31.7935896105       -0.3644354741       12.9301172118  MEMB      55              0.0000000000
      6314        55  SLPC      H6R           -32.5988211534       -0.6255185136       13.6477645502  MEMB      55              0.0000000000
      6315        55  SLPC      H6S           -31.6441041646       -0.9534287847       12.0104664225  MEMB      55              0.0000000000
      6316        55  SLPC      C27           -32.1684904325        0.7984463542       12.0392171393  MEMB      55              0.0000000000
      6317        55  SLPC      H7R           -31.2398154464        0.8946187803       11.4209167486  MEMB      55              0.0000000000
      6318        55  SLPC      H7S           -32.4855652305        1.4973380488       12.8182009422  MEMB      55              0.0000000000
      6319        55  SLPC      C28           -33.5005660878        0.7635494733       11.0887761667  MEMB      55              0.0000000000
      6320        55  SLPC      H8R           -34.3608613993        0.3832595034       11.5712928372  MEMB      55              0.0000000000
      6321        55  SLPC      H8S           -33.4482895999        0.2128043116       10.3394549294  MEMB      55              0.0000000000
      6322        55  SLPC      C29           -33.7451157688        2.0308567585       10.2930338124  MEMB      55              0.0000000000
      6323        55  SLPC      H9R           -34.6398689809        2.3576528185       10.9799424920  MEMB      55              0.0000000000
      6324        55  SLPC      C210          -34.1643005387        2.2965284157        8.9107153099  MEMB      55              0.0000000000
      6325        55  SLPC      H10R          -34.7466818467        2.9791091038        8.5810392153  MEMB      55              0.0000000000
      6326        55  SLPC      C211          -33.7204424387        1.5911098056        7.5902869150  MEMB      55              0.0000000000
      6327        55  SLPC      H11R          -32.7900175437        1.0443260589        7.7219777976  MEMB      55              0.0000000000
      6328        55  SLPC      H11S          -33.1667144757        2.0704113094        6.7918212025  MEMB      55              0.0000000000
      6329        55  SLPC      C212          -35.2988374478        0.8934365001        7.0818088408  MEMB      55              0.0000000000
      6330        55  SLPC      H12R          -35.5907683332       -0.1725262240        7.2297686143  MEMB      55              0.0000000000
      6331        55  SLPC      C213          -35.9346179007        0.9870659995        5.9093261906  MEMB      55              0.0000000000
      6332        55  SLPC      H13R          -36.4248083169        0.0414137475        5.5047160728  MEMB      55              0.0000000000
      6333        55  SLPC      C214          -35.2718488048        1.8731318721        4.9159354882  MEMB      55              0.0000000000
      6334        55  SLPC      H14R          -34.9491486074        2.6913807228        5.5957015429  MEMB      55              0.0000000000
      6335        55  SLPC      H14S          -36.1396179761        2.1877890898        4.3386177934  MEMB      55              0.0000000000
      6336        55  SLPC      C215          -33.9648438802        1.7803568408        4.0176024360  MEMB      55              0.0000000000
      6337        55  SLPC      H15R          -33.0223314751        1.3458905449        4.3783253746  MEMB      55              0.0000000000
      6338        55  SLPC      H15S          -33.6669398057        2.8166714945        4.0181576978  MEMB      55              0.0000000000
      6339        55  SLPC      C216          -34.0560613032        1.4639204832        2.5441524679  MEMB      55              0.0000000000
      6340        55  SLPC      H16R          -33.0986982697        1.6068316964        1.9960286696  MEMB      55              0.0000000000
      6341        55  SLPC      H16S          -35.0535905408        1.7284836377        2.1220082404  MEMB      55              0.0000000000
      6342        55  SLPC      C217          -34.0380740076        0.1085326524        2.1887869755  MEMB      55              0.0000000000
      6343        55  SLPC      H17R          -35.0317100596       -0.1254137021        2.6974150759  MEMB      55              0.0000000000
      6344        55  SLPC      H17S          -33.0859219181       -0.5065991873        2.3456442511  MEMB      55              0.0000000000
      6345        55  SLPC      C218          -34.6160766786       -0.2642860529        0.9927859833  MEMB      55              0.0000000000
      6346        55  SLPC      H18R          -34.4827373548       -1.2048361808        1.3827702869  MEMB      55              0.0000000000
      6347        55  SLPC      H18S          -34.0508167553       -0.5572001383        0.1274490501  MEMB      55              0.0000000000
      6348        55  SLPC      H18T          -35.7140648856       -0.1181592283        0.9185705286  MEMB      55              0.0000000000
      6349        55  SLPC      C33           -34.8250496132        5.1743361694       13.0322258997  MEMB      55              0.0000000000
      6350        55  SLPC      H3X           -34.5734139212        6.1429755057       12.5711966069  MEMB      55              0.0000000000
      6351        55  SLPC      H3Y           -35.7583651329        4.8529186597       12.4892181166  MEMB      55              0.0000000000
      6352        55  SLPC      C34           -33.7277412027        4.1370626924       12.7939478591  MEMB      55              0.0000000000
      6353        55  SLPC      H4X           -33.8748976807        3.7303156722       11.8069566968  MEMB      55              0.0000000000
      6354        55  SLPC      H4Y           -33.7889338902        3.3069390009       13.5343382554  MEMB      55              0.0000000000
      6355        55  SLPC      C35           -32.3023455292        4.6661448842       12.7953850190  MEMB      55              0.0000000000
      6356        55  SLPC      H5X           -31.6323946417        3.7941906973       12.9835980690  MEMB      55              0.0000000000
      6357        55  SLPC      H5Y           -32.2114551012        5.3880926941       13.6323576308  MEMB      55              0.0000000000
      6358        55  SLPC      C36           -31.7898301772        5.2589903483       11.4838950169  MEMB      55              0.0000000000
      6359        55  SLPC      H6X           -32.1729366135        6.2892461428       11.3222009975  MEMB      55              0.0000000000
      6360        55  SLPC      H6Y           -32.0619306044        4.6466065875       10.5955049493  MEMB      55              0.0000000000
      6361        55  SLPC      C37           -30.2819299897        5.2875359809       11.5467083665  MEMB      55              0.0000000000
      6362        55  SLPC      H7X           -29.8369244375        4.2637243163       11.5502325525  MEMB      55              0.0000000000
      6363        55  SLPC      H7Y           -29.9499295420        5.7771056022       12.4955742476  MEMB      55              0.0000000000
      6364        55  SLPC      C38           -29.6404567832        6.0669250692       10.4265302303  MEMB      55              0.0000000000
      6365        55  SLPC      H8X           -28.6323411543        5.7987185976       10.7487351646  MEMB      55              0.0000000000
      6366        55  SLPC      H8Y           -29.8468655221        7.1580306357       10.4417293500  MEMB      55              0.0000000000
      6367        55  SLPC      C39           -29.8025672171        5.7059333812        8.9679302619  MEMB      55              0.0000000000
      6368        55  SLPC      H9X           -28.9471323830        6.1790285391        8.4123789650  MEMB      55              0.0000000000
      6369        55  SLPC      H9Y           -30.7386390403        6.2023864671        8.7058418921  MEMB      55              0.0000000000
      6370        55  SLPC      C310          -29.9262753097        4.2135487799        8.7166618741  MEMB      55              0.0000000000
      6371        55  SLPC      H10X          -30.7813940155        3.7446263068        9.2138015246  MEMB      55              0.0000000000
      6372        55  SLPC      H10Y          -29.0802138030        3.7977683930        9.2306601620  MEMB      55              0.0000000000
      6373        55  SLPC      C311          -30.0394473424        3.7194680126        7.2830781639  MEMB      55              0.0000000000
      6374        55  SLPC      H11X          -31.0332546751        3.8899058702        6.8579430828  MEMB      55              0.0000000000
      6375        55  SLPC      H11Y          -29.6474289303        2.6731574367        7.1745151503  MEMB      55              0.0000000000
      6376        55  SLPC      C312          -29.3446600831        4.5115285322        6.2734850780  MEMB      55              0.0000000000
      6377        55  SLPC      H12X          -28.5205686557        4.6897287996        7.0027276175  MEMB      55              0.0000000000
      6378        55  SLPC      H12Y          -29.4990158355        5.6075991399        6.2157894812  MEMB      55              0.0000000000
      6379        55  SLPC      C313          -29.2612296902        3.6360849969        4.9036418527  MEMB      55              0.0000000000
      6380        55  SLPC      H13X          -28.6430003790        2.7668506164        4.8896008635  MEMB      55              0.0000000000
      6381        55  SLPC      H13Y          -28.6258229562        3.8763107701        3.9916343038  MEMB      55              0.0000000000
      6382        55  SLPC      C314          -30.3943625225        3.8496581643        4.0273186532  MEMB      55              0.0000000000
      6383        55  SLPC      H14X          -31.2874291394        3.4537124863        4.4673829040  MEMB      55              0.0000000000
      6384        55  SLPC      H14Y          -30.2000457484        3.7500976456        2.9214321970  MEMB      55              0.0000000000
      6385        55  SLPC      C315          -30.7286093579        5.2417468866        3.9947740699  MEMB      55              0.0000000000
      6386        55  SLPC      H15X          -29.7149264004        5.5519107833        3.8288190601  MEMB      55              0.0000000000
      6387        55  SLPC      H15Y          -30.8851068427        5.9707683346        4.7908829168  MEMB      55              0.0000000000
      6388        55  SLPC      C316          -31.6544088441        5.3549975433        2.8499840985  MEMB      55              0.0000000000
      6389        55  SLPC      H16X          -31.3451141538        4.8409989995        1.8858591931  MEMB      55              0.0000000000
      6390        55  SLPC      H16Y          -31.7566651375        6.4295081922        2.7466815344  MEMB      55              0.0000000000
      6391        55  SLPC      C317          -32.9331496470        4.8061048136        3.0443176852  MEMB      55              0.0000000000
      6392        55  SLPC      H17X          -33.2571136232        5.1071526570        4.0107036472  MEMB      55              0.0000000000
      6393        55  SLPC      H17Y          -32.6163711803        3.7567322235        2.9362630037  MEMB      55              0.0000000000
      6394        55  SLPC      C318          -33.8877134544        5.1421204462        2.0110596486  MEMB      55              0.0000000000
      6395        55  SLPC      H18X          -33.8690863917        6.1537586296        1.5713572829  MEMB      55              0.0000000000
      6396        55  SLPC      H18Y          -34.9397713627        4.9441390359        2.2462968495  MEMB      55              0.0000000000
      6397        55  SLPC      H18Z          -33.4687620387        4.5114353454        1.2148301992  MEMB      55              0.0000000000
      6398        56  SOPE      N              19.3026269465       25.9582449425       22.5058089346  MEMB      56              0.0000000000
      6399        56  SOPE      HN1            19.1239301175       26.4104293678       23.4224553650  MEMB      56              0.0000000000
      6400        56  SOPE      HN2            20.3214785136       26.0713754377       22.2783123847  MEMB      56              0.0000000000
      6401        56  SOPE      HN3            18.7479195776       26.4569680639       21.7936890820  MEMB      56              0.0000000000
      6402        56  SOPE      C12            18.9009812572       24.5136935988       22.5861022399  MEMB      56              0.0000000000
      6403        56  SOPE      H12A           17.7962258142       24.4727726487       22.6668073989  MEMB      56              0.0000000000
      6404        56  SOPE      H12B           19.3217945249       24.1404950035       23.5188426598  MEMB      56              0.0000000000
      6405        56  SOPE      C11            19.3529908408       23.6140395362       21.4186263642  MEMB      56              0.0000000000
      6406        56  SOPE      H11A           18.8320645524       23.9318589281       20.5073588134  MEMB      56              0.0000000000
      6407        56  SOPE      H11B           19.0586242828       22.5751269715       21.7332339067  MEMB      56              0.0000000000
      6408        56  SOPE      P              21.5068355110       22.5404603736       20.3165109609  MEMB      56              0.0000000000
      6409        56  SOPE      O13            22.0116990125       21.6611594887       21.3928790480  MEMB      56              0.0000000000
      6410        56  SOPE      O14            22.5026063145       23.1640342792       19.4245895146  MEMB      56              0.0000000000
      6411        56  SOPE      O12            20.7216217421       23.7199230074       21.0868586857  MEMB      56              0.0000000000
      6412        56  SOPE      O11            20.4013456177       21.7597258306       19.4914601702  MEMB      56              0.0000000000
      6413        56  SOPE      C1             19.7644543316       22.1820176595       18.2904815686  MEMB      56              0.0000000000
      6414        56  SOPE      HA             19.9445875808       23.2585684622       18.0732630424  MEMB      56              0.0000000000
      6415        56  SOPE      HB             18.6713112112       22.0468976929       18.4272025431  MEMB      56              0.0000000000
      6416        56  SOPE      C2             20.2406131893       21.3812294511       17.0419207363  MEMB      56              0.0000000000
      6417        56  SOPE      HS             20.1726576893       20.2886624266       17.2604316673  MEMB      56              0.0000000000
      6418        56  SOPE      O21            21.5911411923       21.7856935780       16.7847175334  MEMB      56              0.0000000000
      6419        56  SOPE      C21            22.3051196812       20.9551691539       16.0772405727  MEMB      56              0.0000000000
      6420        56  SOPE      O22            21.8910852743       19.9793858548       15.4752789638  MEMB      56              0.0000000000
      6421        56  SOPE      C22            23.7375184541       21.4533348261       16.0271489543  MEMB      56              0.0000000000
      6422        56  SOPE      H2R            24.2496293253       21.0798509302       16.9409753896  MEMB      56              0.0000000000
      6423        56  SOPE      H2S            23.7702875680       22.5604164691       16.0298024186  MEMB      56              0.0000000000
      6424        56  SOPE      C3             19.3687097804       21.7138689692       15.8175779345  MEMB      56              0.0000000000
      6425        56  SOPE      HX             18.3060137085       21.5511738170       16.1011791595  MEMB      56              0.0000000000
      6426        56  SOPE      HY             19.6413210746       21.0167267404       14.9874505551  MEMB      56              0.0000000000
      6427        56  SOPE      O31            19.5795986388       23.1033517937       15.5141382209  MEMB      56              0.0000000000
      6428        56  SOPE      C31            19.7451924670       23.4165581315       14.2761824723  MEMB      56              0.0000000000
      6429        56  SOPE      O32            19.4709411016       22.7743017365       13.2894725218  MEMB      56              0.0000000000
      6430        56  SOPE      C32            20.3014074296       24.7759376941       14.1287432255  MEMB      56              0.0000000000
      6431        56  SOPE      H2X            21.1447041207       24.9136370667       14.8326549684  MEMB      56              0.0000000000
      6432        56  SOPE      H2Y            19.4903230193       25.5004125592       14.3276055889  MEMB      56              0.0000000000
      6433        56  SOPE      C23            24.4835667176       20.9046037798       14.8071267172  MEMB      56              0.0000000000
      6434        56  SOPE      H3R            24.2961260836       19.8287993169       14.6835662019  MEMB      56              0.0000000000
      6435        56  SOPE      H3S            25.5744009761       21.0029574972       15.0004827967  MEMB      56              0.0000000000
      6436        56  SOPE      C24            24.1020137148       21.5466722511       13.4824761912  MEMB      56              0.0000000000
      6437        56  SOPE      H4R            23.0061450815       21.4352905157       13.2984396253  MEMB      56              0.0000000000
      6438        56  SOPE      H4S            24.3341467757       22.6330923166       13.4698975153  MEMB      56              0.0000000000
      6439        56  SOPE      C25            24.8823770950       20.8295732712       12.3891400517  MEMB      56              0.0000000000
      6440        56  SOPE      H5R            25.9438653318       21.1618091910       12.4473890836  MEMB      56              0.0000000000
      6441        56  SOPE      H5S            24.8567190860       19.7259888638       12.5514736783  MEMB      56              0.0000000000
      6442        56  SOPE      C26            24.3010232218       21.1132193140       11.0270717018  MEMB      56              0.0000000000
      6443        56  SOPE      H6R            23.2236253017       20.8284085153       10.9743794678  MEMB      56              0.0000000000
      6444        56  SOPE      H6S            24.3806997303       22.1933590576       10.7916252119  MEMB      56              0.0000000000
      6445        56  SOPE      C27            24.9997084212       20.3314627941        9.9647193331  MEMB      56              0.0000000000
      6446        56  SOPE      H7R            26.1014295161       20.5114810149        9.9230113929  MEMB      56              0.0000000000
      6447        56  SOPE      H7S            24.9650313887       19.2460522096       10.2165720044  MEMB      56              0.0000000000
      6448        56  SOPE      C28            24.3972145791       20.7540403358        8.5861588916  MEMB      56              0.0000000000
      6449        56  SOPE      H8R            24.6404234014       21.7652072217        8.3278167727  MEMB      56              0.0000000000
      6450        56  SOPE      H8S            25.1776577151       20.1686501167        8.1014716075  MEMB      56              0.0000000000
      6451        56  SOPE      C29            22.9404551279       20.6450832357        8.1020482566  MEMB      56              0.0000000000
      6452        56  SOPE      H91            22.2961463159       20.5468640910        8.9837356557  MEMB      56              0.0000000000
      6453        56  SOPE      C210           22.3201291213       20.3624294433        6.8984303354  MEMB      56              0.0000000000
      6454        56  SOPE      H101           21.2981070362       19.9771676832        6.9994668056  MEMB      56              0.0000000000
      6455        56  SOPE      C211           22.8284099868       20.0294909160        5.5000895573  MEMB      56              0.0000000000
      6456        56  SOPE      H11R           22.9484856426       18.9196520923        5.3430615890  MEMB      56              0.0000000000
      6457        56  SOPE      H11S           23.8128722450       20.5152236917        5.3723985242  MEMB      56              0.0000000000
      6458        56  SOPE      C212           22.0645653486       20.5010250863        4.2928558490  MEMB      56              0.0000000000
      6459        56  SOPE      H12R           22.3740270303       21.5700844104        4.2111157310  MEMB      56              0.0000000000
      6460        56  SOPE      H12S           20.9940401034       20.3296779539        4.4509652159  MEMB      56              0.0000000000
      6461        56  SOPE      C213           22.4008605787       19.7623065640        3.0099332766  MEMB      56              0.0000000000
      6462        56  SOPE      H13R           22.2737166364       18.6616825047        3.0509012767  MEMB      56              0.0000000000
      6463        56  SOPE      H13S           23.4289710539       19.9750939236        2.9499000663  MEMB      56              0.0000000000
      6464        56  SOPE      C214           21.8082743070       20.3790852807        1.7613122523  MEMB      56              0.0000000000
      6465        56  SOPE      H14R           20.7225294517       20.2823611611        1.9209054877  MEMB      56              0.0000000000
      6466        56  SOPE      H14S           22.1394698485       19.7964372941        0.8667352843  MEMB      56              0.0000000000
      6467        56  SOPE      C215           22.1386346421       21.8508897122        1.5373334394  MEMB      56              0.0000000000
      6468        56  SOPE      H15R           23.1677094217       21.9703563726        1.2118908596  MEMB      56              0.0000000000
      6469        56  SOPE      H15S           21.9649333539       22.5063134245        2.4121831716  MEMB      56              0.0000000000
      6470        56  SOPE      C216           21.4990827711       22.3527683175        0.2935602066  MEMB      56              0.0000000000
      6471        56  SOPE      H16R           20.4032261749       22.3632456797        0.3448991412  MEMB      56              0.0000000000
      6472        56  SOPE      H16S           21.8538318259       21.7161034623       -0.5605113484  MEMB      56              0.0000000000
      6473        56  SOPE      C217           21.8372011297       23.7317687886       -0.0453660624  MEMB      56              0.0000000000
      6474        56  SOPE      H17R           22.8884244878       23.9976151524        0.1173670939  MEMB      56              0.0000000000
      6475        56  SOPE      H17S           21.2134129118       24.4939843242        0.4919244702  MEMB      56              0.0000000000
      6476        56  SOPE      C218           21.6715434887       23.7458145841       -1.5196726171  MEMB      56              0.0000000000
      6477        56  SOPE      H18R           20.6212694060       23.9231318756       -1.8139227203  MEMB      56              0.0000000000
      6478        56  SOPE      H18S           22.1654614689       23.0627746251       -2.2179955851  MEMB      56              0.0000000000
      6479        56  SOPE      H18T           22.3378293256       24.5787157718       -1.6409844784  MEMB      56              0.0000000000
      6480        56  SOPE      C33            20.6725944852       24.8266717757       12.6531145185  MEMB      56              0.0000000000
      6481        56  SOPE      H3X            19.7648545507       24.7989275583       12.0135503196  MEMB      56              0.0000000000
      6482        56  SOPE      H3Y            21.3336925964       23.9711251219       12.3570014310  MEMB      56              0.0000000000
      6483        56  SOPE      C34            21.3889855875       26.0792161108       12.3381198127  MEMB      56              0.0000000000
      6484        56  SOPE      H4X            22.2130092994       26.0266622192       13.0707584458  MEMB      56              0.0000000000
      6485        56  SOPE      H4Y            20.7630626120       26.9922806279       12.4861975486  MEMB      56              0.0000000000
      6486        56  SOPE      C35            21.9159714388       25.9759224143       10.9424557844  MEMB      56              0.0000000000
      6487        56  SOPE      H5X            22.0448938936       27.0025457942       10.5722102655  MEMB      56              0.0000000000
      6488        56  SOPE      H5Y            21.1432036471       25.7813650022       10.2056149323  MEMB      56              0.0000000000
      6489        56  SOPE      C36            23.0723312267       24.9455408265       10.8358429883  MEMB      56              0.0000000000
      6490        56  SOPE      H6X            22.7808708695       23.9036820711       10.9897377800  MEMB      56              0.0000000000
      6491        56  SOPE      H6Y            23.9075881343       25.1352657247       11.5480718625  MEMB      56              0.0000000000
      6492        56  SOPE      C37            23.6431933938       24.9116638459        9.4550766978  MEMB      56              0.0000000000
      6493        56  SOPE      H7X            24.7176905787       24.5859900034        9.4228230790  MEMB      56              0.0000000000
      6494        56  SOPE      H7Y            23.4473567546       25.9777906400        9.2555666914  MEMB      56              0.0000000000
      6495        56  SOPE      C38            22.8691593789       24.6677515131        8.2148086757  MEMB      56              0.0000000000
      6496        56  SOPE      H8X            22.1412861792       25.4899780083        7.9928815600  MEMB      56              0.0000000000
      6497        56  SOPE      H8Y            22.4524969055       23.6754711361        8.4069124389  MEMB      56              0.0000000000
      6498        56  SOPE      C39            23.8192417286       24.5685176820        7.0597182614  MEMB      56              0.0000000000
      6499        56  SOPE      H9X            23.3362139398       23.8932522216        6.3571902083  MEMB      56              0.0000000000
      6500        56  SOPE      H9Y            24.6994375354       24.1158246193        7.5370553743  MEMB      56              0.0000000000
      6501        56  SOPE      C310           24.0780545604       25.8470637239        6.3503867873  MEMB      56              0.0000000000
      6502        56  SOPE      H10X           24.9265889257       26.2697775137        6.7850303862  MEMB      56              0.0000000000
      6503        56  SOPE      H10Y           23.2721938211       26.5706249249        6.1841739526  MEMB      56              0.0000000000
      6504        56  SOPE      C311           25.1086490686       26.0534312558        5.4034473026  MEMB      56              0.0000000000
      6505        56  SOPE      H11X           26.1265673371       25.5156539620        5.5744524554  MEMB      56              0.0000000000
      6506        56  SOPE      H11Y           25.2639682089       27.1757835549        5.1402586767  MEMB      56              0.0000000000
      6507        56  SOPE      C312           24.5241289541       25.7341184185        4.3764855997  MEMB      56              0.0000000000
      6508        56  SOPE      H12X           23.6088391573       25.2255117278        4.1654915494  MEMB      56              0.0000000000
      6509        56  SOPE      H12Y           25.3789865739       25.2175619058        4.0714619245  MEMB      56              0.0000000000
      6510        56  SOPE      C313           25.0887686042       26.0002430354        3.4310205997  MEMB      56              0.0000000000
      6511        56  SOPE      H13X           26.1680308110       25.5783471520        2.7475587427  MEMB      56              0.0000000000
      6512        56  SOPE      H13Y           26.0012424777       26.7587714041        3.5301026260  MEMB      56              0.0000000000
      6513        56  SOPE      C314           23.1859903370       26.3193818165        2.5011448859  MEMB      56              0.0000000000
      6514        56  SOPE      H14X           22.7710358071       27.1816614148        2.9807307215  MEMB      56              0.0000000000
      6515        56  SOPE      H14Y           22.4196043346       25.6258795992        2.8028722298  MEMB      56              0.0000000000
      6516        56  SOPE      C315           22.9480518236       26.6391563568        0.6082069086  MEMB      56              0.0000000000
      6517        56  SOPE      H15X           23.1004047821       25.8652927064       -0.1649291335  MEMB      56              0.0000000000
      6518        56  SOPE      H15Y           23.8464226612       26.8911607460       -0.1020107212  MEMB      56              0.0000000000
      6519        56  SOPE      C316           22.3332941671       28.0128487935        0.1385858032  MEMB      56              0.0000000000
      6520        56  SOPE      H16X           22.7320714211       29.0182858098        0.4199105612  MEMB      56              0.0000000000
      6521        56  SOPE      H16Y           21.3995594475       27.7519289146        0.5706269545  MEMB      56              0.0000000000
      6522        56  SOPE      C317           22.3221832746       28.5506966380       -1.2213367982  MEMB      56              0.0000000000
      6523        56  SOPE      H17X           21.4265195231       29.1169580413       -1.5505067049  MEMB      56              0.0000000000
      6524        56  SOPE      H17Y           22.5586481656       27.6507238592       -1.7286130194  MEMB      56              0.0000000000
      6525        56  SOPE      C318           23.3980075360       29.2261036367       -1.7312221045  MEMB      56              0.0000000000
      6526        56  SOPE      H18X           23.2176442406       29.0785001244       -2.8071956150  MEMB      56              0.0000000000
      6527        56  SOPE      H18Y           24.2184919617       28.5980298397       -1.4734441054  MEMB      56              0.0000000000
      6528        56  SOPE      H18Z           23.4976071771       30.1991150120       -1.2602853498  MEMB      56              0.0000000000
      6529        57  SAPC      N             -28.3641731677       -9.5468860264       20.9444605758  MEMB      57              0.0000000000
      6530        57  SAPC      C12           -29.3874364744       -8.4140281841       20.9352747561  MEMB      57              0.0000000000
      6531        57  SAPC      H12A          -28.9126497545       -7.5053210736       21.2835917243  MEMB      57              0.0000000000
      6532        57  SAPC      H12B          -30.1871325819       -8.6344648710       21.6409236098  MEMB      57              0.0000000000
      6533        57  SAPC      C13           -27.7095293787       -9.5898542280       22.2836103454  MEMB      57              0.0000000000
      6534        57  SAPC      H13A          -27.0980579754       -8.6899727948       22.3862990983  MEMB      57              0.0000000000
      6535        57  SAPC      H13B          -28.4342006780       -9.6271440173       23.0872279325  MEMB      57              0.0000000000
      6536        57  SAPC      H13C          -27.0411579243      -10.4348184089       22.3523671606  MEMB      57              0.0000000000
      6537        57  SAPC      C14           -28.9976931708      -10.8635947606       20.6374896673  MEMB      57              0.0000000000
      6538        57  SAPC      H14A          -28.2707094419      -11.6701286435       20.5997201126  MEMB      57              0.0000000000
      6539        57  SAPC      H14B          -29.7587475543      -11.1212887264       21.3578477086  MEMB      57              0.0000000000
      6540        57  SAPC      H14C          -29.5037408677      -10.8215324046       19.6713521685  MEMB      57              0.0000000000
      6541        57  SAPC      C15           -27.2811392881       -9.2963837066       19.9264810265  MEMB      57              0.0000000000
      6542        57  SAPC      H15A          -27.6921032535       -8.9268940145       18.9929489495  MEMB      57              0.0000000000
      6543        57  SAPC      H15B          -26.5461516596       -8.5723662564       20.2730841482  MEMB      57              0.0000000000
      6544        57  SAPC      H15C          -26.7457727529      -10.2006452235       19.6781055312  MEMB      57              0.0000000000
      6545        57  SAPC      C11           -30.0284127762       -8.0410383519       19.5769692491  MEMB      57              0.0000000000
      6546        57  SAPC      H11A          -29.2194792583       -7.8358075260       18.8477696998  MEMB      57              0.0000000000
      6547        57  SAPC      H11B          -30.5812508518       -7.0731478337       19.6657028316  MEMB      57              0.0000000000
      6548        57  SAPC      P             -32.4206885392       -9.0473909556       19.2377807794  MEMB      57              0.0000000000
      6549        57  SAPC      O13           -32.8901894524      -10.4431885551       19.1759306946  MEMB      57              0.0000000000
      6550        57  SAPC      O14           -32.7868562339       -8.2707511440       20.4175337437  MEMB      57              0.0000000000
      6551        57  SAPC      O12           -30.8440018064       -9.0962497861       19.0802050487  MEMB      57              0.0000000000
      6552        57  SAPC      O11           -32.9101828820       -8.2865595003       17.9725219601  MEMB      57              0.0000000000
      6553        57  SAPC      C1            -33.1786944118       -9.1411559305       16.8876490518  MEMB      57              0.0000000000
      6554        57  SAPC      HA            -33.4126165311      -10.2126416681       17.0526481671  MEMB      57              0.0000000000
      6555        57  SAPC      HB            -34.2500314362       -9.0168363691       16.7605242704  MEMB      57              0.0000000000
      6556        57  SAPC      C2            -32.0762163705       -8.8790492698       15.8046022129  MEMB      57              0.0000000000
      6557        57  SAPC      HS            -32.5102748192       -9.1995983274       14.8212575240  MEMB      57              0.0000000000
      6558        57  SAPC      O21           -31.0135218029       -9.7192305260       16.1537868625  MEMB      57              0.0000000000
      6559        57  SAPC      C21           -31.2478195679      -10.9910698075       16.0769655391  MEMB      57              0.0000000000
      6560        57  SAPC      O22           -32.1095209490      -11.5399039666       15.4045101494  MEMB      57              0.0000000000
      6561        57  SAPC      C22           -30.2149040213      -11.6900395875       16.9277947136  MEMB      57              0.0000000000
      6562        57  SAPC      H2R           -29.6739207664      -10.9662940799       17.5722118321  MEMB      57              0.0000000000
      6563        57  SAPC      H2S           -30.7409874973      -12.4497841600       17.5211277394  MEMB      57              0.0000000000
      6564        57  SAPC      C3            -31.4206379084       -7.4142927900       15.6994378738  MEMB      57              0.0000000000
      6565        57  SAPC      HX            -31.1307862785       -7.0718771817       16.7010069572  MEMB      57              0.0000000000
      6566        57  SAPC      HY            -31.9848552851       -6.5118654401       15.5772927625  MEMB      57              0.0000000000
      6567        57  SAPC      O31           -30.4322614871       -7.2454026208       14.6749650866  MEMB      57              0.0000000000
      6568        57  SAPC      C31           -30.7012791070       -6.7498040794       13.4650986182  MEMB      57              0.0000000000
      6569        57  SAPC      O32           -31.7381140194       -6.5178573681       12.9294544949  MEMB      57              0.0000000000
      6570        57  SAPC      C32           -29.4692944724       -6.4015395407       12.7799085837  MEMB      57              0.0000000000
      6571        57  SAPC      H2X           -29.0481573842       -7.3935191077       12.5283109401  MEMB      57              0.0000000000
      6572        57  SAPC      H2Y           -28.8523375788       -5.8677754029       13.5263136121  MEMB      57              0.0000000000
      6573        57  SAPC      C23           -29.2446345073      -12.4097717899       16.0402280047  MEMB      57              0.0000000000
      6574        57  SAPC      H3R           -29.7832097861      -12.8364902606       15.1895123194  MEMB      57              0.0000000000
      6575        57  SAPC      H3S           -28.7492523077      -13.2159054668       16.6040580379  MEMB      57              0.0000000000
      6576        57  SAPC      C24           -28.2342631812      -11.4797816961       15.4742297009  MEMB      57              0.0000000000
      6577        57  SAPC      H4R           -27.6008640884      -12.0624993625       14.8275337662  MEMB      57              0.0000000000
      6578        57  SAPC      H4S           -27.5947592105      -11.0937491639       16.3025767374  MEMB      57              0.0000000000
      6579        57  SAPC      C25           -28.7594072467      -10.3899518600       14.5941829516  MEMB      57              0.0000000000
      6580        57  SAPC      H5R           -28.7465732901       -9.4265131308       15.0654196346  MEMB      57              0.0000000000
      6581        57  SAPC      C26           -29.0572528695      -10.3690749163       13.3070959368  MEMB      57              0.0000000000
      6582        57  SAPC      H6R           -28.9826560112       -9.4502160403       12.7304092194  MEMB      57              0.0000000000
      6583        57  SAPC      C27           -28.9517557782      -11.5011608976       12.4277392466  MEMB      57              0.0000000000
      6584        57  SAPC      H7R           -27.9758365044      -11.8732752775       12.6511635147  MEMB      57              0.0000000000
      6585        57  SAPC      H7S           -28.9370567542      -11.2471451897       11.3441929832  MEMB      57              0.0000000000
      6586        57  SAPC      C28           -30.0953481800      -12.3837846658       12.7546909538  MEMB      57              0.0000000000
      6587        57  SAPC      H8R           -29.9336255719      -13.3706963586       13.1663396904  MEMB      57              0.0000000000
      6588        57  SAPC      C29           -31.2626532117      -12.1427852698       12.2688707144  MEMB      57              0.0000000000
      6589        57  SAPC      H9R           -32.0318849826      -12.9084658592       12.3910690673  MEMB      57              0.0000000000
      6590        57  SAPC      C210          -31.4439488423      -10.9548737272       11.4010837875  MEMB      57              0.0000000000
      6591        57  SAPC      H10R          -31.5748876920      -11.1919452467       10.3258070610  MEMB      57              0.0000000000
      6592        57  SAPC      H10S          -30.7555339842      -10.0810874885       11.5132472363  MEMB      57              0.0000000000
      6593        57  SAPC      C211          -32.6430304206      -10.4912285956       12.0467761363  MEMB      57              0.0000000000
      6594        57  SAPC      H11R          -33.2596761531      -11.0465740211       12.7805158952  MEMB      57              0.0000000000
      6595        57  SAPC      C212          -33.1438570737       -9.4405293379       11.5464950435  MEMB      57              0.0000000000
      6596        57  SAPC      H12R          -34.1581757566       -9.6283838916       11.6604722658  MEMB      57              0.0000000000
      6597        57  SAPC      C213          -32.7727354395       -8.5588581780       10.4217843379  MEMB      57              0.0000000000
      6598        57  SAPC      H13R          -31.8436610731       -8.6109916540        9.8983798156  MEMB      57              0.0000000000
      6599        57  SAPC      H13S          -32.9395010275       -7.5296109084       10.7245354517  MEMB      57              0.0000000000
      6600        57  SAPC      C214          -33.6527956612       -9.1685049390        9.4725529818  MEMB      57              0.0000000000
      6601        57  SAPC      H14R          -34.6192029284       -8.6258991544        9.5575820832  MEMB      57              0.0000000000
      6602        57  SAPC      C215          -33.3840068473       -9.8078543441        8.2998636569  MEMB      57              0.0000000000
      6603        57  SAPC      H15R          -33.9165968627       -9.7099214083        7.3701816619  MEMB      57              0.0000000000
      6604        57  SAPC      C216          -32.3996519078      -10.2276787500        7.4430939337  MEMB      57              0.0000000000
      6605        57  SAPC      H16R          -32.9569688541      -11.1370963638        7.0517416333  MEMB      57              0.0000000000
      6606        57  SAPC      H16S          -31.8054109188      -10.1844660663        8.3352535397  MEMB      57              0.0000000000
      6607        57  SAPC      C217          -32.1263485339       -9.0751276647        6.4188145880  MEMB      57              0.0000000000
      6608        57  SAPC      H17R          -31.2020866193       -9.4101012369        5.9286331031  MEMB      57              0.0000000000
      6609        57  SAPC      H17S          -32.0388739230       -8.0462948776        6.8477991667  MEMB      57              0.0000000000
      6610        57  SAPC      C218          -32.9602354677       -8.8681579485        5.1772385207  MEMB      57              0.0000000000
      6611        57  SAPC      H18R          -33.7288456313       -8.0890643604        5.2347662170  MEMB      57              0.0000000000
      6612        57  SAPC      H18S          -33.3812328033       -9.8228514374        4.8335662748  MEMB      57              0.0000000000
      6613        57  SAPC      C219          -32.1851374851       -8.2797158226        4.0550107263  MEMB      57              0.0000000000
      6614        57  SAPC      H19R          -31.3790434108       -8.8985324760        3.8091390818  MEMB      57              0.0000000000
      6615        57  SAPC      H19S          -31.9461413254       -7.2283511935        4.3046050026  MEMB      57              0.0000000000
      6616        57  SAPC      C220          -32.8149320328       -8.6544304638        2.7974166495  MEMB      57              0.0000000000
      6617        57  SAPC      H20R          -33.2791912288       -7.7934129617        2.4453595873  MEMB      57              0.0000000000
      6618        57  SAPC      H20S          -33.6525493667       -9.2542337650        3.0981063248  MEMB      57              0.0000000000
      6619        57  SAPC      H20T          -32.5303906481       -8.5848847252        1.7765219672  MEMB      57              0.0000000000
      6620        57  SAPC      C33           -29.8030132003       -5.5479231098       11.5319511625  MEMB      57              0.0000000000
      6621        57  SAPC      H3X           -30.2247620561       -4.5480504332       11.7512095070  MEMB      57              0.0000000000
      6622        57  SAPC      H3Y           -30.4625519551       -6.0640852362       10.7915859241  MEMB      57              0.0000000000
      6623        57  SAPC      C34           -28.5567081515       -5.3245390794       10.7865842870  MEMB      57              0.0000000000
      6624        57  SAPC      H4X           -27.8152387411       -4.9006068887       11.5061578748  MEMB      57              0.0000000000
      6625        57  SAPC      H4Y           -28.6097271869       -4.5833983971        9.9700263348  MEMB      57              0.0000000000
      6626        57  SAPC      C35           -28.1871266084       -6.6535938886       10.1885342721  MEMB      57              0.0000000000
      6627        57  SAPC      H5X           -27.7668079560       -7.3760660876       10.9436849172  MEMB      57              0.0000000000
      6628        57  SAPC      H5Y           -27.5780333678       -6.3475222583        9.3146866577  MEMB      57              0.0000000000
      6629        57  SAPC      C36           -28.9752349282       -7.5852531427        9.3999528245  MEMB      57              0.0000000000
      6630        57  SAPC      H6X           -29.5075593598       -6.9596643575        8.6549471360  MEMB      57              0.0000000000
      6631        57  SAPC      H6Y           -29.6239260235       -8.0751791160       10.1543429228  MEMB      57              0.0000000000
      6632        57  SAPC      C37           -27.9869450457       -8.5792110311        8.7559283866  MEMB      57              0.0000000000
      6633        57  SAPC      H7X           -27.3864662127       -9.1551398749        9.5023607463  MEMB      57              0.0000000000
      6634        57  SAPC      H7Y           -27.2383154792       -8.1076632383        8.0745772145  MEMB      57              0.0000000000
      6635        57  SAPC      C38           -28.8734844993       -9.5032054582        7.9927803719  MEMB      57              0.0000000000
      6636        57  SAPC      H8X           -29.7452009103       -8.9227669553        7.6254659452  MEMB      57              0.0000000000
      6637        57  SAPC      H8Y           -29.2623765091      -10.2533389517        8.7193288197  MEMB      57              0.0000000000
      6638        57  SAPC      C39           -28.1987097012      -10.2061277806        6.8459192951  MEMB      57              0.0000000000
      6639        57  SAPC      H9X           -28.9813178677      -10.9634434282        6.6517349564  MEMB      57              0.0000000000
      6640        57  SAPC      H9Y           -27.2895811319      -10.7069355594        7.2127595390  MEMB      57              0.0000000000
      6641        57  SAPC      C310          -27.8201249946       -9.3590636620        5.6104328506  MEMB      57              0.0000000000
      6642        57  SAPC      H10X          -27.0137578959       -8.6785151817        5.9598712312  MEMB      57              0.0000000000
      6643        57  SAPC      H10Y          -28.7230699935       -8.8245687857        5.2755808548  MEMB      57              0.0000000000
      6644        57  SAPC      C311          -27.1389225639      -10.0672028262        4.4313920759  MEMB      57              0.0000000000
      6645        57  SAPC      H11X          -27.5164870276      -10.8810354216        3.8432242131  MEMB      57              0.0000000000
      6646        57  SAPC      H11Y          -26.3963510903      -10.6479215139        4.9196939833  MEMB      57              0.0000000000
      6647        57  SAPC      C312          -26.8965984764       -9.3313753746        3.1524697547  MEMB      57              0.0000000000
      6648        57  SAPC      H12X          -26.4520407366      -10.0346564180        2.3874460797  MEMB      57              0.0000000000
      6649        57  SAPC      H12Y          -26.3197161902       -8.4444876074        3.3275667522  MEMB      57              0.0000000000
      6650        57  SAPC      C313          -28.1238893357       -8.8400849355        2.5215382703  MEMB      57              0.0000000000
      6651        57  SAPC      H13X          -28.9060159162       -8.3836018778        3.1644807413  MEMB      57              0.0000000000
      6652        57  SAPC      H13Y          -28.4658141249       -9.6769941026        1.9710706252  MEMB      57              0.0000000000
      6653        57  SAPC      C314          -27.9381922160       -8.2524330205        1.2090945497  MEMB      57              0.0000000000
      6654        57  SAPC      H14X          -27.9646531192       -8.9556010587        0.3509635055  MEMB      57              0.0000000000
      6655        57  SAPC      H14Y          -26.9213837629       -7.8646955715        1.2764759079  MEMB      57              0.0000000000
      6656        57  SAPC      C315          -28.9841248148       -7.2181280959        1.1018599862  MEMB      57              0.0000000000
      6657        57  SAPC      H15X          -29.9692207600       -7.6209277793        1.4113240889  MEMB      57              0.0000000000
      6658        57  SAPC      H15Y          -29.3514148591       -6.9627400494        0.1139664427  MEMB      57              0.0000000000
      6659        57  SAPC      C316          -28.2583316789       -5.9903058442        1.6831475647  MEMB      57              0.0000000000
      6660        57  SAPC      H16X          -27.4835859675       -5.5389181052        1.0324072875  MEMB      57              0.0000000000
      6661        57  SAPC      H16Y          -27.9647923158       -6.1870386217        2.7317133868  MEMB      57              0.0000000000
      6662        57  SAPC      C317          -29.2198706098       -4.9426078483        1.6535805339  MEMB      57              0.0000000000
      6663        57  SAPC      H17X          -29.8173565679       -5.5537738668        2.3816857554  MEMB      57              0.0000000000
      6664        57  SAPC      H17Y          -29.4923932236       -4.9663071278        0.5725168329  MEMB      57              0.0000000000
      6665        57  SAPC      C318          -29.2419513065       -3.5660003386        2.2419487566  MEMB      57              0.0000000000
      6666        57  SAPC      H18X          -28.9340488071       -3.6636529154        3.2932226658  MEMB      57              0.0000000000
      6667        57  SAPC      H18Y          -30.2660878030       -3.1142745609        2.2396385624  MEMB      57              0.0000000000
      6668        57  SAPC      H18Z          -28.6241715272       -2.9391893444        1.5945236709  MEMB      57              0.0000000000
      6669        58  OSM       N             -22.4195230206      -21.2310551307       21.3392167421  MEMB      58              0.0000000000
      6670        58  OSM       C15           -22.4811774175      -20.2125998557       22.4177315358  MEMB      58              0.0000000000
      6671        58  OSM       H15A          -23.2352534140      -20.4949763485       23.1429107570  MEMB      58              0.0000000000
      6672        58  OSM       H15B          -22.7315110434      -19.2374055423       22.0205739017  MEMB      58              0.0000000000
      6673        58  OSM       H15C          -21.5299236025      -20.1664401231       22.9181815511  MEMB      58              0.0000000000
      6674        58  OSM       C14           -23.7242162625      -21.2391907146       20.6036028275  MEMB      58              0.0000000000
      6675        58  OSM       H14A          -23.9259440368      -20.2829830321       20.1355718075  MEMB      58              0.0000000000
      6676        58  OSM       H14B          -24.5618602847      -21.4933293711       21.2583974074  MEMB      58              0.0000000000
      6677        58  OSM       H14C          -23.7029359881      -21.9799601589       19.8094917353  MEMB      58              0.0000000000
      6678        58  OSM       C13           -21.3159367376      -20.8272371963       20.4057001452  MEMB      58              0.0000000000
      6679        58  OSM       H13A          -20.3267816654      -20.9047253218       20.8505870360  MEMB      58              0.0000000000
      6680        58  OSM       H13B          -21.4573508487      -19.8251099756       20.0314070126  MEMB      58              0.0000000000
      6681        58  OSM       H13C          -21.2358365655      -21.4964184402       19.5443899269  MEMB      58              0.0000000000
      6682        58  OSM       C12           -22.1424340157      -22.6146592939       21.9272805609  MEMB      58              0.0000000000
      6683        58  OSM       H12A          -22.9305482430      -22.8424829707       22.6420329416  MEMB      58              0.0000000000
      6684        58  OSM       H12B          -21.2094587795      -22.6300906596       22.4847249315  MEMB      58              0.0000000000
      6685        58  OSM       C11           -21.9886984461      -23.8255438475       20.9738298964  MEMB      58              0.0000000000
      6686        58  OSM       H11A          -22.8271107484      -23.8813596139       20.2569800582  MEMB      58              0.0000000000
      6687        58  OSM       H11B          -22.0761912142      -24.7568224106       21.5777358060  MEMB      58              0.0000000000
      6688        58  OSM       P             -19.5447371469      -24.7104192538       20.8626984315  MEMB      58              0.0000000000
      6689        58  OSM       O13           -18.7451523238      -23.8911718180       21.8111301713  MEMB      58              0.0000000000
      6690        58  OSM       O14           -20.0656608804      -26.0372641613       21.2138740310  MEMB      58              0.0000000000
      6691        58  OSM       O11           -18.6677847028      -24.9971530297       19.6091824632  MEMB      58              0.0000000000
      6692        58  OSM       O12           -20.7393419487      -23.7865439074       20.2916941446  MEMB      58              0.0000000000
      6693        58  OSM       C1S           -18.4225661068      -23.8219441065       18.9451764729  MEMB      58              0.0000000000
      6694        58  OSM       H1S           -17.3089342488      -23.7287231265       18.9374742309  MEMB      58              0.0000000000
      6695        58  OSM       H1T           -18.9152064230      -22.8521886733       19.3156497416  MEMB      58              0.0000000000
      6696        58  OSM       NF            -20.1651931099      -23.6191966680       17.2333481844  MEMB      58              0.0000000000
      6697        58  OSM       HNF           -20.6172414761      -24.3894028731       16.8528531106  MEMB      58              0.0000000000
      6698        58  OSM       C2S           -18.7497573540      -23.7847701324       17.5086699971  MEMB      58              0.0000000000
      6699        58  OSM       H2S           -18.4944978857      -22.8854242888       17.4183867370  MEMB      58              0.0000000000
      6700        58  OSM       C3S           -17.9901316302      -25.0163126111       16.8360916547  MEMB      58              0.0000000000
      6701        58  OSM       H3S           -18.2666205078      -25.9323631389       17.3452458743  MEMB      58              0.0000000000
      6702        58  OSM       O3            -16.5396458200      -24.8794440565       16.8777588215  MEMB      58              0.0000000000
      6703        58  OSM       HO3           -16.3307495599      -23.9693677429       17.1254711438  MEMB      58              0.0000000000
      6704        58  OSM       C4S           -18.3124202667      -25.0483169903       15.3682926058  MEMB      58              0.0000000000
      6705        58  OSM       H4S           -17.7061147247      -24.4899452245       14.6336540296  MEMB      58              0.0000000000
      6706        58  OSM       C5S           -19.3252691776      -25.7073750740       14.8517757172  MEMB      58              0.0000000000
      6707        58  OSM       H5S           -19.8288171526      -26.4278119239       15.4996764139  MEMB      58              0.0000000000
      6708        58  OSM       C6S           -19.6564198296      -25.6875311675       13.3983123722  MEMB      58              0.0000000000
      6709        58  OSM       H6S           -19.7372556390      -24.6830623618       12.9302559785  MEMB      58              0.0000000000
      6710        58  OSM       H6T           -20.6956500296      -26.0852957527       13.3066058638  MEMB      58              0.0000000000
      6711        58  OSM       C7S           -18.6024306449      -26.3779180516       12.5498551420  MEMB      58              0.0000000000
      6712        58  OSM       H7S           -18.4622456062      -27.3867960818       12.9626865056  MEMB      58              0.0000000000
      6713        58  OSM       H7T           -17.5603198473      -26.0754310900       12.6349934745  MEMB      58              0.0000000000
      6714        58  OSM       C8S           -19.1169291130      -26.3777981889       11.1085785622  MEMB      58              0.0000000000
      6715        58  OSM       H8S           -19.5859502951      -25.4865077992       10.6913580957  MEMB      58              0.0000000000
      6716        58  OSM       H8T           -20.0165135098      -26.9674793958       11.3592485050  MEMB      58              0.0000000000
      6717        58  OSM       C9S           -17.9960983348      -26.8549560932       10.1525197765  MEMB      58              0.0000000000
      6718        58  OSM       H9S           -17.7057289571      -27.8716000593       10.2220897629  MEMB      58              0.0000000000
      6719        58  OSM       H9T           -17.0345248295      -26.6287939843       10.5991306862  MEMB      58              0.0000000000
      6720        58  OSM       C10S          -18.0769584030      -26.8382601353        8.6349478443  MEMB      58              0.0000000000
      6721        58  OSM       H10S          -18.8218637580      -27.3827434606        8.1555355421  MEMB      58              0.0000000000
      6722        58  OSM       H10T          -17.1765936511      -27.3161662990        8.1617663276  MEMB      58              0.0000000000
      6723        58  OSM       C11S          -18.6769772365      -25.7265456898        7.9544353816  MEMB      58              0.0000000000
      6724        58  OSM       H11S          -17.7432035476      -25.5150027919        8.3713619287  MEMB      58              0.0000000000
      6725        58  OSM       H11T          -19.5532789589      -25.3310934849        8.4837833425  MEMB      58              0.0000000000
      6726        58  OSM       C12S          -18.7929274013      -25.9767058399        6.4697238604  MEMB      58              0.0000000000
      6727        58  OSM       H12S          -19.7022051902      -26.5552595430        6.2406405199  MEMB      58              0.0000000000
      6728        58  OSM       H12T          -17.8587072057      -26.3993497123        5.9912667373  MEMB      58              0.0000000000
      6729        58  OSM       C13S          -18.8389118790      -24.7057533385        5.7927315683  MEMB      58              0.0000000000
      6730        58  OSM       H13S          -17.7487294916      -24.5558727695        5.9633370485  MEMB      58              0.0000000000
      6731        58  OSM       H13T          -19.3951035612      -23.9808031439        6.4101497505  MEMB      58              0.0000000000
      6732        58  OSM       C14S          -19.2377237971      -24.7298076479        4.3095077002  MEMB      58              0.0000000000
      6733        58  OSM       H14S          -20.2675162261      -25.0794073404        4.2804967247  MEMB      58              0.0000000000
      6734        58  OSM       H14T          -18.5979969470      -25.4320492823        3.7546545961  MEMB      58              0.0000000000
      6735        58  OSM       C15S          -19.3424485860      -23.3998767606        3.5490226096  MEMB      58              0.0000000000
      6736        58  OSM       H15S          -18.4091425810      -23.0758757224        3.1595100989  MEMB      58              0.0000000000
      6737        58  OSM       H15T          -19.6025187581      -22.5440327373        4.1821939764  MEMB      58              0.0000000000
      6738        58  OSM       C16S          -19.4336549728      -23.3662098620        2.0565844885  MEMB      58              0.0000000000
      6739        58  OSM       H16S          -20.4747179563      -23.6021494372        1.8718290547  MEMB      58              0.0000000000
      6740        58  OSM       H16T          -18.7250368719      -24.0897742182        1.5413829061  MEMB      58              0.0000000000
      6741        58  OSM       C17S          -19.2050264538      -21.9436780661        1.5182819232  MEMB      58              0.0000000000
      6742        58  OSM       H17S          -19.8383462921      -21.1253537883        1.8509614363  MEMB      58              0.0000000000
      6743        58  OSM       H17T          -19.5517950909      -22.2236298957        0.5488749115  MEMB      58              0.0000000000
      6744        58  OSM       C18S          -17.8280316713      -21.4161485309        1.4126498932  MEMB      58              0.0000000000
      6745        58  OSM       H18S          -17.3172773835      -21.2166381311        2.3539837075  MEMB      58              0.0000000000
      6746        58  OSM       H18T          -17.6916284109      -20.4699269269        0.8546881632  MEMB      58              0.0000000000
      6747        58  OSM       H18U          -17.3183367177      -22.2933663467        0.9279156525  MEMB      58              0.0000000000
      6748        58  OSM       C1F           -20.8090760430      -22.3780826720       17.3729053875  MEMB      58              0.0000000000
      6749        58  OSM       OF            -20.2819872976      -21.2976214672       17.6015381740  MEMB      58              0.0000000000
      6750        58  OSM       C2F           -22.2639462721      -22.2622080568       17.2171614743  MEMB      58              0.0000000000
      6751        58  OSM       H2F           -22.5160875124      -21.1964482925       16.9835262683  MEMB      58              0.0000000000
      6752        58  OSM       H2G           -22.7148098131      -22.4322648120       18.2140917757  MEMB      58              0.0000000000
      6753        58  OSM       C3F           -22.7712370043      -23.3235315052       16.2411689121  MEMB      58              0.0000000000
      6754        58  OSM       H3F           -23.8667878749      -23.2479440279       16.1582955091  MEMB      58              0.0000000000
      6755        58  OSM       H3G           -22.5478020622      -24.3199597724       16.6529479185  MEMB      58              0.0000000000
      6756        58  OSM       C4F           -22.2106336943      -23.3737310492       14.8254178478  MEMB      58              0.0000000000
      6757        58  OSM       H4F           -22.6678707279      -24.2762190784       14.3452991807  MEMB      58              0.0000000000
      6758        58  OSM       H4G           -21.1200650010      -23.3285825231       14.7074322781  MEMB      58              0.0000000000
      6759        58  OSM       C5F           -22.6604058729      -22.2719313143       13.9632617101  MEMB      58              0.0000000000
      6760        58  OSM       H5F           -22.3021411292      -21.2807504944       14.3271040917  MEMB      58              0.0000000000
      6761        58  OSM       H5G           -23.7049546679      -22.3220318092       14.2223792847  MEMB      58              0.0000000000
      6762        58  OSM       C6F           -22.5196049481      -22.6942508471       12.4923814850  MEMB      58              0.0000000000
      6763        58  OSM       H6F           -23.0763747193      -23.6348013958       12.2551956385  MEMB      58              0.0000000000
      6764        58  OSM       H6G           -21.5489806649      -22.4379810847       12.0378563617  MEMB      58              0.0000000000
      6765        58  OSM       C7F           -23.2983928363      -21.8418078943       11.6281714389  MEMB      58              0.0000000000
      6766        58  OSM       H7F           -22.8531070411      -20.8679290940       11.9324769767  MEMB      58              0.0000000000
      6767        58  OSM       H7G           -24.2358469359      -22.0708878595       12.1458155980  MEMB      58              0.0000000000
      6768        58  OSM       C8F           -23.6607038793      -22.0545843683       10.1596445892  MEMB      58              0.0000000000
      6769        58  OSM       H8F           -24.4713862258      -21.4483622029        9.7301388011  MEMB      58              0.0000000000
      6770        58  OSM       H8G           -24.3055257510      -22.9093982969        9.9053962158  MEMB      58              0.0000000000
      6771        58  OSM       C9F           -22.3988355993      -21.7574515009        9.4344917542  MEMB      58              0.0000000000
      6772        58  OSM       H9F           -22.0599547409      -20.7153542962        9.3217648364  MEMB      58              0.0000000000
      6773        58  OSM       C10F          -21.7026632214      -22.7040751302        8.9221716745  MEMB      58              0.0000000000
      6774        58  OSM       H10F          -20.8205826707      -22.4152687745        8.3472883801  MEMB      58              0.0000000000
      6775        58  OSM       C11F          -22.1746495344      -24.1082826764        9.0791270698  MEMB      58              0.0000000000
      6776        58  OSM       H11F          -23.0318040740      -24.2701970842        9.7751620429  MEMB      58              0.0000000000
      6777        58  OSM       H11G          -21.3178321441      -24.5893487601        9.5658592342  MEMB      58              0.0000000000
      6778        58  OSM       C12F          -22.5336534270      -24.8312717526        7.7910681930  MEMB      58              0.0000000000
      6779        58  OSM       H12F          -22.7269115675      -25.8884732467        8.0798057794  MEMB      58              0.0000000000
      6780        58  OSM       H12G          -21.6770881146      -24.7573403328        7.0964610294  MEMB      58              0.0000000000
      6781        58  OSM       C13F          -23.7451827253      -24.3596293839        7.0001929855  MEMB      58              0.0000000000
      6782        58  OSM       H13F          -24.6015436826      -24.1512037323        7.6797116168  MEMB      58              0.0000000000
      6783        58  OSM       H13G          -24.0147097105      -25.2027801464        6.3194623629  MEMB      58              0.0000000000
      6784        58  OSM       C14F          -23.4297382809      -23.1717664096        6.0858621957  MEMB      58              0.0000000000
      6785        58  OSM       H14F          -23.2557080170      -22.2254991922        6.6203810414  MEMB      58              0.0000000000
      6786        58  OSM       H14G          -24.3160546323      -22.9500442721        5.5651482025  MEMB      58              0.0000000000
      6787        58  OSM       C15F          -22.7297898204      -23.4647538936        4.7535657936  MEMB      58              0.0000000000
      6788        58  OSM       H15F          -23.3426636869      -24.2249628546        4.2011364694  MEMB      58              0.0000000000
      6789        58  OSM       H15G          -21.7500812884      -23.9127409870        4.9533739166  MEMB      58              0.0000000000
      6790        58  OSM       C16F          -22.5310607362      -22.2144580643        3.8628182734  MEMB      58              0.0000000000
      6791        58  OSM       H16F          -21.9798272987      -22.5637288149        2.9622466151  MEMB      58              0.0000000000
      6792        58  OSM       H16G          -21.9318224967      -21.4716679998        4.4180028900  MEMB      58              0.0000000000
      6793        58  OSM       C17F          -23.7954214867      -21.5577537536        3.3072320970  MEMB      58              0.0000000000
      6794        58  OSM       H17F          -24.3632190427      -20.9224784029        3.9977362838  MEMB      58              0.0000000000
      6795        58  OSM       H17G          -24.4100820365      -22.4490501753        3.2515430925  MEMB      58              0.0000000000
      6796        58  OSM       C18F          -23.6271242409      -20.8331316551        1.9596252031  MEMB      58              0.0000000000
      6797        58  OSM       H18F          -24.5150933821      -20.2068917299        1.7136823480  MEMB      58              0.0000000000
      6798        58  OSM       H18G          -23.4592169630      -21.5395675432        1.1174987155  MEMB      58              0.0000000000
      6799        58  OSM       H18H          -22.7480593778      -20.1587656576        2.0317064560  MEMB      58              0.0000000000
      6800        59  CHL1      C3            -18.1054829577       26.3844138582       17.3794382418  MEMB      59              0.0000000000
      6801        59  CHL1      H3            -17.1362538268       26.9361474767       17.4185224972  MEMB      59              0.0000000000
      6802        59  CHL1      O3            -18.3942628967       25.9332412988       18.6834172121  MEMB      59              0.0000000000
      6803        59  CHL1      H3'           -17.5907731462       25.4484387416       18.9513629127  MEMB      59              0.0000000000
      6804        59  CHL1      C4            -19.2290943915       27.3512562747       16.9544860693  MEMB      59              0.0000000000
      6805        59  CHL1      H4A           -20.2254762891       26.9244272791       17.1877004271  MEMB      59              0.0000000000
      6806        59  CHL1      H4B           -19.1279874736       28.2508695967       17.5977483785  MEMB      59              0.0000000000
      6807        59  CHL1      C5            -19.2201546172       27.7095026292       15.4944929209  MEMB      59              0.0000000000
      6808        59  CHL1      C6            -19.2132226540       28.9792063299       15.0703267122  MEMB      59              0.0000000000
      6809        59  CHL1      H6            -19.1830620511       29.7874047739       15.8142168022  MEMB      59              0.0000000000
      6810        59  CHL1      C7            -19.3033036807       29.3692067830       13.6181984240  MEMB      59              0.0000000000
      6811        59  CHL1      H7A           -20.0121033440       30.2029775166       13.4660729419  MEMB      59              0.0000000000
      6812        59  CHL1      H7B           -18.3420007215       29.8002322992       13.3323581441  MEMB      59              0.0000000000
      6813        59  CHL1      C8            -19.6641955747       28.1921727045       12.6541366920  MEMB      59              0.0000000000
      6814        59  CHL1      H8            -20.7551430811       28.0251199167       12.7387799020  MEMB      59              0.0000000000
      6815        59  CHL1      C14           -19.4229468429       28.5053954082       11.1688927249  MEMB      59              0.0000000000
      6816        59  CHL1      H14           -18.3468301801       28.6842442094       11.0383368705  MEMB      59              0.0000000000
      6817        59  CHL1      C15           -19.9867935038       29.7948237267       10.6029686320  MEMB      59              0.0000000000
      6818        59  CHL1      H15A          -21.0434076120       29.9299512238       10.8469164067  MEMB      59              0.0000000000
      6819        59  CHL1      H15B          -19.4405722009       30.5820664400       11.1098597702  MEMB      59              0.0000000000
      6820        59  CHL1      C16           -19.8463561782       29.6814520554        9.0820852392  MEMB      59              0.0000000000
      6821        59  CHL1      H16A          -20.7854294236       29.9921359636        8.6093227353  MEMB      59              0.0000000000
      6822        59  CHL1      H16B          -19.0341007720       30.2940188274        8.6678186644  MEMB      59              0.0000000000
      6823        59  CHL1      C17           -19.5040259060       28.1965921348        8.8312843292  MEMB      59              0.0000000000
      6824        59  CHL1      H17           -18.4666779041       28.2407383344        8.9998692685  MEMB      59              0.0000000000
      6825        59  CHL1      C13           -19.7148445138       27.4217590101       10.1452086477  MEMB      59              0.0000000000
      6826        59  CHL1      C18           -21.1326482116       26.9671213546       10.1036290402  MEMB      59              0.0000000000
      6827        59  CHL1      H18A          -21.7644776806       27.8021513423        9.7463289928  MEMB      59              0.0000000000
      6828        59  CHL1      H18B          -21.1536453229       26.1270443770        9.3754986171  MEMB      59              0.0000000000
      6829        59  CHL1      H18C          -21.4418068757       26.6067040777       11.0969423815  MEMB      59              0.0000000000
      6830        59  CHL1      C12           -18.7905123960       26.2659259317       10.5036069362  MEMB      59              0.0000000000
      6831        59  CHL1      H12A          -18.8968508574       25.4470639000        9.7773886450  MEMB      59              0.0000000000
      6832        59  CHL1      H12B          -17.8118054909       26.6539411454       10.3484168724  MEMB      59              0.0000000000
      6833        59  CHL1      C11           -18.9517609621       25.8031693846       11.9768356037  MEMB      59              0.0000000000
      6834        59  CHL1      H11A          -19.9530191847       25.3507413351       12.0108251392  MEMB      59              0.0000000000
      6835        59  CHL1      H11B          -18.1828237614       25.0371897512       12.2094519946  MEMB      59              0.0000000000
      6836        59  CHL1      C9            -18.9654010730       26.8995511930       13.0921583593  MEMB      59              0.0000000000
      6837        59  CHL1      H9            -17.9296245510       27.0670096627       13.3313169491  MEMB      59              0.0000000000
      6838        59  CHL1      C10           -19.1687068524       26.4945241687       14.5587957767  MEMB      59              0.0000000000
      6839        59  CHL1      C19           -20.4645826945       25.7102630086       14.6152710363  MEMB      59              0.0000000000
      6840        59  CHL1      H19A          -20.6857963421       25.4202336636       15.6591641614  MEMB      59              0.0000000000
      6841        59  CHL1      H19B          -21.2817568238       26.3321871276       14.1931463505  MEMB      59              0.0000000000
      6842        59  CHL1      H19C          -20.3486230823       24.7711906444       14.0403038463  MEMB      59              0.0000000000
      6843        59  CHL1      C1            -17.9597477266       25.6028381787       14.9897547581  MEMB      59              0.0000000000
      6844        59  CHL1      H1A           -17.9363246167       24.7240512248       14.3237758640  MEMB      59              0.0000000000
      6845        59  CHL1      H1B           -16.9953837151       26.1183199147       14.8512917859  MEMB      59              0.0000000000
      6846        59  CHL1      C2            -17.9502559110       25.1707072425       16.4504359168  MEMB      59              0.0000000000
      6847        59  CHL1      H2A           -16.9944781534       24.6308765753       16.6450713856  MEMB      59              0.0000000000
      6848        59  CHL1      H2B           -18.7792335543       24.4535364785       16.5982147257  MEMB      59              0.0000000000
      6849        59  CHL1      C20           -19.6784651855       27.6749134314        7.3804798392  MEMB      59              0.0000000000
      6850        59  CHL1      H20           -19.1357298137       28.3875848950        6.7043887934  MEMB      59              0.0000000000
      6851        59  CHL1      C21           -21.1466902081       27.7238857973        6.9307205304  MEMB      59              0.0000000000
      6852        59  CHL1      H21A          -21.5795766419       28.7266144533        7.0956568203  MEMB      59              0.0000000000
      6853        59  CHL1      H21B          -21.7372888239       26.9604993361        7.4734884647  MEMB      59              0.0000000000
      6854        59  CHL1      H21C          -21.2115261412       27.5107190913        5.8440478838  MEMB      59              0.0000000000
      6855        59  CHL1      C22           -19.0683768774       26.2964483439        7.0685584300  MEMB      59              0.0000000000
      6856        59  CHL1      H22A          -17.9969598668       26.2354885281        7.2824882872  MEMB      59              0.0000000000
      6857        59  CHL1      H22B          -19.5636457092       25.5155631508        7.6771582663  MEMB      59              0.0000000000
      6858        59  CHL1      C23           -19.0985158013       25.9081036453        5.5938669157  MEMB      59              0.0000000000
      6859        59  CHL1      H23A          -18.6892582378       24.8696603799        5.5620507358  MEMB      59              0.0000000000
      6860        59  CHL1      H23B          -20.1236193627       25.9149083575        5.1932353988  MEMB      59              0.0000000000
      6861        59  CHL1      C24           -18.2228481501       26.7278493656        4.6582349640  MEMB      59              0.0000000000
      6862        59  CHL1      H24A          -18.4390721039       27.8153730155        4.5946333575  MEMB      59              0.0000000000
      6863        59  CHL1      H24B          -17.2138140686       26.6165551171        5.0342531940  MEMB      59              0.0000000000
      6864        59  CHL1      C25           -18.1290885198       26.0170583290        3.3094219187  MEMB      59              0.0000000000
      6865        59  CHL1      H25           -17.8476627202       24.9511273394        3.4926470123  MEMB      59              0.0000000000
      6866        59  CHL1      C26           -19.3208247448       26.1693007763        2.4339761889  MEMB      59              0.0000000000
      6867        59  CHL1      H26A          -19.3990182704       27.2299954176        2.0957097125  MEMB      59              0.0000000000
      6868        59  CHL1      H26B          -19.1547776882       25.4950910813        1.5633253822  MEMB      59              0.0000000000
      6869        59  CHL1      H26C          -20.1920107541       25.8800692268        3.0378119237  MEMB      59              0.0000000000
      6870        59  CHL1      C27           -17.0480931417       26.5857327108        2.5066429609  MEMB      59              0.0000000000
      6871        59  CHL1      H27A          -16.8031489314       26.0360055765        1.5778973644  MEMB      59              0.0000000000
      6872        59  CHL1      H27B          -17.2552034286       27.6551342144        2.2839101708  MEMB      59              0.0000000000
      6873        59  CHL1      H27C          -16.2330260184       26.4462339136        3.2165210529  MEMB      59              0.0000000000
      6874        60  SLPC      N              -1.9390876682      -30.2790296084       18.6055664347  MEMB      60              0.0000000000
      6875        60  SLPC      C13            -1.1286981652      -31.5303540646       18.8032936326  MEMB      60              0.0000000000
      6876        60  SLPC      H13A           -0.4370762648      -31.4406535342       19.6169866482  MEMB      60              0.0000000000
      6877        60  SLPC      H13B           -1.7696701454      -32.4060923608       18.9367482654  MEMB      60              0.0000000000
      6878        60  SLPC      H13C           -0.5952560498      -31.7491338286       17.8766556679  MEMB      60              0.0000000000
      6879        60  SLPC      C14            -1.0490994544      -29.1556242523       18.2266233558  MEMB      60              0.0000000000
      6880        60  SLPC      H14A           -0.7572767294      -28.5757734053       19.0953124046  MEMB      60              0.0000000000
      6881        60  SLPC      H14B           -0.1496943536      -29.4717079281       17.7167173889  MEMB      60              0.0000000000
      6882        60  SLPC      H14C           -1.5545700324      -28.4772269005       17.5477203486  MEMB      60              0.0000000000
      6883        60  SLPC      C15            -2.5919606728      -29.8806399902       19.8978263683  MEMB      60              0.0000000000
      6884        60  SLPC      H15A           -3.2189530444      -28.9942329398       19.7804231258  MEMB      60              0.0000000000
      6885        60  SLPC      H15B           -3.2334674111      -30.6736888989       20.2664079871  MEMB      60              0.0000000000
      6886        60  SLPC      H15C           -1.8523676025      -29.6569073814       20.6583907306  MEMB      60              0.0000000000
      6887        60  SLPC      C12            -3.0209887492      -30.5371041606       17.5502854623  MEMB      60              0.0000000000
      6888        60  SLPC      H12A           -3.4443557334      -29.5983133052       17.2109247299  MEMB      60              0.0000000000
      6889        60  SLPC      H12B           -3.8258449743      -31.0829066723       18.0416219471  MEMB      60              0.0000000000
      6890        60  SLPC      C11            -2.7043822431      -31.3870845996       16.2898177333  MEMB      60              0.0000000000
      6891        60  SLPC      H11A           -1.7772689576      -31.0319530478       15.7832578450  MEMB      60              0.0000000000
      6892        60  SLPC      H11B           -3.5538352816      -31.2215859217       15.5792763746  MEMB      60              0.0000000000
      6893        60  SLPC      P              -1.9980384933      -33.7504179072       15.5175928523  MEMB      60              0.0000000000
      6894        60  SLPC      O13            -0.6437898716      -33.2780739392       15.1799236615  MEMB      60              0.0000000000
      6895        60  SLPC      O14            -2.1293300199      -35.1532302012       15.9701724778  MEMB      60              0.0000000000
      6896        60  SLPC      O12            -2.6165969806      -32.7762610974       16.6311193642  MEMB      60              0.0000000000
      6897        60  SLPC      O11            -3.0075390211      -33.4676191103       14.3406642190  MEMB      60              0.0000000000
      6898        60  SLPC      C1             -4.2783607179      -34.1181572429       14.4386176727  MEMB      60              0.0000000000
      6899        60  SLPC      HA             -4.5763864704      -34.3907004319       15.4869309281  MEMB      60              0.0000000000
      6900        60  SLPC      HB             -5.0343011538      -33.3831902542       14.1057312201  MEMB      60              0.0000000000
      6901        60  SLPC      C2             -4.3616667768      -35.3784360099       13.5295659574  MEMB      60              0.0000000000
      6902        60  SLPC      HS             -4.3129827018      -36.2897821545       14.1747006354  MEMB      60              0.0000000000
      6903        60  SLPC      O21            -3.3519633460      -35.4570460887       12.5723835391  MEMB      60              0.0000000000
      6904        60  SLPC      C21            -3.1679804867      -36.6635581694       12.0761731612  MEMB      60              0.0000000000
      6905        60  SLPC      O22            -3.8668240080      -37.6496729883       12.1539414613  MEMB      60              0.0000000000
      6906        60  SLPC      C22            -1.9533919466      -36.4853128816       11.3080674469  MEMB      60              0.0000000000
      6907        60  SLPC      H2R            -2.2731444160      -35.6591535316       10.6330469432  MEMB      60              0.0000000000
      6908        60  SLPC      H2S            -1.1986018098      -36.1092947331       12.0356631952  MEMB      60              0.0000000000
      6909        60  SLPC      C3             -5.6246806528      -35.4105664127       12.7160111358  MEMB      60              0.0000000000
      6910        60  SLPC      HX             -6.3091401935      -35.5816115862       13.4635916092  MEMB      60              0.0000000000
      6911        60  SLPC      HY             -5.6793471895      -36.3367077617       12.1234812418  MEMB      60              0.0000000000
      6912        60  SLPC      O31            -5.9909115206      -34.2035302388       12.0380341626  MEMB      60              0.0000000000
      6913        60  SLPC      C31            -6.0543955908      -34.3384176044       10.7310818179  MEMB      60              0.0000000000
      6914        60  SLPC      O32            -6.2008819180      -35.3723208830       10.1072831813  MEMB      60              0.0000000000
      6915        60  SLPC      C32            -5.7575518552      -32.9917743173       10.1277716056  MEMB      60              0.0000000000
      6916        60  SLPC      H2X            -6.5750390988      -32.2949018477       10.3961362594  MEMB      60              0.0000000000
      6917        60  SLPC      H2Y            -5.6919365840      -33.1028387938        9.0250992417  MEMB      60              0.0000000000
      6918        60  SLPC      C23            -1.5184127760      -37.7223093837       10.5511892238  MEMB      60              0.0000000000
      6919        60  SLPC      H3R            -1.5771792577      -38.6407052201       11.1760499983  MEMB      60              0.0000000000
      6920        60  SLPC      H3S            -0.4215816623      -37.7095493498       10.3098363255  MEMB      60              0.0000000000
      6921        60  SLPC      C24            -2.3023591445      -37.9131907499        9.2190836274  MEMB      60              0.0000000000
      6922        60  SLPC      H4R            -3.1420808049      -38.5461837829        9.1740281526  MEMB      60              0.0000000000
      6923        60  SLPC      H4S            -1.5149765741      -38.4952085069        8.7731720643  MEMB      60              0.0000000000
      6924        60  SLPC      C25            -2.6404538251      -36.9031557034        8.0799532765  MEMB      60              0.0000000000
      6925        60  SLPC      H5R            -3.1280399619      -35.9849292580        8.3215623781  MEMB      60              0.0000000000
      6926        60  SLPC      H5S            -2.7538190350      -37.4071421317        7.0879204845  MEMB      60              0.0000000000
      6927        60  SLPC      C26            -1.4927627947      -36.4187798383        7.5462637101  MEMB      60              0.0000000000
      6928        60  SLPC      H6R            -0.9333244676      -37.3963334720        7.5240687851  MEMB      60              0.0000000000
      6929        60  SLPC      H6S            -0.8212663084      -36.8873057878        8.3783891489  MEMB      60              0.0000000000
      6930        60  SLPC      C27            -1.0023980669      -34.8500510100        6.5832859272  MEMB      60              0.0000000000
      6931        60  SLPC      H7R            -1.4176651548      -33.9512908452        6.9668907696  MEMB      60              0.0000000000
      6932        60  SLPC      H7S            -1.1325130636      -34.9165015495        5.5151951415  MEMB      60              0.0000000000
      6933        60  SLPC      C28             0.5958747974      -34.1787672094        6.2896894672  MEMB      60              0.0000000000
      6934        60  SLPC      H8R             1.3967488971      -34.8624785076        5.8637671951  MEMB      60              0.0000000000
      6935        60  SLPC      H8S             1.1548671615      -33.8890151135        7.2036229986  MEMB      60              0.0000000000
      6936        60  SLPC      C29             0.8002553168      -32.8918267996        5.7402034830  MEMB      60              0.0000000000
      6937        60  SLPC      H9R             0.1699422884      -32.2146529989        6.2486030544  MEMB      60              0.0000000000
      6938        60  SLPC      C210            1.3975370515      -32.6713663067        4.6101602173  MEMB      60              0.0000000000
      6939        60  SLPC      H10R            1.2043765925      -31.8059384658        4.0005144659  MEMB      60              0.0000000000
      6940        60  SLPC      C211            1.8852567134      -33.7563257771        3.8252181510  MEMB      60              0.0000000000
      6941        60  SLPC      H11R            2.2340646820      -34.6987513071        4.2606424778  MEMB      60              0.0000000000
      6942        60  SLPC      H11S            2.7761675209      -33.3481573834        3.3148212714  MEMB      60              0.0000000000
      6943        60  SLPC      C212            0.6890280267      -34.1495796626        3.0208802054  MEMB      60              0.0000000000
      6944        60  SLPC      H12R            0.3025971654      -35.1495903903        3.3322926261  MEMB      60              0.0000000000
      6945        60  SLPC      C213            0.4686060837      -33.6965314921        1.7844372890  MEMB      60              0.0000000000
      6946        60  SLPC      H13R           -0.2999660508      -34.2219094510        1.2033490025  MEMB      60              0.0000000000
      6947        60  SLPC      C214            1.3649178432      -32.7441712333        0.9902849210  MEMB      60              0.0000000000
      6948        60  SLPC      H14R            2.3808705989      -32.6860912025        1.4179509418  MEMB      60              0.0000000000
      6949        60  SLPC      H14S            0.8430623878      -31.8108429729        1.1610258020  MEMB      60              0.0000000000
      6950        60  SLPC      C215            1.5581127778      -32.7733725330       -0.5701951861  MEMB      60              0.0000000000
      6951        60  SLPC      H15R            2.2897221423      -33.5333711676       -0.9462136007  MEMB      60              0.0000000000
      6952        60  SLPC      H15S            2.0530217507      -31.8818423958       -0.9936627016  MEMB      60              0.0000000000
      6953        60  SLPC      C216            0.1454833328      -33.0989028810       -1.1822587253  MEMB      60              0.0000000000
      6954        60  SLPC      H16R           -0.4186685680      -34.0384930946       -1.0196195055  MEMB      60              0.0000000000
      6955        60  SLPC      H16S            0.5563943010      -33.4673705226       -2.1471327950  MEMB      60              0.0000000000
      6956        60  SLPC      C217           -0.7150182553      -31.8718355480       -0.8220745276  MEMB      60              0.0000000000
      6957        60  SLPC      H17R           -0.0270808419      -31.1557502783       -1.1490711819  MEMB      60              0.0000000000
      6958        60  SLPC      H17S           -0.7344347322      -31.5389922493        0.1962329094  MEMB      60              0.0000000000
      6959        60  SLPC      C218           -2.0906074803      -31.5477069360       -1.3266634205  MEMB      60              0.0000000000
      6960        60  SLPC      H18R           -2.6683336000      -30.6175204808       -1.4000643414  MEMB      60              0.0000000000
      6961        60  SLPC      H18S           -2.7141501386      -32.1009651958       -0.7363968235  MEMB      60              0.0000000000
      6962        60  SLPC      H18T           -2.0308662923      -31.8648884763       -2.3872842088  MEMB      60              0.0000000000
      6963        60  SLPC      C33            -4.4424612733      -32.4885841630       10.7494102716  MEMB      60              0.0000000000
      6964        60  SLPC      H3X            -3.6306811360      -33.2218321613       10.5326433393  MEMB      60              0.0000000000
      6965        60  SLPC      H3Y            -4.5350387061      -32.4084170672       11.8542805769  MEMB      60              0.0000000000
      6966        60  SLPC      C34            -4.0404317268      -31.1408937487       10.2036692958  MEMB      60              0.0000000000
      6967        60  SLPC      H4X            -3.0263453848      -30.8642239071       10.5571849271  MEMB      60              0.0000000000
      6968        60  SLPC      H4Y            -4.6643128025      -30.3349901250       10.5907032262  MEMB      60              0.0000000000
      6969        60  SLPC      C35            -4.1311622998      -31.1560732033        8.7044223428  MEMB      60              0.0000000000
      6970        60  SLPC      H5X            -5.1538879081      -31.1252684471        8.2670007929  MEMB      60              0.0000000000
      6971        60  SLPC      H5Y            -3.5916455897      -32.0503654226        8.3040947511  MEMB      60              0.0000000000
      6972        60  SLPC      C36            -3.4142532800      -30.0142326132        8.1399000763  MEMB      60              0.0000000000
      6973        60  SLPC      H6X            -2.4603435448      -29.9255825058        8.6349144568  MEMB      60              0.0000000000
      6974        60  SLPC      H6Y            -3.8629023630      -29.0158808671        8.3493914164  MEMB      60              0.0000000000
      6975        60  SLPC      C37            -3.1308893549      -30.4878813694        6.7220478470  MEMB      60              0.0000000000
      6976        60  SLPC      H7X            -2.5292100254      -31.3623409540        6.5019233021  MEMB      60              0.0000000000
      6977        60  SLPC      H7Y            -2.3093268709      -29.8111763337        6.6504415617  MEMB      60              0.0000000000
      6978        60  SLPC      C38            -4.3587748989      -30.4117091921        5.7841864608  MEMB      60              0.0000000000
      6979        60  SLPC      H8X            -4.6289419214      -29.4299206447        6.1336135545  MEMB      60              0.0000000000
      6980        60  SLPC      H8Y            -5.1692156054      -31.1110611684        6.0055473138  MEMB      60              0.0000000000
      6981        60  SLPC      C39            -4.2072559901      -30.2774673302        4.2666865091  MEMB      60              0.0000000000
      6982        60  SLPC      H9X            -3.7883322247      -29.3084539458        4.2099390657  MEMB      60              0.0000000000
      6983        60  SLPC      H9Y            -5.0397534378      -30.0171555192        3.5889902953  MEMB      60              0.0000000000
      6984        60  SLPC      C310           -3.1943526876      -31.1934703538        3.6437422033  MEMB      60              0.0000000000
      6985        60  SLPC      H10X           -2.1773370848      -31.0644983864        4.1117961859  MEMB      60              0.0000000000
      6986        60  SLPC      H10Y           -3.0761395396      -30.9092458642        2.5680485565  MEMB      60              0.0000000000
      6987        60  SLPC      C311           -3.4426506987      -32.5795930895        3.9315381867  MEMB      60              0.0000000000
      6988        60  SLPC      H11X           -4.4365638949      -32.8206838319        3.5168843809  MEMB      60              0.0000000000
      6989        60  SLPC      H11Y           -3.3992022832      -32.6953761168        5.0431100831  MEMB      60              0.0000000000
      6990        60  SLPC      C312           -2.2780959396      -33.2734178245        3.3045116143  MEMB      60              0.0000000000
      6991        60  SLPC      H12X           -1.3639170114      -32.9572839209        3.8632930464  MEMB      60              0.0000000000
      6992        60  SLPC      H12Y           -2.0936494061      -32.9460971265        2.2608135949  MEMB      60              0.0000000000
      6993        60  SLPC      C313           -2.4845606685      -34.7468863243        3.4653489953  MEMB      60              0.0000000000
      6994        60  SLPC      H13X           -2.9036531488      -34.9062645460        4.4837638761  MEMB      60              0.0000000000
      6995        60  SLPC      H13Y           -1.5146728958      -35.2340278066        3.4067555285  MEMB      60              0.0000000000
      6996        60  SLPC      C314           -3.3369463093      -35.4185371469        2.4202700506  MEMB      60              0.0000000000
      6997        60  SLPC      H14X           -4.2690318604      -34.8602979863        2.2688841683  MEMB      60              0.0000000000
      6998        60  SLPC      H14Y           -3.7574012048      -36.2843603967        2.8711021333  MEMB      60              0.0000000000
      6999        60  SLPC      C315           -2.5493974072      -35.9231883524        1.1927380257  MEMB      60              0.0000000000
      7000        60  SLPC      H15X           -1.7359060366      -36.6092018150        1.4256969429  MEMB      60              0.0000000000
      7001        60  SLPC      H15Y           -1.9363157680      -35.0958370368        0.7629836308  MEMB      60              0.0000000000
      7002        60  SLPC      C316           -3.4670836496      -36.4223820666        0.0638067399  MEMB      60              0.0000000000
      7003        60  SLPC      H16X           -4.4105810337      -35.8662344643       -0.0510621534  MEMB      60              0.0000000000
      7004        60  SLPC      H16Y           -4.0040999050      -37.3260352022        0.2056529730  MEMB      60              0.0000000000
      7005        60  SLPC      C317           -2.5783859614      -36.6593724089       -1.1329679222  MEMB      60              0.0000000000
      7006        60  SLPC      H17X           -1.8027685809      -37.3896028636       -0.8788211839  MEMB      60              0.0000000000
      7007        60  SLPC      H17Y           -1.9847492470      -35.7744659999       -1.3321592386  MEMB      60              0.0000000000
      7008        60  SLPC      C318           -3.3008630080      -37.1419699780       -2.3326767836  MEMB      60              0.0000000000
      7009        60  SLPC      H18X           -2.7184614381      -37.2684874654       -3.2513217292  MEMB      60              0.0000000000
      7010        60  SLPC      H18Y           -4.1300895107      -36.4382699905       -2.5390980370  MEMB      60              0.0000000000
      7011        60  SLPC      H18Z           -3.6488833816      -38.1462739920       -2.0592925236  MEMB      60              0.0000000000
      7012        61  CHL1      C3              5.9970968181      -31.5442211514       17.2824003420  MEMB      61              0.0000000000
      7013        61  CHL1      H3              5.0401874679      -32.0620286158       17.0549412845  MEMB      61              0.0000000000
      7014        61  CHL1      O3              6.0369708148      -31.3638195852       18.6815326517  MEMB      61              0.0000000000
      7015        61  CHL1      H3'             5.3143201929      -30.7522844356       18.8461389906  MEMB      61              0.0000000000
      7016        61  CHL1      C4              7.1575617781      -32.4484598638       16.8106950201  MEMB      61              0.0000000000
      7017        61  CHL1      H4A             8.1262119844      -32.1925020938       17.2897027698  MEMB      61              0.0000000000
      7018        61  CHL1      H4B             6.8995907768      -33.4518931171       17.2219465202  MEMB      61              0.0000000000
      7019        61  CHL1      C5              7.3425758461      -32.4779346684       15.3020599617  MEMB      61              0.0000000000
      7020        61  CHL1      C6              7.6208366817      -33.6176206563       14.6536299816  MEMB      61              0.0000000000
      7021        61  CHL1      H6              7.7198059727      -34.5672588417       15.2010762920  MEMB      61              0.0000000000
      7022        61  CHL1      C7              7.9059042473      -33.6703224263       13.1836442288  MEMB      61              0.0000000000
      7023        61  CHL1      H7A             8.9256080688      -34.0846098186       13.0046616774  MEMB      61              0.0000000000
      7024        61  CHL1      H7B             7.1681205151      -34.3286228443       12.6880610695  MEMB      61              0.0000000000
      7025        61  CHL1      C8              7.8437024191      -32.3395906857       12.4125353489  MEMB      61              0.0000000000
      7026        61  CHL1      H8              8.8779244662      -31.9115970657       12.5043057141  MEMB      61              0.0000000000
      7027        61  CHL1      C14             7.3433106620      -32.6493706961       10.9859841525  MEMB      61              0.0000000000
      7028        61  CHL1      H14             6.2728892187      -32.8920038871       11.0406043008  MEMB      61              0.0000000000
      7029        61  CHL1      C15             8.0211778039      -33.8179783659       10.2134166828  MEMB      61              0.0000000000
      7030        61  CHL1      H15A            9.0904903415      -33.9571973443       10.5242856995  MEMB      61              0.0000000000
      7031        61  CHL1      H15B            7.4748824108      -34.7537175394       10.4102588371  MEMB      61              0.0000000000
      7032        61  CHL1      C16             7.9778866921      -33.3994334718        8.7332027108  MEMB      61              0.0000000000
      7033        61  CHL1      H16A            9.0492490819      -33.3119151821        8.5563938901  MEMB      61              0.0000000000
      7034        61  CHL1      H16B            7.5829066141      -34.1411679842        8.0158916945  MEMB      61              0.0000000000
      7035        61  CHL1      C17             7.2961738272      -31.9932407715        8.6098199923  MEMB      61              0.0000000000
      7036        61  CHL1      H17             6.2258972129      -32.1871328163        8.4364116544  MEMB      61              0.0000000000
      7037        61  CHL1      C13             7.2870070941      -31.4529232532       10.0898299656  MEMB      61              0.0000000000
      7038        61  CHL1      C18             8.5278412293      -30.9416432708       10.3719488548  MEMB      61              0.0000000000
      7039        61  CHL1      H18A            9.2296494164      -31.8002949889       10.4414571422  MEMB      61              0.0000000000
      7040        61  CHL1      H18B            8.6793230864      -30.3182212922        9.5339316889  MEMB      61              0.0000000000
      7041        61  CHL1      H18C            8.8054668888      -30.2981452050       11.2097284174  MEMB      61              0.0000000000
      7042        61  CHL1      C12             6.4438480141      -30.3075992719       10.6073648161  MEMB      61              0.0000000000
      7043        61  CHL1      H12A            6.6748733477      -29.3767971030       10.0339523235  MEMB      61              0.0000000000
      7044        61  CHL1      H12B            5.4188390991      -30.6388620210       10.4340398063  MEMB      61              0.0000000000
      7045        61  CHL1      C11             6.7047503666      -30.0355199734       12.1299491310  MEMB      61              0.0000000000
      7046        61  CHL1      H11A            7.6055286101      -29.3980722174       12.2610753761  MEMB      61              0.0000000000
      7047        61  CHL1      H11B            5.8847113432      -29.3899324305       12.4694083952  MEMB      61              0.0000000000
      7048        61  CHL1      C9              6.8648250548      -31.3384763102       13.0093442427  MEMB      61              0.0000000000
      7049        61  CHL1      H9              5.8645815661      -31.8252390870       12.9295493400  MEMB      61              0.0000000000
      7050        61  CHL1      C10             7.1195803766      -31.1480391688       14.5321198170  MEMB      61              0.0000000000
      7051        61  CHL1      C19             8.4142644892      -30.3347690997       14.7404003367  MEMB      61              0.0000000000
      7052        61  CHL1      H19A            9.3126389193      -30.9324502801       14.4793794377  MEMB      61              0.0000000000
      7053        61  CHL1      H19B            8.3902404148      -29.4358296369       14.1045444171  MEMB      61              0.0000000000
      7054        61  CHL1      H19C            8.5143378731      -29.9719314632       15.7836742866  MEMB      61              0.0000000000
      7055        61  CHL1      C1              5.9242657660      -30.3450203649       15.0872935918  MEMB      61              0.0000000000
      7056        61  CHL1      H1A             5.9372689172      -29.3486850751       14.5999310807  MEMB      61              0.0000000000
      7057        61  CHL1      H1B             4.9731637853      -30.8445346330       14.7937161043  MEMB      61              0.0000000000
      7058        61  CHL1      C2              5.9582577520      -30.1708729820       16.6087963446  MEMB      61              0.0000000000
      7059        61  CHL1      H2A             5.0435841324      -29.6181356647       16.9092570598  MEMB      61              0.0000000000
      7060        61  CHL1      H2B             6.8316299218      -29.5649867262       16.9369812942  MEMB      61              0.0000000000
      7061        61  CHL1      C20             7.7847851410      -31.1775218244        7.3465719696  MEMB      61              0.0000000000
      7062        61  CHL1      H20             8.8834902004      -31.0375047827        7.3184035865  MEMB      61              0.0000000000
      7063        61  CHL1      C21             7.1894634909      -29.7628067560        7.2733418413  MEMB      61              0.0000000000
      7064        61  CHL1      H21A            7.4927626276      -29.2715629392        6.3199691404  MEMB      61              0.0000000000
      7065        61  CHL1      H21B            7.5624432792      -29.1381370036        8.1041663218  MEMB      61              0.0000000000
      7066        61  CHL1      H21C            6.0848256140      -29.8190498310        7.3084470867  MEMB      61              0.0000000000
      7067        61  CHL1      C22             7.4944898775      -31.8577849795        5.9960138539  MEMB      61              0.0000000000
      7068        61  CHL1      H22A            7.5459833896      -32.9654639632        6.0808092977  MEMB      61              0.0000000000
      7069        61  CHL1      H22B            6.4678513953      -31.5741003928        5.6916571595  MEMB      61              0.0000000000
      7070        61  CHL1      C23             8.4544149009      -31.4658501120        4.8585673240  MEMB      61              0.0000000000
      7071        61  CHL1      H23A            8.7903481695      -30.4074002255        4.8587644076  MEMB      61              0.0000000000
      7072        61  CHL1      H23B            9.3450273426      -32.0755530937        5.0318272704  MEMB      61              0.0000000000
      7073        61  CHL1      C24             7.8628883293      -31.9090074905        3.5167776762  MEMB      61              0.0000000000
      7074        61  CHL1      H24A            7.5803840065      -32.9743059770        3.6724738603  MEMB      61              0.0000000000
      7075        61  CHL1      H24B            6.9807341960      -31.2987120681        3.2647703922  MEMB      61              0.0000000000
      7076        61  CHL1      C25             8.8127348112      -31.8938114025        2.3306584653  MEMB      61              0.0000000000
      7077        61  CHL1      H25             9.2178238292      -30.8658952863        2.2508253843  MEMB      61              0.0000000000
      7078        61  CHL1      C26             9.8582237387      -32.9338817113        2.6232004848  MEMB      61              0.0000000000
      7079        61  CHL1      H26A           10.4941375528      -33.1853030481        1.7315956033  MEMB      61              0.0000000000
      7080        61  CHL1      H26B           10.5144362998      -32.5814925436        3.4278660844  MEMB      61              0.0000000000
      7081        61  CHL1      H26C            9.5010321572      -33.7811118567        3.1498309992  MEMB      61              0.0000000000
      7082        61  CHL1      C27             8.1816132162      -32.2128456022        0.9793250945  MEMB      61              0.0000000000
      7083        61  CHL1      H27A            7.3846011428      -31.4878797490        0.7378039648  MEMB      61              0.0000000000
      7084        61  CHL1      H27B            8.9307941967      -32.1426456235        0.1668134913  MEMB      61              0.0000000000
      7085        61  CHL1      H27C            7.7925976636      -33.2475491337        1.0015889379  MEMB      61              0.0000000000
      7086        62  SAPI      C12            12.9341834168      -28.3884985523       22.5864813363  MEMB      62              0.0000000000
      7087        62  SAPI      H2             12.5548352713      -27.7415440095       21.6981596400  MEMB      62              0.0000000000
      7088        62  SAPI      O2             14.1814089383      -27.7511736497       22.9978282073  MEMB      62              0.0000000000
      7089        62  SAPI      HO2            14.3717626196      -27.9170227619       23.9134175717  MEMB      62              0.0000000000
      7090        62  SAPI      C13            11.9716956443      -28.4446917446       23.6466709963  MEMB      62              0.0000000000
      7091        62  SAPI      H3             10.9758525549      -28.6604794229       23.1908826624  MEMB      62              0.0000000000
      7092        62  SAPI      O3             11.7491522961      -27.3633735590       23.7001425378  MEMB      62              0.0000000000
      7093        62  SAPI      HO3            12.4256451797      -26.6665199587       23.8767236209  MEMB      62              0.0000000000
      7094        62  SAPI      C14            12.1645885947      -29.0669118154       24.9972068141  MEMB      62              0.0000000000
      7095        62  SAPI      H4             13.1372266801      -28.6611365814       25.3866541719  MEMB      62              0.0000000000
      7096        62  SAPI      O4             11.2571227787      -28.8727299563       26.0587633092  MEMB      62              0.0000000000
      7097        62  SAPI      HO4            11.8048413428      -28.7584125546       26.8454291175  MEMB      62              0.0000000000
      7098        62  SAPI      C15            12.2116584110      -30.3956112029       24.7358204282  MEMB      62              0.0000000000
      7099        62  SAPI      H5             11.1458270226      -30.6179009479       24.4025580043  MEMB      62              0.0000000000
      7100        62  SAPI      O5             12.5029865475      -31.1092443944       25.9481689185  MEMB      62              0.0000000000
      7101        62  SAPI      HO5            12.0429892369      -31.9231385791       25.8206795983  MEMB      62              0.0000000000
      7102        62  SAPI      C16            13.2321668344      -30.5615294726       23.7019333797  MEMB      62              0.0000000000
      7103        62  SAPI      H6             14.1948086851      -30.1667316423       24.1211663991  MEMB      62              0.0000000000
      7104        62  SAPI      O6             13.2147147337      -31.9278824623       23.4209412615  MEMB      62              0.0000000000
      7105        62  SAPI      HO6            13.9602641805      -31.9735949288       22.8348532156  MEMB      62              0.0000000000
      7106        62  SAPI      C11            12.9346448819      -29.7908537471       22.4150963097  MEMB      62              0.0000000000
      7107        62  SAPI      H1             11.8979460758      -30.0335686800       22.0348884103  MEMB      62              0.0000000000
      7108        62  SAPI      P              13.8392336948      -29.3518454807       19.9291879149  MEMB      62              0.0000000000
      7109        62  SAPI      O13            14.1287471106      -27.9002010007       19.9410614271  MEMB      62              0.0000000000
      7110        62  SAPI      O14            12.6754219089      -29.8760829361       19.1974860468  MEMB      62              0.0000000000
      7111        62  SAPI      O12            13.8902124803      -30.0225402080       21.4378197665  MEMB      62              0.0000000000
      7112        62  SAPI      O11            15.1603926996      -30.0666598568       19.5185668787  MEMB      62              0.0000000000
      7113        62  SAPI      C1             16.3582721946      -29.9062495569       20.3122568956  MEMB      62              0.0000000000
      7114        62  SAPI      HA             16.6314098748      -28.8360044490       20.4370739577  MEMB      62              0.0000000000
      7115        62  SAPI      HB             16.2900314750      -30.3991337839       21.3124241618  MEMB      62              0.0000000000
      7116        62  SAPI      C2             17.5310291402      -30.5843906996       19.6168621783  MEMB      62              0.0000000000
      7117        62  SAPI      HS             18.5136927818      -30.2962042406       20.0424994571  MEMB      62              0.0000000000
      7118        62  SAPI      O21            17.4207124961      -30.4000184047       18.2287982867  MEMB      62              0.0000000000
      7119        62  SAPI      C21            18.2498575424      -29.6272889219       17.7934459971  MEMB      62              0.0000000000
      7120        62  SAPI      O22            19.1750318153      -29.0578485197       18.3933689043  MEMB      62              0.0000000000
      7121        62  SAPI      C22            17.8890790183      -29.5334617857       16.3199918733  MEMB      62              0.0000000000
      7122        62  SAPI      H2R            18.9639102125      -29.2952414388       16.1166491857  MEMB      62              0.0000000000
      7123        62  SAPI      H2S            17.7419362049      -30.3813803914       15.7166984872  MEMB      62              0.0000000000
      7124        62  SAPI      C3             17.4947349835      -32.0427049953       19.8509175904  MEMB      62              0.0000000000
      7125        62  SAPI      HX             17.5315941045      -32.2837381624       20.9182008925  MEMB      62              0.0000000000
      7126        62  SAPI      HY             18.3620384678      -32.5230170546       19.4436112826  MEMB      62              0.0000000000
      7127        62  SAPI      O31            16.3475232641      -32.5110917346       19.2175716032  MEMB      62              0.0000000000
      7128        62  SAPI      C31            16.1749823798      -33.7232906571       19.5390688603  MEMB      62              0.0000000000
      7129        62  SAPI      O32            16.8038621523      -34.3745040238       20.3556486908  MEMB      62              0.0000000000
      7130        62  SAPI      C32            15.0408821993      -34.2000897372       18.7878532585  MEMB      62              0.0000000000
      7131        62  SAPI      H2X            14.4404744544      -34.7875986950       19.5073533285  MEMB      62              0.0000000000
      7132        62  SAPI      H2Y            15.5513105854      -34.9360653421       18.1901908509  MEMB      62              0.0000000000
      7133        62  SAPI      C23            16.6470618296      -28.7153948416       15.6760854672  MEMB      62              0.0000000000
      7134        62  SAPI      H3R            16.6703564885      -28.0384551820       14.7941257028  MEMB      62              0.0000000000
      7135        62  SAPI      H3S            17.0534875746      -27.9079977106       16.0515278344  MEMB      62              0.0000000000
      7136        62  SAPI      C24            15.1506164196      -28.8604175554       15.8879050883  MEMB      62              0.0000000000
      7137        62  SAPI      H4R            14.9080272754      -29.0289934769       16.9542859541  MEMB      62              0.0000000000
      7138        62  SAPI      H4S            15.1654232166      -29.7676466448       15.2813843229  MEMB      62              0.0000000000
      7139        62  SAPI      C25            14.2448857352      -27.7674621898       15.2948882479  MEMB      62              0.0000000000
      7140        62  SAPI      H5R            14.0458881210      -26.9105771258       15.9550806255  MEMB      62              0.0000000000
      7141        62  SAPI      C26            13.6394983155      -27.6698202283       14.1109384404  MEMB      62              0.0000000000
      7142        62  SAPI      H6R            13.1200324618      -26.7243008263       13.8668623810  MEMB      62              0.0000000000
      7143        62  SAPI      C27            13.7273079506      -28.7000589746       13.0458359453  MEMB      62              0.0000000000
      7144        62  SAPI      H7R            13.0542797592      -29.5147500126       13.3855153718  MEMB      62              0.0000000000
      7145        62  SAPI      H7S            14.7525585970      -29.1205567911       12.9663236195  MEMB      62              0.0000000000
      7146        62  SAPI      C28            13.3082173964      -28.1255654014       11.7282281893  MEMB      62              0.0000000000
      7147        62  SAPI      H8R            13.6773358804      -27.1228985164       11.4828562022  MEMB      62              0.0000000000
      7148        62  SAPI      C29            12.7345848454      -28.8278203509       10.7634486994  MEMB      62              0.0000000000
      7149        62  SAPI      H9R            12.3386888760      -28.2725027774        9.9029717006  MEMB      62              0.0000000000
      7150        62  SAPI      C210           12.4440567975      -30.2930373899       10.8935914343  MEMB      62              0.0000000000
      7151        62  SAPI      H10R           12.1818046771      -30.5946075353       11.9390775056  MEMB      62              0.0000000000
      7152        62  SAPI      H10S           13.1958782601      -30.9518260214       10.4930056340  MEMB      62              0.0000000000
      7153        62  SAPI      C211           11.3053919792      -30.7472773499       10.1734567075  MEMB      62              0.0000000000
      7154        62  SAPI      H11R           10.5839360008      -30.4004820019       10.8998708928  MEMB      62              0.0000000000
      7155        62  SAPI      C212           10.9539061683      -31.2742916098        8.9722747989  MEMB      62              0.0000000000
      7156        62  SAPI      H12R            9.9268615361      -31.4893524699        8.7231866135  MEMB      62              0.0000000000
      7157        62  SAPI      C213           11.6224745379      -31.6406712723        7.7677365612  MEMB      62              0.0000000000
      7158        62  SAPI      H13R           12.6492907340      -31.7246544094        8.1118029597  MEMB      62              0.0000000000
      7159        62  SAPI      H13S           11.4440152920      -30.8284433793        7.0453205023  MEMB      62              0.0000000000
      7160        62  SAPI      C214           11.0617714170      -32.7499003869        6.9680282145  MEMB      62              0.0000000000
      7161        62  SAPI      H14R           10.0427139831      -33.0743942833        7.1273986161  MEMB      62              0.0000000000
      7162        62  SAPI      C215           11.4918549667      -32.8944353033        5.7501578287  MEMB      62              0.0000000000
      7163        62  SAPI      H15R           10.9157962668      -33.5458597529        5.0818164592  MEMB      62              0.0000000000
      7164        62  SAPI      C216           12.5105934328      -31.9509278550        5.2147484916  MEMB      62              0.0000000000
      7165        62  SAPI      H16R           12.9992310974      -31.2295278067        5.9050485975  MEMB      62              0.0000000000
      7166        62  SAPI      H16S           11.9330684504      -31.2629532923        4.6012887519  MEMB      62              0.0000000000
      7167        62  SAPI      C217           13.6305886930      -32.7408142054        4.6268701080  MEMB      62              0.0000000000
      7168        62  SAPI      H17R           13.2810465454      -33.5840275582        3.9865264884  MEMB      62              0.0000000000
      7169        62  SAPI      H17S           14.2676360724      -33.1586494119        5.4477006548  MEMB      62              0.0000000000
      7170        62  SAPI      C218           14.5190977584      -31.8548103222        3.8321188351  MEMB      62              0.0000000000
      7171        62  SAPI      H18R           15.0608788295      -31.0871961462        4.4221114009  MEMB      62              0.0000000000
      7172        62  SAPI      H18S           14.0740730848      -31.3430805328        2.9666160323  MEMB      62              0.0000000000
      7173        62  SAPI      C219           15.4918692221      -32.7134067329        3.1982492908  MEMB      62              0.0000000000
      7174        62  SAPI      H19R           15.0589759962      -33.5570157742        2.5861514728  MEMB      62              0.0000000000
      7175        62  SAPI      H19S           16.2139720073      -33.1305905332        3.9304846083  MEMB      62              0.0000000000
      7176        62  SAPI      C220           16.1225534279      -31.7693432330        2.2744141007  MEMB      62              0.0000000000
      7177        62  SAPI      H20R           15.5245905090      -31.3392859590        1.4945624537  MEMB      62              0.0000000000
      7178        62  SAPI      H20S           16.5506134308      -32.6193222396        1.8012270549  MEMB      62              0.0000000000
      7179        62  SAPI      H20T           16.8409560626      -31.0156398146        2.6492071281  MEMB      62              0.0000000000
      7180        62  SAPI      C33            14.1701092073      -33.1765313531       17.9952305227  MEMB      62              0.0000000000
      7181        62  SAPI      H3X            13.8090527920      -32.4641893280       18.7545233874  MEMB      62              0.0000000000
      7182        62  SAPI      H3Y            13.2201792561      -33.6299428267       17.6780085420  MEMB      62              0.0000000000
      7183        62  SAPI      C34            14.7463723880      -32.3386735356       16.8229457697  MEMB      62              0.0000000000
      7184        62  SAPI      H4X            15.6511090324      -31.7831348719       17.1181645640  MEMB      62              0.0000000000
      7185        62  SAPI      H4Y            13.9015683653      -31.6765638550       16.5282286320  MEMB      62              0.0000000000
      7186        62  SAPI      C35            15.1026777693      -32.9570363233       15.5028881766  MEMB      62              0.0000000000
      7187        62  SAPI      H5X            14.1735094712      -33.3350014623       15.1185005417  MEMB      62              0.0000000000
      7188        62  SAPI      H5Y            15.9153112307      -33.7111608846       15.6516017610  MEMB      62              0.0000000000
      7189        62  SAPI      C36            15.1821854985      -32.0632300186       14.2623009545  MEMB      62              0.0000000000
      7190        62  SAPI      H6X            16.0189472026      -31.4243617413       14.5806462643  MEMB      62              0.0000000000
      7191        62  SAPI      H6Y            14.3118533470      -31.4031368581       14.2182211299  MEMB      62              0.0000000000
      7192        62  SAPI      C37            15.3900508469      -32.8090438562       12.9098664237  MEMB      62              0.0000000000
      7193        62  SAPI      H7X            14.5407747910      -33.3578051988       12.4988932667  MEMB      62              0.0000000000
      7194        62  SAPI      H7Y            16.0054787205      -33.7057687405       13.1371156041  MEMB      62              0.0000000000
      7195        62  SAPI      C38            15.8861108015      -31.8844900549       11.7510086148  MEMB      62              0.0000000000
      7196        62  SAPI      H8X            16.9350568457      -31.5376414812       11.9272402925  MEMB      62              0.0000000000
      7197        62  SAPI      H8Y            15.2632005629      -30.9785605046       11.7264009589  MEMB      62              0.0000000000
      7198        62  SAPI      C39            15.8016804202      -32.6010448321       10.3841512969  MEMB      62              0.0000000000
      7199        62  SAPI      H9X            14.8504791209      -33.1559806841       10.2995706395  MEMB      62              0.0000000000
      7200        62  SAPI      H9Y            16.5680523344      -33.3433499332       10.3010478143  MEMB      62              0.0000000000
      7201        62  SAPI      C310           16.2569056835      -31.8553009215        9.1417652299  MEMB      62              0.0000000000
      7202        62  SAPI      H10X           16.1710421330      -32.5258641577        8.2514893070  MEMB      62              0.0000000000
      7203        62  SAPI      H10Y           17.3263772950      -31.5711255256        9.2508414884  MEMB      62              0.0000000000
      7204        62  SAPI      C311           15.3598649377      -30.6861589355        8.9437397379  MEMB      62              0.0000000000
      7205        62  SAPI      H11X           15.4453766194      -29.9628799095        9.7857503822  MEMB      62              0.0000000000
      7206        62  SAPI      H11Y           14.3347559488      -31.1053726706        8.9536468034  MEMB      62              0.0000000000
      7207        62  SAPI      C312           15.5421585264      -30.0054019801        7.6193466623  MEMB      62              0.0000000000
      7208        62  SAPI      H12X           15.6057859073      -30.7053123274        6.7599751090  MEMB      62              0.0000000000
      7209        62  SAPI      H12Y           16.4444494401      -29.4029313581        7.6351348771  MEMB      62              0.0000000000
      7210        62  SAPI      C313           14.3855950536      -29.0839716775        7.4584626698  MEMB      62              0.0000000000
      7211        62  SAPI      H13X           14.1789134461      -28.5199167080        8.3956349276  MEMB      62              0.0000000000
      7212        62  SAPI      H13Y           13.4795946075      -29.7086602466        7.2963554409  MEMB      62              0.0000000000
      7213        62  SAPI      C314           14.4910275844      -28.1776951447        6.2399051666  MEMB      62              0.0000000000
      7214        62  SAPI      H14X           13.8476480736      -27.4270331287        6.5306348582  MEMB      62              0.0000000000
      7215        62  SAPI      H14Y           14.1783429240      -28.7620293534        5.3718891429  MEMB      62              0.0000000000
      7216        62  SAPI      C315           15.6411245195      -27.2774092951        5.9160191979  MEMB      62              0.0000000000
      7217        62  SAPI      H15X           16.1175679431      -28.1686609124        5.5629791020  MEMB      62              0.0000000000
      7218        62  SAPI      H15Y           15.9157459429      -27.0073220887        6.8636582261  MEMB      62              0.0000000000
      7219        62  SAPI      C316           15.7916461014      -25.9021196670        5.1778991877  MEMB      62              0.0000000000
      7220        62  SAPI      H16X           16.7599235771      -25.4252239774        5.2505310468  MEMB      62              0.0000000000
      7221        62  SAPI      H16Y           15.2412224050      -25.0716628218        5.6668889996  MEMB      62              0.0000000000
      7222        62  SAPI      C317           15.7510039180      -26.0254922937        3.6774717865  MEMB      62              0.0000000000
      7223        62  SAPI      H17X           15.3059846551      -26.9780232527        3.5483545926  MEMB      62              0.0000000000
      7224        62  SAPI      H17Y           16.5498744003      -26.5249249283        3.1395988851  MEMB      62              0.0000000000
      7225        62  SAPI      C318           15.2172790942      -24.8248523077        2.9066705069  MEMB      62              0.0000000000
      7226        62  SAPI      H18X           16.0087166897      -24.0838145510        2.7480296277  MEMB      62              0.0000000000
      7227        62  SAPI      H18Y           14.3181088455      -24.3235569180        3.2992105960  MEMB      62              0.0000000000
      7228        62  SAPI      H18Z           14.8896500309      -25.1879693507        1.9137713077  MEMB      62              0.0000000000
      7229        63  CHL1      C3            -10.0736667009      -32.1409151841       17.2972711760  MEMB      63              0.0000000000
      7230        63  CHL1      H3            -10.6068078125      -31.1828857025       17.0867552206  MEMB      63              0.0000000000
      7231        63  CHL1      O3             -9.9576548373      -32.3357102880       18.6974146734  MEMB      63              0.0000000000
      7232        63  CHL1      H3'           -10.8428751079      -32.6296535806       18.9769306510  MEMB      63              0.0000000000
      7233        63  CHL1      C4            -10.8673668267      -33.3055212543       16.7137394417  MEMB      63              0.0000000000
      7234        63  CHL1      H4A           -10.2517452711      -34.2283909067       16.8753419846  MEMB      63              0.0000000000
      7235        63  CHL1      H4B           -11.8220112156      -33.4952663848       17.2463723443  MEMB      63              0.0000000000
      7236        63  CHL1      C5            -11.1201434031      -32.9168428544       15.2663186071  MEMB      63              0.0000000000
      7237        63  CHL1      C6            -12.3222413299      -32.9356597944       14.7177472360  MEMB      63              0.0000000000
      7238        63  CHL1      H6            -13.1946533095      -33.2455292350       15.3026152925  MEMB      63              0.0000000000
      7239        63  CHL1      C7            -12.4883626900      -32.5088032398       13.2992534958  MEMB      63              0.0000000000
      7240        63  CHL1      H7A           -13.2397196553      -33.0575807091       12.8057413869  MEMB      63              0.0000000000
      7241        63  CHL1      H7B           -12.8130118588      -31.4554428735       13.3120929631  MEMB      63              0.0000000000
      7242        63  CHL1      C8            -11.2931687391      -32.6968914689       12.3483199052  MEMB      63              0.0000000000
      7243        63  CHL1      H8            -11.1319143696      -33.7943270280       12.1891761293  MEMB      63              0.0000000000
      7244        63  CHL1      C14           -11.5598308188      -32.1027527188       10.9887120764  MEMB      63              0.0000000000
      7245        63  CHL1      H14           -11.9317481044      -31.0619989282       11.1796822519  MEMB      63              0.0000000000
      7246        63  CHL1      C15           -12.6413375777      -32.7396534094       10.2308733807  MEMB      63              0.0000000000
      7247        63  CHL1      H15A          -12.4750405500      -33.8452748458       10.2807520569  MEMB      63              0.0000000000
      7248        63  CHL1      H15B          -13.5426263543      -32.3072194935       10.7047098249  MEMB      63              0.0000000000
      7249        63  CHL1      C16           -12.5728582681      -32.3297684624        8.7929027906  MEMB      63              0.0000000000
      7250        63  CHL1      H16A          -12.5213577932      -33.2414064177        8.1595707198  MEMB      63              0.0000000000
      7251        63  CHL1      H16B          -13.4779662999      -31.7320567652        8.5325560282  MEMB      63              0.0000000000
      7252        63  CHL1      C17           -11.2363302594      -31.5877728548        8.7373299975  MEMB      63              0.0000000000
      7253        63  CHL1      H17           -11.5172435423      -30.5338652799        8.9539166871  MEMB      63              0.0000000000
      7254        63  CHL1      C13           -10.4578709055      -32.1082234688        9.9657500532  MEMB      63              0.0000000000
      7255        63  CHL1      C18            -9.8890846920      -33.5284774679        9.7000680888  MEMB      63              0.0000000000
      7256        63  CHL1      H18A          -10.5667650039      -34.2471814922        9.1953172204  MEMB      63              0.0000000000
      7257        63  CHL1      H18B           -8.9368038204      -33.4800141956        9.1351563973  MEMB      63              0.0000000000
      7258        63  CHL1      H18C           -9.6333614635      -33.9434179222       10.6866822354  MEMB      63              0.0000000000
      7259        63  CHL1      C12            -9.3959072842      -31.2321189993       10.5865505674  MEMB      63              0.0000000000
      7260        63  CHL1      H12A           -8.5422903371      -31.2742424179        9.8906504305  MEMB      63              0.0000000000
      7261        63  CHL1      H12B           -9.7902883770      -30.1966490971       10.6460816177  MEMB      63              0.0000000000
      7262        63  CHL1      C11            -8.9923134772      -31.7292865583       12.0030072041  MEMB      63              0.0000000000
      7263        63  CHL1      H11A           -8.4622432066      -32.6952064806       11.8716340021  MEMB      63              0.0000000000
      7264        63  CHL1      H11B           -8.2891696486      -31.0014343653       12.4435071836  MEMB      63              0.0000000000
      7265        63  CHL1      C9            -10.1833218891      -31.9144575580       12.9906299055  MEMB      63              0.0000000000
      7266        63  CHL1      H9            -10.6111457818      -30.9154902900       13.1969680353  MEMB      63              0.0000000000
      7267        63  CHL1      C10            -9.9081266285      -32.4025182432       14.4192102707  MEMB      63              0.0000000000
      7268        63  CHL1      C19            -9.3503621596      -33.6384434517       14.1336965031  MEMB      63              0.0000000000
      7269        63  CHL1      H19A          -10.0906124807      -34.3431876721       13.6841425998  MEMB      63              0.0000000000
      7270        63  CHL1      H19B           -8.3560161689      -33.6630631643       13.6143319115  MEMB      63              0.0000000000
      7271        63  CHL1      H19C           -9.1128049775      -34.0507294232       15.0924997644  MEMB      63              0.0000000000
      7272        63  CHL1      C1             -8.7365128077      -31.7319708097       15.1587196482  MEMB      63              0.0000000000
      7273        63  CHL1      H1A            -7.7572705445      -31.9887071686       14.6709306280  MEMB      63              0.0000000000
      7274        63  CHL1      H1B            -8.9104295974      -30.6571143055       15.0431843302  MEMB      63              0.0000000000
      7275        63  CHL1      C2             -8.6716660766      -32.0815357860       16.6601996032  MEMB      63              0.0000000000
      7276        63  CHL1      H2A            -8.0572665280      -31.2889419512       17.1317511425  MEMB      63              0.0000000000
      7277        63  CHL1      H2B            -8.1933387989      -33.0747400922       16.8300176330  MEMB      63              0.0000000000
      7278        63  CHL1      C20           -10.6594896430      -31.6175639992        7.3373659541  MEMB      63              0.0000000000
      7279        63  CHL1      H20           -10.3141603212      -32.6491800357        7.0825981908  MEMB      63              0.0000000000
      7280        63  CHL1      C21            -9.4696957454      -30.6542418942        7.1938570133  MEMB      63              0.0000000000
      7281        63  CHL1      H21A           -9.7744289595      -29.6157063842        7.4381898039  MEMB      63              0.0000000000
      7282        63  CHL1      H21B           -9.1084794285      -30.6620698199        6.1480448610  MEMB      63              0.0000000000
      7283        63  CHL1      H21C           -8.6024570028      -30.9637531488        7.7999410425  MEMB      63              0.0000000000
      7284        63  CHL1      C22           -11.7982595256      -31.1946995258        6.3731309609  MEMB      63              0.0000000000
      7285        63  CHL1      H22A          -12.5400851233      -31.9946484757        6.3149843896  MEMB      63              0.0000000000
      7286        63  CHL1      H22B          -12.3931037616      -30.3688901364        6.8155410949  MEMB      63              0.0000000000
      7287        63  CHL1      C23           -11.3678189644      -30.7725463339        4.9560535408  MEMB      63              0.0000000000
      7288        63  CHL1      H23A          -12.3312759896      -30.6047915999        4.4003341941  MEMB      63              0.0000000000
      7289        63  CHL1      H23B          -10.8815962777      -29.7896891327        5.0159238673  MEMB      63              0.0000000000
      7290        63  CHL1      C24           -10.4046965345      -31.7984820636        4.2679847225  MEMB      63              0.0000000000
      7291        63  CHL1      H24A           -9.6467448018      -32.1918152115        4.9471521462  MEMB      63              0.0000000000
      7292        63  CHL1      H24B          -10.6682072359      -32.8445874432        4.3233172871  MEMB      63              0.0000000000
      7293        63  CHL1      C25           -10.1389244751      -31.6809794980        2.7340073345  MEMB      63              0.0000000000
      7294        63  CHL1      H25            -9.3367505822      -30.9215035456        2.7415409709  MEMB      63              0.0000000000
      7295        63  CHL1      C26            -9.5760716743      -33.0187714164        2.2048650720  MEMB      63              0.0000000000
      7296        63  CHL1      H26A          -10.3401490650      -33.8278403223        2.1433921721  MEMB      63              0.0000000000
      7297        63  CHL1      H26B           -9.1667284842      -32.8461113167        1.1901118495  MEMB      63              0.0000000000
      7298        63  CHL1      H26C           -8.7704579689      -33.3772236160        2.8758511070  MEMB      63              0.0000000000
      7299        63  CHL1      C27           -11.2215132572      -31.1604909002        1.7217749836  MEMB      63              0.0000000000
      7300        63  CHL1      H27A          -12.1249937694      -31.7384725965        1.5401226784  MEMB      63              0.0000000000
      7301        63  CHL1      H27B          -11.5954287711      -30.1535716464        1.9767928275  MEMB      63              0.0000000000
      7302        63  CHL1      H27C          -10.8193281000      -31.2140015763        0.6894648503  MEMB      63              0.0000000000
      7303        64  SLPC      N              35.3622844716        2.1543415930       15.9195113416  MEMB      64              0.0000000000
      7304        64  SLPC      C13            34.3381175363        2.2986176685       14.9445044629  MEMB      64              0.0000000000
      7305        64  SLPC      H13A           34.8110685609        2.8736363116       14.1445444289  MEMB      64              0.0000000000
      7306        64  SLPC      H13B           33.9917161839        1.3322060066       14.6572826049  MEMB      64              0.0000000000
      7307        64  SLPC      H13C           33.6142498277        2.9535682710       15.4427586864  MEMB      64              0.0000000000
      7308        64  SLPC      C14            36.6017357948        1.5099570298       15.1935657803  MEMB      64              0.0000000000
      7309        64  SLPC      H14A           36.5871787043        0.5162286968       14.8145322924  MEMB      64              0.0000000000
      7310        64  SLPC      H14B           36.8351008812        2.0819579684       14.3047098229  MEMB      64              0.0000000000
      7311        64  SLPC      H14C           37.5407273297        1.7201203977       15.7215546747  MEMB      64              0.0000000000
      7312        64  SLPC      C15            35.0570854567        1.1732815730       17.0068905209  MEMB      64              0.0000000000
      7313        64  SLPC      H15A           35.8319962609        1.2141945018       17.7746377162  MEMB      64              0.0000000000
      7314        64  SLPC      H15B           34.0974702132        1.3637875644       17.4439440250  MEMB      64              0.0000000000
      7315        64  SLPC      H15C           35.1423914834        0.1706012605       16.6041355827  MEMB      64              0.0000000000
      7316        64  SLPC      C12            35.3247704555        3.7287627037       16.3734679003  MEMB      64              0.0000000000
      7317        64  SLPC      H12A           35.5245765144        4.4585743946       15.5803450465  MEMB      64              0.0000000000
      7318        64  SLPC      H12B           36.2364893365        4.1501442772       16.7724795608  MEMB      64              0.0000000000
      7319        64  SLPC      C11            34.7290527347        4.2362269424       17.6478609217  MEMB      64              0.0000000000
      7320        64  SLPC      H11A           35.4212306653        5.0586281327       18.0546497234  MEMB      64              0.0000000000
      7321        64  SLPC      H11B           34.6768024227        3.4449496172       18.4311022408  MEMB      64              0.0000000000
      7322        64  SLPC      P              32.8901955983        5.8500767266       17.9310114630  MEMB      64              0.0000000000
      7323        64  SLPC      O13            31.5798728411        6.0606943070       17.2855304630  MEMB      64              0.0000000000
      7324        64  SLPC      O14            32.9437898008        5.3984645227       19.3398507695  MEMB      64              0.0000000000
      7325        64  SLPC      O12            33.5222579421        4.6772205938       17.1350974847  MEMB      64              0.0000000000
      7326        64  SLPC      O11            33.9506608277        6.9903405512       17.6944056886  MEMB      64              0.0000000000
      7327        64  SLPC      C1             33.5955512085        8.3167606818       17.4191189676  MEMB      64              0.0000000000
      7328        64  SLPC      HA             32.5065069608        8.5312174965       17.5559046864  MEMB      64              0.0000000000
      7329        64  SLPC      HB             34.0743875465        8.9697221110       18.1821935764  MEMB      64              0.0000000000
      7330        64  SLPC      C2             34.1669719843        8.6360454731       16.0078798864  MEMB      64              0.0000000000
      7331        64  SLPC      HS             33.8396700157        9.5972115695       15.6458810858  MEMB      64              0.0000000000
      7332        64  SLPC      O21            34.0262935478        7.6771868364       14.9559516825  MEMB      64              0.0000000000
      7333        64  SLPC      C21            32.8463988789        7.5679918375       14.4866822448  MEMB      64              0.0000000000
      7334        64  SLPC      O22            31.8346256732        7.9372185880       15.0018803709  MEMB      64              0.0000000000
      7335        64  SLPC      C22            32.6423153415        6.7367071045       13.2759953246  MEMB      64              0.0000000000
      7336        64  SLPC      H2R            32.7128626349        5.7836465033       13.7908802138  MEMB      64              0.0000000000
      7337        64  SLPC      H2S            31.5590929830        6.8449103815       13.0543471894  MEMB      64              0.0000000000
      7338        64  SLPC      C3             35.6424875053        8.8364249501       16.0173362583  MEMB      64              0.0000000000
      7339        64  SLPC      HX             36.0848459848        7.8396632165       16.1613224746  MEMB      64              0.0000000000
      7340        64  SLPC      HY             35.9349688858        9.3938872523       16.9212350960  MEMB      64              0.0000000000
      7341        64  SLPC      O31            36.0011849332        9.5168297132       14.7794275073  MEMB      64              0.0000000000
      7342        64  SLPC      C31            36.2172722755        8.6929149532       13.7500236743  MEMB      64              0.0000000000
      7343        64  SLPC      O32            36.2317516509        7.4921809909       13.7737235405  MEMB      64              0.0000000000
      7344        64  SLPC      C32            36.4010684391        9.3922833656       12.4501673110  MEMB      64              0.0000000000
      7345        64  SLPC      H2X            37.4134271768        9.6911348451       12.3136547892  MEMB      64              0.0000000000
      7346        64  SLPC      H2Y            35.7924330462       10.3076130109       12.4021025748  MEMB      64              0.0000000000
      7347        64  SLPC      C23            33.5197348299        6.8107429195       12.0195271570  MEMB      64              0.0000000000
      7348        64  SLPC      H3R            34.5068456707        6.4796078843       12.4032593478  MEMB      64              0.0000000000
      7349        64  SLPC      H3S            33.7749358934        7.8025001591       11.6371017731  MEMB      64              0.0000000000
      7350        64  SLPC      C24            32.9403354360        5.9644756484       10.8215384457  MEMB      64              0.0000000000
      7351        64  SLPC      H4R            32.7564211779        4.9499052630       11.2255041034  MEMB      64              0.0000000000
      7352        64  SLPC      H4S            33.8248238158        5.9755909276       10.1603889428  MEMB      64              0.0000000000
      7353        64  SLPC      C25            31.6717693417        6.3176625168        9.9201597657  MEMB      64              0.0000000000
      7354        64  SLPC      H5R            30.7870194166        6.4626336631       10.5777876395  MEMB      64              0.0000000000
      7355        64  SLPC      H5S            31.2562863176        5.4828282240        9.3351505311  MEMB      64              0.0000000000
      7356        64  SLPC      C26            31.9242610541        7.4126256642        8.8517892357  MEMB      64              0.0000000000
      7357        64  SLPC      H6R            32.9645807156        7.7828158447        8.8585774877  MEMB      64              0.0000000000
      7358        64  SLPC      H6S            31.5627223964        8.4400221712        8.9804411066  MEMB      64              0.0000000000
      7359        64  SLPC      C27            31.0151157942        7.5473237667        7.6762998682  MEMB      64              0.0000000000
      7360        64  SLPC      H7R            29.9870356831        7.7401586220        7.9897816637  MEMB      64              0.0000000000
      7361        64  SLPC      H7S            30.9835384785        6.5346596685        7.2689812080  MEMB      64              0.0000000000
      7362        64  SLPC      C28            31.5107187586        8.7143083101        6.8776375793  MEMB      64              0.0000000000
      7363        64  SLPC      H8R            31.7456204577        9.5813604305        7.5344203920  MEMB      64              0.0000000000
      7364        64  SLPC      H8S            30.7279223198        9.1161139356        6.2056388032  MEMB      64              0.0000000000
      7365        64  SLPC      C29            32.5549499252        7.7255132058        6.3986480600  MEMB      64              0.0000000000
      7366        64  SLPC      H9R            33.4638334097        7.7705815267        7.0669451913  MEMB      64              0.0000000000
      7367        64  SLPC      C210           32.8505552024        7.7781836817        5.1435713853  MEMB      64              0.0000000000
      7368        64  SLPC      H10R           34.0276722142        7.6221230168        5.0868387642  MEMB      64              0.0000000000
      7369        64  SLPC      C211           32.0548001117        9.0672442284        4.4374581959  MEMB      64              0.0000000000
      7370        64  SLPC      H11R           31.0641323364        8.7624737003        4.2154576496  MEMB      64              0.0000000000
      7371        64  SLPC      H11S           32.8082005118        8.3360152357        4.0873833894  MEMB      64              0.0000000000
      7372        64  SLPC      C212           32.3701554948       10.7724396117        3.8979604301  MEMB      64              0.0000000000
      7373        64  SLPC      H12R           31.4506503746       11.2503692787        4.1506773003  MEMB      64              0.0000000000
      7374        64  SLPC      C213           33.6777700181       11.5694871440        3.1923329674  MEMB      64              0.0000000000
      7375        64  SLPC      H13R           33.7837167601       12.5325751630        3.4574218325  MEMB      64              0.0000000000
      7376        64  SLPC      C214           35.3786237574       11.1344022886        2.6003636538  MEMB      64              0.0000000000
      7377        64  SLPC      H14R           35.8961928011       10.0744929871        2.7842368291  MEMB      64              0.0000000000
      7378        64  SLPC      H14S           36.1942690268       11.1065585281        3.3798500076  MEMB      64              0.0000000000
      7379        64  SLPC      C215           36.0666325465       10.7452365819        1.2832484994  MEMB      64              0.0000000000
      7380        64  SLPC      H15R           37.1638559697       10.5504678071        1.4837715917  MEMB      64              0.0000000000
      7381        64  SLPC      H15S           35.9307046177       11.6461678940        0.7158860112  MEMB      64              0.0000000000
      7382        64  SLPC      C216           35.5772452595        9.4695631209        0.6173733300  MEMB      64              0.0000000000
      7383        64  SLPC      H16R           34.5075452370        9.3169035784        0.4305797734  MEMB      64              0.0000000000
      7384        64  SLPC      H16S           35.7550679675        8.5423051126        1.1774918757  MEMB      64              0.0000000000
      7385        64  SLPC      C217           35.4957286086        9.6158641136       -0.8148586779  MEMB      64              0.0000000000
      7386        64  SLPC      H17R           34.9904988735        8.7015675794       -1.2258509048  MEMB      64              0.0000000000
      7387        64  SLPC      H17S           36.5264821051        9.7500691880       -1.1645706820  MEMB      64              0.0000000000
      7388        64  SLPC      C218           34.6471948144       10.8066629565       -1.1891995854  MEMB      64              0.0000000000
      7389        64  SLPC      H18R           34.4864208178       10.4404832036       -2.2055184646  MEMB      64              0.0000000000
      7390        64  SLPC      H18S           35.2079935662       11.7734069682       -1.1249373184  MEMB      64              0.0000000000
      7391        64  SLPC      H18T           33.5974454679       10.9888023878       -0.9225371557  MEMB      64              0.0000000000
      7392        64  SLPC      C33            36.8058423948        8.4987967349       11.2629110964  MEMB      64              0.0000000000
      7393        64  SLPC      H3X            35.9945255695        7.7880684087       11.1181614222  MEMB      64              0.0000000000
      7394        64  SLPC      H3Y            37.8523086275        8.1079648314       11.2590841076  MEMB      64              0.0000000000
      7395        64  SLPC      C34            36.8425167521        9.2356436986       10.0125637086  MEMB      64              0.0000000000
      7396        64  SLPC      H4X            37.5662633453        9.9735573858        9.6825369305  MEMB      64              0.0000000000
      7397        64  SLPC      H4Y            36.1725410471        9.8812972659       10.4494096796  MEMB      64              0.0000000000
      7398        64  SLPC      C35            36.3624019786        8.4958593457        8.8538874823  MEMB      64              0.0000000000
      7399        64  SLPC      H5X            36.2616432013        9.1011069969        8.0011255523  MEMB      64              0.0000000000
      7400        64  SLPC      H5Y            35.3519365827        8.1096667378        8.9058410674  MEMB      64              0.0000000000
      7401        64  SLPC      C36            37.4670854834        8.0562104327        8.0063439528  MEMB      64              0.0000000000
      7402        64  SLPC      H6X            38.0926735924        7.4481382653        8.6596742584  MEMB      64              0.0000000000
      7403        64  SLPC      H6Y            38.0863999910        8.9077179625        7.7044968398  MEMB      64              0.0000000000
      7404        64  SLPC      C37            37.0340729081        7.7806325641        6.5686168736  MEMB      64              0.0000000000
      7405        64  SLPC      H7X            37.8324242125        7.8854431420        5.8777878258  MEMB      64              0.0000000000
      7406        64  SLPC      H7Y            36.4945392283        8.5939320877        6.0760615732  MEMB      64              0.0000000000
      7407        64  SLPC      C38            36.2017410651        6.5653243570        6.4291486141  MEMB      64              0.0000000000
      7408        64  SLPC      H8X            35.8970550722        6.5601881832        5.3664081725  MEMB      64              0.0000000000
      7409        64  SLPC      H8Y            35.3280881544        6.7773651600        7.0834722586  MEMB      64              0.0000000000
      7410        64  SLPC      C39            36.9127535608        5.2731931633        6.8190189002  MEMB      64              0.0000000000
      7411        64  SLPC      H9X            37.2214674523        5.3869727538        7.8811878896  MEMB      64              0.0000000000
      7412        64  SLPC      H9Y            37.8582482145        5.1577110399        6.2349121557  MEMB      64              0.0000000000
      7413        64  SLPC      C310           36.0583152176        4.0022745828        6.5800914799  MEMB      64              0.0000000000
      7414        64  SLPC      H10X           36.6050618902        3.1474417748        7.0240846922  MEMB      64              0.0000000000
      7415        64  SLPC      H10Y           35.9705697356        3.8258605849        5.4844317979  MEMB      64              0.0000000000
      7416        64  SLPC      C311           34.6422237604        3.9602846118        7.1937767262  MEMB      64              0.0000000000
      7417        64  SLPC      H11X           34.0817136506        4.8543389682        6.8437532966  MEMB      64              0.0000000000
      7418        64  SLPC      H11Y           34.7777571347        4.0502622271        8.2917159971  MEMB      64              0.0000000000
      7419        64  SLPC      C312           33.8518272371        2.6482500757        6.9048854605  MEMB      64              0.0000000000
      7420        64  SLPC      H12X           34.3082469819        1.7734384291        7.4087245065  MEMB      64              0.0000000000
      7421        64  SLPC      H12Y           33.8313381634        2.4275753842        5.8151686555  MEMB      64              0.0000000000
      7422        64  SLPC      C313           32.4002459113        2.6280049092        7.3578564311  MEMB      64              0.0000000000
      7423        64  SLPC      H13X           32.2594453359        3.1537441906        8.3400443871  MEMB      64              0.0000000000
      7424        64  SLPC      H13Y           31.9828324199        1.6028404786        7.4557334351  MEMB      64              0.0000000000
      7425        64  SLPC      C314           31.5321404733        3.2711870885        6.3143080745  MEMB      64              0.0000000000
      7426        64  SLPC      H14X           31.8918789519        4.3071927268        6.1077780523  MEMB      64              0.0000000000
      7427        64  SLPC      H14Y           30.6062000083        3.2153082796        6.9072284745  MEMB      64              0.0000000000
      7428        64  SLPC      C315           31.0490507041        2.5809568831        5.0405776165  MEMB      64              0.0000000000
      7429        64  SLPC      H15X           30.1193825135        1.9998078570        5.2545510895  MEMB      64              0.0000000000
      7430        64  SLPC      H15Y           31.8581690123        1.8645681692        4.8391056666  MEMB      64              0.0000000000
      7431        64  SLPC      C316           30.8707243705        3.5437092756        3.8339422798  MEMB      64              0.0000000000
      7432        64  SLPC      H16X           31.6266087268        4.3502175279        3.8435643234  MEMB      64              0.0000000000
      7433        64  SLPC      H16Y           29.8955820724        3.9665055221        3.5965671816  MEMB      64              0.0000000000
      7434        64  SLPC      C317           30.9695495997        2.8427855478        2.5333042192  MEMB      64              0.0000000000
      7435        64  SLPC      H17X           30.2169453121        2.0129959304        2.5039772574  MEMB      64              0.0000000000
      7436        64  SLPC      H17Y           32.0340363864        2.5817152994        2.5872410371  MEMB      64              0.0000000000
      7437        64  SLPC      C318           30.9520852341        3.5749512790        1.2271027946  MEMB      64              0.0000000000
      7438        64  SLPC      H18X           30.7902571278        2.8338568715        0.4082817192  MEMB      64              0.0000000000
      7439        64  SLPC      H18Y           31.9599600915        4.0193486213        1.0899105062  MEMB      64              0.0000000000
      7440        64  SLPC      H18Z           30.1664981050        4.3380948870        1.2213622753  MEMB      64              0.0000000000
      7441        65  SAPE      N              16.3032445145       27.4795482457       21.2638102972  MEMB      65              0.0000000000
      7442        65  SAPE      HN1            17.0381027742       28.2125486125       21.3853828533  MEMB      65              0.0000000000
      7443        65  SAPE      HN2            15.6636504212       27.4350097270       22.0856786592  MEMB      65              0.0000000000
      7444        65  SAPE      HN3            16.6602564403       26.5397438170       21.0076031503  MEMB      65              0.0000000000
      7445        65  SAPE      C12            15.4590347826       27.9262285195       20.1119245238  MEMB      65              0.0000000000
      7446        65  SAPE      H12A           14.5609281117       27.3260727408       20.1254338847  MEMB      65              0.0000000000
      7447        65  SAPE      H12B           16.0399943686       27.8013664079       19.1768988468  MEMB      65              0.0000000000
      7448        65  SAPE      C11            14.9268524564       29.3192265697       20.3174378392  MEMB      65              0.0000000000
      7449        65  SAPE      H11A           14.2631952177       29.3948719135       21.1554764074  MEMB      65              0.0000000000
      7450        65  SAPE      H11B           14.2114579041       29.6417304042       19.5399030561  MEMB      65              0.0000000000
      7451        65  SAPE      P              16.5601862139       31.3055342290       19.6998795356  MEMB      65              0.0000000000
      7452        65  SAPE      O13            16.0062577001       32.5590530547       20.2272064033  MEMB      65              0.0000000000
      7453        65  SAPE      O14            18.0160143459       31.0905209051       19.6850500585  MEMB      65              0.0000000000
      7454        65  SAPE      O12            16.0104406502       30.1461118333       20.6109639188  MEMB      65              0.0000000000
      7455        65  SAPE      O11            15.9977786671       30.9421089847       18.2869232206  MEMB      65              0.0000000000
      7456        65  SAPE      C1             14.7032900974       31.4417509596       17.9716495853  MEMB      65              0.0000000000
      7457        65  SAPE      HA             14.0846254931       31.8263921320       18.7895622877  MEMB      65              0.0000000000
      7458        65  SAPE      HB             14.7898398636       32.3441608459       17.4209462688  MEMB      65              0.0000000000
      7459        65  SAPE      C2             13.9441689005       30.5797009373       17.0424372778  MEMB      65              0.0000000000
      7460        65  SAPE      HS             13.7634844160       29.5585748637       17.4487382667  MEMB      65              0.0000000000
      7461        65  SAPE      O21            14.6668831105       30.4254069601       15.9241439098  MEMB      65              0.0000000000
      7462        65  SAPE      C21            15.7816697248       29.6746962792       16.0405287161  MEMB      65              0.0000000000
      7463        65  SAPE      O22            15.9077670754       28.7224475600       16.7756423149  MEMB      65              0.0000000000
      7464        65  SAPE      C22            16.7299754558       29.9663413482       14.8895783640  MEMB      65              0.0000000000
      7465        65  SAPE      H2R            15.7705632508       30.1467456269       14.3747974421  MEMB      65              0.0000000000
      7466        65  SAPE      H2S            16.8455759994       30.9010066303       14.3353274391  MEMB      65              0.0000000000
      7467        65  SAPE      C3             12.6456207705       31.2268985321       16.6249717004  MEMB      65              0.0000000000
      7468        65  SAPE      HX             12.1264748491       31.2162322188       17.6168636959  MEMB      65              0.0000000000
      7469        65  SAPE      HY             12.3335750279       30.5262719542       15.8906693323  MEMB      65              0.0000000000
      7470        65  SAPE      O31            12.4878234813       32.4544183937       15.9577675498  MEMB      65              0.0000000000
      7471        65  SAPE      C31            11.5768030768       32.5651109582       15.0130468647  MEMB      65              0.0000000000
      7472        65  SAPE      O32            11.1542686903       31.6189920692       14.3879686349  MEMB      65              0.0000000000
      7473        65  SAPE      C32            11.5569681148       33.9883505381       14.4157386865  MEMB      65              0.0000000000
      7474        65  SAPE      H2X            11.7468706912       34.8113627167       15.0601440625  MEMB      65              0.0000000000
      7475        65  SAPE      H2Y            10.7027839644       34.1266929027       13.7563465139  MEMB      65              0.0000000000
      7476        65  SAPE      C23            17.8749564172       28.9083323824       14.2718991878  MEMB      65              0.0000000000
      7477        65  SAPE      H3R            18.4165136956       28.7998462638       15.2012059625  MEMB      65              0.0000000000
      7478        65  SAPE      H3S            18.3797208924       29.5458565463       13.5020553308  MEMB      65              0.0000000000
      7479        65  SAPE      C24            17.6587663843       27.5325842153       13.4949421581  MEMB      65              0.0000000000
      7480        65  SAPE      H4R            18.6221657087       27.0324710877       13.0159231020  MEMB      65              0.0000000000
      7481        65  SAPE      H4S            17.1924385564       27.3337656269       12.6261504513  MEMB      65              0.0000000000
      7482        65  SAPE      C25            16.7242862063       26.3873528067       14.0214966915  MEMB      65              0.0000000000
      7483        65  SAPE      H5R            16.8966488896       26.3783007196       15.1427192249  MEMB      65              0.0000000000
      7484        65  SAPE      C26            15.2306789683       26.1402922417       13.6242247514  MEMB      65              0.0000000000
      7485        65  SAPE      H6R            14.7823124137       25.6835747234       14.3907710606  MEMB      65              0.0000000000
      7486        65  SAPE      C27            14.4004263004       25.9114024220       12.1147666885  MEMB      65              0.0000000000
      7487        65  SAPE      H7R            13.7563033808       25.0768873146       12.3715777923  MEMB      65              0.0000000000
      7488        65  SAPE      H7S            15.0524955886       26.0350174808       11.4646702346  MEMB      65              0.0000000000
      7489        65  SAPE      C28            12.9489500208       26.8083244858       12.0426904530  MEMB      65              0.0000000000
      7490        65  SAPE      H8R            12.9558531010       27.4006181548       12.6734958347  MEMB      65              0.0000000000
      7491        65  SAPE      C29            12.4835989156       27.5858470275       10.9997311456  MEMB      65              0.0000000000
      7492        65  SAPE      H9R            12.2482834438       28.6110688901       11.7056109358  MEMB      65              0.0000000000
      7493        65  SAPE      C210           13.4313027637       28.2359018920       10.2812470892  MEMB      65              0.0000000000
      7494        65  SAPE      H10R           12.7025717198       28.1221576119        9.4377106484  MEMB      65              0.0000000000
      7495        65  SAPE      H10S           14.0868142732       27.3006162254        9.8486670571  MEMB      65              0.0000000000
      7496        65  SAPE      C211           14.3720195521       29.4221267949       10.1796815265  MEMB      65              0.0000000000
      7497        65  SAPE      H11R           15.1492116710       29.4303461301       10.3316582771  MEMB      65              0.0000000000
      7498        65  SAPE      C212           14.1963963009       30.7906285891        9.8574978926  MEMB      65              0.0000000000
      7499        65  SAPE      H12R           15.2917643427       31.1599284045        9.5469658594  MEMB      65              0.0000000000
      7500        65  SAPE      C213           13.5045174130       31.2869783885        8.7549423278  MEMB      65              0.0000000000
      7501        65  SAPE      H13R           12.6080972717       30.7720450010        8.5625755188  MEMB      65              0.0000000000
      7502        65  SAPE      H13S           12.9966302309       30.4749902457        8.3932524737  MEMB      65              0.0000000000
      7503        65  SAPE      C214           13.9931475910       32.6089777658        8.2626925513  MEMB      65              0.0000000000
      7504        65  SAPE      H14R           13.4743000696       33.3576471140        8.9246633669  MEMB      65              0.0000000000
      7505        65  SAPE      C215           14.1512617280       33.1219214493        6.9775185172  MEMB      65              0.0000000000
      7506        65  SAPE      H15R           13.8740005019       34.0919665457        6.8391688412  MEMB      65              0.0000000000
      7507        65  SAPE      C216           14.2679903232       32.7715185016        5.4888897837  MEMB      65              0.0000000000
      7508        65  SAPE      H16R           13.7961071017       32.0614483579        6.1065948508  MEMB      65              0.0000000000
      7509        65  SAPE      H16S           15.2836762832       32.4854997029        5.2532210023  MEMB      65              0.0000000000
      7510        65  SAPE      C217           13.6274489643       31.9119653418        4.2887431156  MEMB      65              0.0000000000
      7511        65  SAPE      H17R           13.0989716021       31.0041117675        4.7044604989  MEMB      65              0.0000000000
      7512        65  SAPE      H17S           14.4696274875       31.6684538852        3.6760606731  MEMB      65              0.0000000000
      7513        65  SAPE      C218           12.7208776363       32.1414584257        3.1894416527  MEMB      65              0.0000000000
      7514        65  SAPE      H18R           12.9426517391       33.2044236271        3.1068774246  MEMB      65              0.0000000000
      7515        65  SAPE      H18S           12.1361218064       32.3247734737        4.0630851428  MEMB      65              0.0000000000
      7516        65  SAPE      C219           11.8473496010       30.9300437602        2.2913399965  MEMB      65              0.0000000000
      7517        65  SAPE      H19R           11.4085785269       31.5720368795        1.9395562266  MEMB      65              0.0000000000
      7518        65  SAPE      H19S           10.6611510530       30.7069358728        2.2196845545  MEMB      65              0.0000000000
      7519        65  SAPE      C220           11.9319602892       30.3500835650        1.0131456070  MEMB      65              0.0000000000
      7520        65  SAPE      H20R           10.9019303210       30.5916331192        0.4985489462  MEMB      65              0.0000000000
      7521        65  SAPE      H20S           11.8560653776       29.5782896166        1.8264161108  MEMB      65              0.0000000000
      7522        65  SAPE      H20T           12.7635190923       31.0847752625        0.9057101740  MEMB      65              0.0000000000
      7523        65  SAPE      C33            12.7768048913       33.8958060209       13.5686514615  MEMB      65              0.0000000000
      7524        65  SAPE      H3X            12.2691400974       33.1258383060       12.9949413059  MEMB      65              0.0000000000
      7525        65  SAPE      H3Y            13.4490841400       33.5432308396       14.3575649852  MEMB      65              0.0000000000
      7526        65  SAPE      C34            13.5384214971       34.8738711744       12.6023789463  MEMB      65              0.0000000000
      7527        65  SAPE      H4X            14.2022270091       35.4753215909       13.2559950529  MEMB      65              0.0000000000
      7528        65  SAPE      H4Y            12.6980826183       35.3791322112       12.1890194488  MEMB      65              0.0000000000
      7529        65  SAPE      C35            14.4649158124       34.6244631378       11.3339019947  MEMB      65              0.0000000000
      7530        65  SAPE      H5X            14.3590567273       35.4599746514       10.6520516941  MEMB      65              0.0000000000
      7531        65  SAPE      H5Y            14.1038037945       33.9461287491       10.5607690901  MEMB      65              0.0000000000
      7532        65  SAPE      C36            15.9274571803       34.2220213980       11.5606578132  MEMB      65              0.0000000000
      7533        65  SAPE      H6X            16.0644599512       33.1933696677       11.8726717575  MEMB      65              0.0000000000
      7534        65  SAPE      H6Y            16.5299455374       34.8929179209       12.1890399358  MEMB      65              0.0000000000
      7535        65  SAPE      C37            16.5426274362       33.4262942765       10.4941518920  MEMB      65              0.0000000000
      7536        65  SAPE      H7X            16.0937127840       34.0590338789        9.7666361911  MEMB      65              0.0000000000
      7537        65  SAPE      H7Y            16.1607697312       32.5097577513       10.1007456922  MEMB      65              0.0000000000
      7538        65  SAPE      C38            17.9602558391       33.0396816541       10.7226933420  MEMB      65              0.0000000000
      7539        65  SAPE      H8X            18.0979932316       32.3404954292       11.5688901695  MEMB      65              0.0000000000
      7540        65  SAPE      H8Y            18.5075138625       33.9434342186       11.0578992991  MEMB      65              0.0000000000
      7541        65  SAPE      C39            18.5523396552       32.3602507241        9.5019631160  MEMB      65              0.0000000000
      7542        65  SAPE      H9X            19.3798128318       32.9642131079        9.2475287933  MEMB      65              0.0000000000
      7543        65  SAPE      H9Y            18.2816471032       32.4656203767        8.4615885447  MEMB      65              0.0000000000
      7544        65  SAPE      C310           18.5302358324       30.8815036074        9.4325724913  MEMB      65              0.0000000000
      7545        65  SAPE      H10X           17.4457121695       30.9203101290        9.2776972208  MEMB      65              0.0000000000
      7546        65  SAPE      H10Y           18.8152640729       30.4650446968       10.3927892598  MEMB      65              0.0000000000
      7547        65  SAPE      C311           19.2834382400       30.2459923788        8.2356951054  MEMB      65              0.0000000000
      7548        65  SAPE      H11X           20.3481995025       30.1274340657        8.3298200417  MEMB      65              0.0000000000
      7549        65  SAPE      H11Y           18.9776791615       30.7258684131        7.2814130550  MEMB      65              0.0000000000
      7550        65  SAPE      C312           19.4866759793       28.7521118699        8.1512736036  MEMB      65              0.0000000000
      7551        65  SAPE      H12X           19.6060920576       28.3604558157        9.1983048858  MEMB      65              0.0000000000
      7552        65  SAPE      H12Y           20.1949446681       28.3605936671        7.4065106482  MEMB      65              0.0000000000
      7553        65  SAPE      C313           18.3564854777       28.2021827749        7.5079372798  MEMB      65              0.0000000000
      7554        65  SAPE      H13X           17.9368503307       28.9170496467        8.2129934160  MEMB      65              0.0000000000
      7555        65  SAPE      H13Y           18.0862097968       27.1715261061        7.7542306750  MEMB      65              0.0000000000
      7556        65  SAPE      C314           17.5903266384       28.7246706718        6.3846202613  MEMB      65              0.0000000000
      7557        65  SAPE      H14X           17.4773224556       29.8344697186        6.4437255267  MEMB      65              0.0000000000
      7558        65  SAPE      H14Y           16.6252038764       28.1295821773        6.4290523773  MEMB      65              0.0000000000
      7559        65  SAPE      C315           18.1838900827       28.2595265939        5.2496159658  MEMB      65              0.0000000000
      7560        65  SAPE      H15X           18.1595737232       27.1634500309        5.5033554645  MEMB      65              0.0000000000
      7561        65  SAPE      H15Y           19.1265793410       28.8176864236        5.3563195247  MEMB      65              0.0000000000
      7562        65  SAPE      C316           17.4499645420       28.7669898229        4.0936575396  MEMB      65              0.0000000000
      7563        65  SAPE      H16X           18.0660047352       28.4493699044        3.2656546708  MEMB      65              0.0000000000
      7564        65  SAPE      H16Y           17.1852843703       29.8473883824        4.0185028240  MEMB      65              0.0000000000
      7565        65  SAPE      C317           16.4723521814       27.8647524790        3.5707853188  MEMB      65              0.0000000000
      7566        65  SAPE      H17X           15.7242411735       27.9282287214        4.1514216605  MEMB      65              0.0000000000
      7567        65  SAPE      H17Y           16.1496571234       26.9684226593        4.1457037521  MEMB      65              0.0000000000
      7568        65  SAPE      C318           16.1868592332       28.2021850952        2.0816835198  MEMB      65              0.0000000000
      7569        65  SAPE      H18X           15.2729796832       27.9111086774        1.5714848186  MEMB      65              0.0000000000
      7570        65  SAPE      H18Y           15.9357381696       27.2215732585        1.6705223200  MEMB      65              0.0000000000
      7571        65  SAPE      H18Z           15.7490845992       29.2405623125        1.9466169098  MEMB      65              0.0000000000
      7572        66  SAPS      N              -7.1779945272       36.6477714572       20.7794600616  MEMB      66              0.0000000000
      7573        66  SAPS      HN1            -7.6945595536       36.6567064886       21.6864113926  MEMB      66              0.0000000000
      7574        66  SAPS      HN2            -6.3807747403       37.3147856775       20.8085529535  MEMB      66              0.0000000000
      7575        66  SAPS      HN3            -7.8064622183       36.8654828398       19.9864198759  MEMB      66              0.0000000000
      7576        66  SAPS      C12            -6.6950595624       35.2203551127       20.6683478119  MEMB      66              0.0000000000
      7577        66  SAPS      H12A           -5.7705484818       35.1907159959       20.1074523515  MEMB      66              0.0000000000
      7578        66  SAPS      C13            -6.4161358448       34.5167769206       22.0237483526  MEMB      66              0.0000000000
      7579        66  SAPS      O13A           -6.6310171496       35.1489176397       23.0961968198  MEMB      66              0.0000000000
      7580        66  SAPS      O13B           -5.8519704369       33.3998635212       21.9951217278  MEMB      66              0.0000000000
      7581        66  SAPS      C11            -7.7680504908       34.3995630658       19.9161227510  MEMB      66              0.0000000000
      7582        66  SAPS      H11A           -8.1565328617       34.9064370506       19.0066183385  MEMB      66              0.0000000000
      7583        66  SAPS      H11B           -8.6336465343       34.2584759525       20.6040386960  MEMB      66              0.0000000000
      7584        66  SAPS      P              -6.4491667436       32.6667243460       18.3510908607  MEMB      66              0.0000000000
      7585        66  SAPS      O13            -5.4009796142       33.6623811244       18.0113155817  MEMB      66              0.0000000000
      7586        66  SAPS      O14            -6.0867890098       31.2454501692       18.4790886798  MEMB      66              0.0000000000
      7587        66  SAPS      O12            -7.2571835468       33.1199562480       19.6043686566  MEMB      66              0.0000000000
      7588        66  SAPS      O11            -7.5381589661       32.8089827788       17.2410610744  MEMB      66              0.0000000000
      7589        66  SAPS      C1             -8.8735170348       32.3659732855       17.4529736773  MEMB      66              0.0000000000
      7590        66  SAPS      HA             -8.9342352631       31.3417750467       17.8868843151  MEMB      66              0.0000000000
      7591        66  SAPS      HB             -9.4218451944       33.0690929030       18.1125277103  MEMB      66              0.0000000000
      7592        66  SAPS      C2             -9.6387507302       32.4780410988       16.1391444985  MEMB      66              0.0000000000
      7593        66  SAPS      HS            -10.5862184199       31.8738589587       16.2256459034  MEMB      66              0.0000000000
      7594        66  SAPS      O21            -8.8529818578       32.1209124488       15.0404793714  MEMB      66              0.0000000000
      7595        66  SAPS      C21            -8.8516574407       30.9015810136       14.9325195088  MEMB      66              0.0000000000
      7596        66  SAPS      O22            -9.4685578834       30.1244521722       15.6222647537  MEMB      66              0.0000000000
      7597        66  SAPS      C22            -8.1359626328       30.6547809627       13.6625132849  MEMB      66              0.0000000000
      7598        66  SAPS      H2R            -7.2816231331       29.9705186484       13.8307098717  MEMB      66              0.0000000000
      7599        66  SAPS      H2S            -8.9269032966       30.1979189854       13.0713767714  MEMB      66              0.0000000000
      7600        66  SAPS      C3            -10.0083472829       33.8913852594       15.8805624143  MEMB      66              0.0000000000
      7601        66  SAPS      HX            -10.5886218360       34.2373838074       16.7665483194  MEMB      66              0.0000000000
      7602        66  SAPS      HY            -10.5360827147       34.0991404193       14.9900238731  MEMB      66              0.0000000000
      7603        66  SAPS      O31            -8.8519148511       34.5835662314       15.4640296505  MEMB      66              0.0000000000
      7604        66  SAPS      C31            -8.7254500831       35.6624759763       16.0503957585  MEMB      66              0.0000000000
      7605        66  SAPS      O32            -9.5017731936       36.2033695887       16.8373814163  MEMB      66              0.0000000000
      7606        66  SAPS      C32            -7.4438490898       36.2443703038       15.5219607894  MEMB      66              0.0000000000
      7607        66  SAPS      H2X            -6.9693825744       35.6410231843       14.7223494330  MEMB      66              0.0000000000
      7608        66  SAPS      H2Y            -6.7784882053       36.4610778066       16.3723549586  MEMB      66              0.0000000000
      7609        66  SAPS      C23            -8.0522547455       31.8603620263       12.7404155391  MEMB      66              0.0000000000
      7610        66  SAPS      H3R            -9.0168967288       32.3706492125       12.6685144321  MEMB      66              0.0000000000
      7611        66  SAPS      H3S            -7.9582768571       31.4471738855       11.7019385670  MEMB      66              0.0000000000
      7612        66  SAPS      C24            -6.9823213597       32.8388244285       13.2107675126  MEMB      66              0.0000000000
      7613        66  SAPS      H4R            -6.0652852652       32.3841161421       13.5114568608  MEMB      66              0.0000000000
      7614        66  SAPS      H4S            -6.9289540111       33.0560885312       14.3078303268  MEMB      66              0.0000000000
      7615        66  SAPS      C25            -6.4747959909       33.7001035490       12.0882409004  MEMB      66              0.0000000000
      7616        66  SAPS      H5R            -6.2710942040       34.6871398209       12.5045386331  MEMB      66              0.0000000000
      7617        66  SAPS      C26            -6.2019909087       33.5366803978       10.7539255078  MEMB      66              0.0000000000
      7618        66  SAPS      H6R            -5.6303259706       34.3955519327       10.3783787315  MEMB      66              0.0000000000
      7619        66  SAPS      C27            -6.1665242273       32.5851063005        9.5513909833  MEMB      66              0.0000000000
      7620        66  SAPS      H7R            -6.0453012543       31.4723604564        9.3720905692  MEMB      66              0.0000000000
      7621        66  SAPS      H7S            -5.2287295507       32.9979096646        9.1777116804  MEMB      66              0.0000000000
      7622        66  SAPS      C28            -7.0459960219       32.3467084702        8.5059032085  MEMB      66              0.0000000000
      7623        66  SAPS      H8R            -7.9281708016       31.8157824080        8.8864785238  MEMB      66              0.0000000000
      7624        66  SAPS      C29            -6.5275333139       32.4090601720        7.2807432684  MEMB      66              0.0000000000
      7625        66  SAPS      H9R            -7.2701794015       32.2875812549        6.5162424906  MEMB      66              0.0000000000
      7626        66  SAPS      C210           -5.0673399665       32.7331916230        6.9233353552  MEMB      66              0.0000000000
      7627        66  SAPS      H10R           -4.9767321760       31.9995667133        6.1487000156  MEMB      66              0.0000000000
      7628        66  SAPS      H10S           -4.2160236016       32.4201946059        7.6007061986  MEMB      66              0.0000000000
      7629        66  SAPS      C211           -4.9207167937       34.2285680615        6.6606508936  MEMB      66              0.0000000000
      7630        66  SAPS      H11R           -5.3255056271       34.7897474994        7.5167007761  MEMB      66              0.0000000000
      7631        66  SAPS      C212           -4.3295817918       35.0214708607        5.7302248000  MEMB      66              0.0000000000
      7632        66  SAPS      H12R           -4.4954258354       36.0985257326        5.8126841867  MEMB      66              0.0000000000
      7633        66  SAPS      C213           -3.5182166344       34.7698853092        4.5081027308  MEMB      66              0.0000000000
      7634        66  SAPS      H13R           -3.0015439157       33.8612840974        4.7312269369  MEMB      66              0.0000000000
      7635        66  SAPS      H13S           -2.5632781139       35.2628504385        4.3407379895  MEMB      66              0.0000000000
      7636        66  SAPS      C214           -4.1941926384       34.9292075464        3.1911809117  MEMB      66              0.0000000000
      7637        66  SAPS      H14R           -5.2593784254       35.1909927443        3.1958496870  MEMB      66              0.0000000000
      7638        66  SAPS      C215           -3.5589936199       34.6407696182        2.0486784644  MEMB      66              0.0000000000
      7639        66  SAPS      H15R           -4.1118009056       34.6428486389        1.1280188977  MEMB      66              0.0000000000
      7640        66  SAPS      C216           -2.1806379805       34.1451187515        1.8026690278  MEMB      66              0.0000000000
      7641        66  SAPS      H16R           -1.7032324768       33.7940834791        2.7351184051  MEMB      66              0.0000000000
      7642        66  SAPS      H16S           -1.4899797009       34.9049640318        1.4305236062  MEMB      66              0.0000000000
      7643        66  SAPS      C217           -2.1926011743       33.0911519400        0.6904065282  MEMB      66              0.0000000000
      7644        66  SAPS      H17R           -2.5828920474       33.3738952101       -0.2992264801  MEMB      66              0.0000000000
      7645        66  SAPS      H17S           -2.8382254774       32.3178277664        0.9406451943  MEMB      66              0.0000000000
      7646        66  SAPS      C218           -0.8487185718       32.4211428017        0.7389987170  MEMB      66              0.0000000000
      7647        66  SAPS      H18R           -0.5386847686       31.9616715288        1.6842031841  MEMB      66              0.0000000000
      7648        66  SAPS      H18S           -0.3947901959       33.3132815167        0.7021795520  MEMB      66              0.0000000000
      7649        66  SAPS      C219           -0.3969022391       31.5324124189       -0.3321080866  MEMB      66              0.0000000000
      7650        66  SAPS      H19R           -1.3324917585       31.0032472808        0.0434649390  MEMB      66              0.0000000000
      7651        66  SAPS      H19S            0.4672335132       30.8791864641       -0.2216606157  MEMB      66              0.0000000000
      7652        66  SAPS      C220           -0.4550564029       31.8054786896       -1.8318366615  MEMB      66              0.0000000000
      7653        66  SAPS      H20R           -0.2663382035       31.0280494747       -2.6077546521  MEMB      66              0.0000000000
      7654        66  SAPS      H20S           -0.4418173213       32.8449931374       -2.1809142754  MEMB      66              0.0000000000
      7655        66  SAPS      H20T           -1.4859053401       31.5746088238       -1.8403439919  MEMB      66              0.0000000000
      7656        66  SAPS      C33            -7.9140721322       37.4947190091       14.9218355324  MEMB      66              0.0000000000
      7657        66  SAPS      H3X            -7.2072246732       38.3515824375       14.8745162757  MEMB      66              0.0000000000
      7658        66  SAPS      H3Y            -8.3923966622       37.9530012971       15.8140914287  MEMB      66              0.0000000000
      7659        66  SAPS      C34            -8.7752311234       37.2196860053       13.6219237064  MEMB      66              0.0000000000
      7660        66  SAPS      H4X            -8.7593628970       38.0484875028       12.8671743850  MEMB      66              0.0000000000
      7661        66  SAPS      H4Y            -9.8225708322       37.0461985372       13.9327991569  MEMB      66              0.0000000000
      7662        66  SAPS      C35            -8.4130467665       36.3922986777       12.4390134690  MEMB      66              0.0000000000
      7663        66  SAPS      H5X            -8.2797551486       35.3670826399       12.7826759266  MEMB      66              0.0000000000
      7664        66  SAPS      H5Y            -7.4922823662       36.8017949977       12.0151986012  MEMB      66              0.0000000000
      7665        66  SAPS      C36            -9.3653661056       36.6138339539       11.2426999540  MEMB      66              0.0000000000
      7666        66  SAPS      H6X            -9.2524713396       37.6415681494       10.8437618582  MEMB      66              0.0000000000
      7667        66  SAPS      H6Y           -10.4293656052       36.4667161273       11.4952581750  MEMB      66              0.0000000000
      7668        66  SAPS      C37            -8.8957809201       35.6977303824       10.1456400288  MEMB      66              0.0000000000
      7669        66  SAPS      H7X            -9.1028849294       34.6524902778       10.4635111214  MEMB      66              0.0000000000
      7670        66  SAPS      H7Y            -7.7892406848       35.8419177469       10.1026442746  MEMB      66              0.0000000000
      7671        66  SAPS      C38            -9.4468423783       35.9740363056        8.7581325326  MEMB      66              0.0000000000
      7672        66  SAPS      H8X            -9.5290206519       37.0527950276        8.4934707444  MEMB      66              0.0000000000
      7673        66  SAPS      H8Y           -10.4522213156       35.5076650566        8.6934401309  MEMB      66              0.0000000000
      7674        66  SAPS      C39            -8.4984702024       35.3778272325        7.7343665315  MEMB      66              0.0000000000
      7675        66  SAPS      H9X            -8.3425789994       34.3140286933        7.9829397682  MEMB      66              0.0000000000
      7676        66  SAPS      H9Y            -7.5139650735       35.9011716331        7.7876472399  MEMB      66              0.0000000000
      7677        66  SAPS      C310           -9.0989822636       35.4607130063        6.3457108049  MEMB      66              0.0000000000
      7678        66  SAPS      H10X           -9.2966266580       36.5243369268        6.0898277727  MEMB      66              0.0000000000
      7679        66  SAPS      H10Y          -10.0608091966       34.9030186794        6.3691748243  MEMB      66              0.0000000000
      7680        66  SAPS      C311           -8.1525665838       34.9007242779        5.3166289781  MEMB      66              0.0000000000
      7681        66  SAPS      H11X           -7.8614949400       33.8480230634        5.5144106719  MEMB      66              0.0000000000
      7682        66  SAPS      H11Y           -7.2125453310       35.4982020681        5.3096592207  MEMB      66              0.0000000000
      7683        66  SAPS      C312           -8.6678369954       34.9307351773        3.9159764648  MEMB      66              0.0000000000
      7684        66  SAPS      H12X           -8.5378582978       35.9559689246        3.5148574252  MEMB      66              0.0000000000
      7685        66  SAPS      H12Y           -9.7388809579       34.6605260821        3.7516495885  MEMB      66              0.0000000000
      7686        66  SAPS      C313           -7.7753447309       33.9208221035        3.2316879857  MEMB      66              0.0000000000
      7687        66  SAPS      H13X           -6.7550879084       33.8217378772        3.6234812073  MEMB      66              0.0000000000
      7688        66  SAPS      H13Y           -7.3455544398       34.3200131085        2.3631786375  MEMB      66              0.0000000000
      7689        66  SAPS      C314           -8.5513435849       32.6862316109        2.8619570548  MEMB      66              0.0000000000
      7690        66  SAPS      H14X           -9.6454960424       32.8849701212        2.7381664235  MEMB      66              0.0000000000
      7691        66  SAPS      H14Y           -8.3475807322       31.9447707833        3.6513097306  MEMB      66              0.0000000000
      7692        66  SAPS      C315           -8.2108051348       32.1701124711        1.5117509563  MEMB      66              0.0000000000
      7693        66  SAPS      H15X           -8.1623431886       32.9760625479        0.7355673586  MEMB      66              0.0000000000
      7694        66  SAPS      H15Y           -8.8305490688       31.2843899049        1.3325121757  MEMB      66              0.0000000000
      7695        66  SAPS      C316           -7.0133429584       31.3501302655        1.3171378920  MEMB      66              0.0000000000
      7696        66  SAPS      H16X           -6.8588598173       31.3506470283        2.4012135876  MEMB      66              0.0000000000
      7697        66  SAPS      H16Y           -6.3170233367       32.1869911139        1.3883049934  MEMB      66              0.0000000000
      7698        66  SAPS      C317           -6.8554228590       29.8821638182        0.2094583642  MEMB      66              0.0000000000
      7699        66  SAPS      H17X           -5.9748535286       30.3463218053       -0.2610251154  MEMB      66              0.0000000000
      7700        66  SAPS      H17Y           -7.5453757864       29.9436794929       -0.6018558110  MEMB      66              0.0000000000
      7701        66  SAPS      C318           -6.3355334042       28.1213365300        0.3648501512  MEMB      66              0.0000000000
      7702        66  SAPS      H18X           -6.8572911529       27.4081734653        1.0062148997  MEMB      66              0.0000000000
      7703        66  SAPS      H18Y           -5.6354235401       27.8603954355        1.2140481840  MEMB      66              0.0000000000
      7704        66  SAPS      H18Z           -5.3704772359       27.6956040366        0.0766904016  MEMB      66              0.0000000000
      7705        67  CHL1      C3            -17.5347819829      -29.8771141895       17.2798312847  MEMB      67              0.0000000000
      7706        67  CHL1      H3            -17.4187091328      -28.7687970101       17.2662767486  MEMB      67              0.0000000000
      7707        67  CHL1      O3            -17.4663623673      -30.3122782743       18.6345614289  MEMB      67              0.0000000000
      7708        67  CHL1      H3'           -16.5071166181      -30.3087713680       18.8258922800  MEMB      67              0.0000000000
      7709        67  CHL1      C4            -18.8806927413      -30.2354120923       16.6415088594  MEMB      67              0.0000000000
      7710        67  CHL1      H4A           -19.0799410631      -31.3268981986       16.7506160468  MEMB      67              0.0000000000
      7711        67  CHL1      H4B           -19.6635508710      -29.7087871095       17.2191896219  MEMB      67              0.0000000000
      7712        67  CHL1      C5            -18.9615924737      -29.8682136578       15.1765901408  MEMB      67              0.0000000000
      7713        67  CHL1      C6            -19.9731642827      -29.1558057279       14.6708075262  MEMB      67              0.0000000000
      7714        67  CHL1      H6            -20.6765045212      -28.6836830402       15.3556386076  MEMB      67              0.0000000000
      7715        67  CHL1      C7            -20.2659924347      -28.9933633597       13.2097365657  MEMB      67              0.0000000000
      7716        67  CHL1      H7A           -21.3118704380      -28.9971380590       12.8618924026  MEMB      67              0.0000000000
      7717        67  CHL1      H7B           -20.2400215708      -27.9525448968       13.0617597856  MEMB      67              0.0000000000
      7718        67  CHL1      C8            -19.3391127040      -29.8552594435       12.3068615923  MEMB      67              0.0000000000
      7719        67  CHL1      H8            -19.8137428527      -30.8354085218       12.2523913252  MEMB      67              0.0000000000
      7720        67  CHL1      C14           -19.3527768394      -29.3881004347       10.8615402067  MEMB      67              0.0000000000
      7721        67  CHL1      H14           -18.8068726911      -28.6259519722       11.3550122921  MEMB      67              0.0000000000
      7722        67  CHL1      C15           -20.6087692383      -28.8529976068       10.0621817534  MEMB      67              0.0000000000
      7723        67  CHL1      H15A          -21.4790706117      -29.4443267158       10.3310592877  MEMB      67              0.0000000000
      7724        67  CHL1      H15B          -20.9742556339      -27.8013313487       10.0955882786  MEMB      67              0.0000000000
      7725        67  CHL1      C16           -20.2717857176      -28.9669186759        8.5727094921  MEMB      67              0.0000000000
      7726        67  CHL1      H16A          -20.9692314411      -29.5717372651        7.9907187092  MEMB      67              0.0000000000
      7727        67  CHL1      H16B          -20.5206600750      -27.9528472748        8.1526442181  MEMB      67              0.0000000000
      7728        67  CHL1      C17           -18.7913939749      -29.5625277099        8.4877740373  MEMB      67              0.0000000000
      7729        67  CHL1      H17           -17.9017469944      -29.0060704714        8.6737509893  MEMB      67              0.0000000000
      7730        67  CHL1      C13           -18.4410387603      -30.1034342822        9.8661464949  MEMB      67              0.0000000000
      7731        67  CHL1      C18           -19.1358920258      -31.3603574122        9.6684479713  MEMB      67              0.0000000000
      7732        67  CHL1      H18A          -18.5859543182      -31.9248434393        8.8805150586  MEMB      67              0.0000000000
      7733        67  CHL1      H18B          -19.0524356980      -31.7699096810       10.6803841439  MEMB      67              0.0000000000
      7734        67  CHL1      H18C          -20.2088360803      -31.2941532684        9.4339283907  MEMB      67              0.0000000000
      7735        67  CHL1      C12           -16.9253189554      -30.1414507438       10.3660893072  MEMB      67              0.0000000000
      7736        67  CHL1      H12A          -16.2803825053      -30.7724438147        9.7213546966  MEMB      67              0.0000000000
      7737        67  CHL1      H12B          -16.3770398646      -29.1755031620       10.3444976317  MEMB      67              0.0000000000
      7738        67  CHL1      C11           -16.8381628947      -30.5539651683       11.8461289063  MEMB      67              0.0000000000
      7739        67  CHL1      H11A          -17.1585669333      -31.5972161652       11.7976640426  MEMB      67              0.0000000000
      7740        67  CHL1      H11B          -15.7744920069      -30.4662150278       12.1873796713  MEMB      67              0.0000000000
      7741        67  CHL1      C9            -17.8476421513      -29.9120177974       12.8596078469  MEMB      67              0.0000000000
      7742        67  CHL1      H9            -17.3703495009      -28.9178683350       12.9783366461  MEMB      67              0.0000000000
      7743        67  CHL1      C10           -17.8284454196      -30.4058572866       14.3347017310  MEMB      67              0.0000000000
      7744        67  CHL1      C19           -18.1398669794      -31.8206832010       14.2802637402  MEMB      67              0.0000000000
      7745        67  CHL1      H19A          -18.2832646092      -32.4033484549       15.2109430084  MEMB      67              0.0000000000
      7746        67  CHL1      H19B          -19.0214180635      -31.9536511365       13.6377864056  MEMB      67              0.0000000000
      7747        67  CHL1      H19C          -17.2634950800      -32.2413415393       13.7614647804  MEMB      67              0.0000000000
      7748        67  CHL1      C1            -16.4452675680      -30.2458487646       14.9969151655  MEMB      67              0.0000000000
      7749        67  CHL1      H1A           -15.7039660011      -30.9291806695       14.5190668561  MEMB      67              0.0000000000
      7750        67  CHL1      H1B           -16.1642111165      -29.1938442534       14.8094540433  MEMB      67              0.0000000000
      7751        67  CHL1      C2            -16.3856621620      -30.5238106059       16.5087620363  MEMB      67              0.0000000000
      7752        67  CHL1      H2A           -15.4326665051      -30.0921801800       16.8811520427  MEMB      67              0.0000000000
      7753        67  CHL1      H2B           -16.3911575360      -31.6268068512       16.6716109171  MEMB      67              0.0000000000
      7754        67  CHL1      C20           -18.2821258776      -29.9538831634        7.0839258016  MEMB      67              0.0000000000
      7755        67  CHL1      H20           -18.8773913506      -30.8243696903        6.8186348155  MEMB      67              0.0000000000
      7756        67  CHL1      C21           -16.7347407539      -30.2090653668        7.1359565670  MEMB      67              0.0000000000
      7757        67  CHL1      H21A          -16.1730947370      -29.4283103493        7.7057332593  MEMB      67              0.0000000000
      7758        67  CHL1      H21B          -16.2442368089      -30.2750337384        6.1458764753  MEMB      67              0.0000000000
      7759        67  CHL1      H21C          -16.5768819165      -31.1760256329        7.6488593483  MEMB      67              0.0000000000
      7760        67  CHL1      C22           -18.6361294690      -28.8808269030        6.0221264429  MEMB      67              0.0000000000
      7761        67  CHL1      H22A          -19.6990289715      -28.5617201700        6.0972913986  MEMB      67              0.0000000000
      7762        67  CHL1      H22B          -17.9421692644      -28.1238733522        6.3669612294  MEMB      67              0.0000000000
      7763        67  CHL1      C23           -18.3747568503      -29.1536304751        4.5373524833  MEMB      67              0.0000000000
      7764        67  CHL1      H23A          -17.2784802161      -29.2016346425        4.3516579739  MEMB      67              0.0000000000
      7765        67  CHL1      H23B          -18.8340088349      -30.1459856419        4.3966416253  MEMB      67              0.0000000000
      7766        67  CHL1      C24           -19.0383173916      -28.1949841915        3.5113777995  MEMB      67              0.0000000000
      7767        67  CHL1      H24A          -20.1000264448      -27.9888762724        3.7587164052  MEMB      67              0.0000000000
      7768        67  CHL1      H24B          -18.4658022431      -27.2551675911        3.4805305221  MEMB      67              0.0000000000
      7769        67  CHL1      C25           -19.0032674321      -28.6975183522        2.0604398479  MEMB      67              0.0000000000
      7770        67  CHL1      H25           -19.6444884724      -29.6015975563        1.9600108949  MEMB      67              0.0000000000
      7771        67  CHL1      C26           -19.4226406634      -27.6350546454        1.0392186498  MEMB      67              0.0000000000
      7772        67  CHL1      H26A          -20.4221120478      -27.2472715127        1.3021984495  MEMB      67              0.0000000000
      7773        67  CHL1      H26B          -18.6837846476      -26.8013349275        1.0496245786  MEMB      67              0.0000000000
      7774        67  CHL1      H26C          -19.4439208261      -28.0655415140        0.0111632917  MEMB      67              0.0000000000
      7775        67  CHL1      C27           -17.6050645119      -29.0591554920        1.7031627463  MEMB      67              0.0000000000
      7776        67  CHL1      H27A          -17.2151154342      -29.9169365411        2.2902416040  MEMB      67              0.0000000000
      7777        67  CHL1      H27B          -17.5881144661      -29.3316501512        0.6233086902  MEMB      67              0.0000000000
      7778        67  CHL1      H27C          -16.9092735160      -28.2008990664        1.8519989014  MEMB      67              0.0000000000
      7779        68  POPC      N               2.1615883200       36.2538379209       20.3085015873  MEMB      68              0.0000000000
      7780        68  POPC      C12             2.9643283974       36.0459742458       19.0742913316  MEMB      68              0.0000000000
      7781        68  POPC      H12A            3.7944460184       35.3853014939       19.3236903753  MEMB      68              0.0000000000
      7782        68  POPC      H12B            3.3913912518       37.0130427130       18.8227385218  MEMB      68              0.0000000000
      7783        68  POPC      C13             1.5896660305       35.0378914891       20.9996663669  MEMB      68              0.0000000000
      7784        68  POPC      H13A            0.9679357993       35.3184596478       21.8509412298  MEMB      68              0.0000000000
      7785        68  POPC      H13B            0.9508591585       34.5053056517       20.2940244280  MEMB      68              0.0000000000
      7786        68  POPC      H13C            2.3560249828       34.3460109563       21.3186901826  MEMB      68              0.0000000000
      7787        68  POPC      C14             3.1585694551       36.8440422082       21.1712305182  MEMB      68              0.0000000000
      7788        68  POPC      H14A            3.9509667611       36.1901968014       21.5320544118  MEMB      68              0.0000000000
      7789        68  POPC      H14B            3.5459376792       37.8153631253       20.8746729751  MEMB      68              0.0000000000
      7790        68  POPC      H14C            2.5189155121       36.9263983660       22.0207505095  MEMB      68              0.0000000000
      7791        68  POPC      C15             1.0036515935       37.1619963499       20.0725721391  MEMB      68              0.0000000000
      7792        68  POPC      H15A            0.7363249266       37.0877712044       19.0209838763  MEMB      68              0.0000000000
      7793        68  POPC      H15B            1.2350002244       38.1891366439       20.2882050707  MEMB      68              0.0000000000
      7794        68  POPC      H15C            0.1119296293       36.8159981998       20.5994837378  MEMB      68              0.0000000000
      7795        68  POPC      C11             2.2339083415       35.5449814595       17.8485343710  MEMB      68              0.0000000000
      7796        68  POPC      H11A            3.0112200111       35.3605811487       17.0660637228  MEMB      68              0.0000000000
      7797        68  POPC      H11B            1.5516074663       36.3325991519       17.4627612285  MEMB      68              0.0000000000
      7798        68  POPC      P               1.9513308435       32.9592208470       17.8494316233  MEMB      68              0.0000000000
      7799        68  POPC      O13             1.1010331728       32.0362982148       18.6234854475  MEMB      68              0.0000000000
      7800        68  POPC      O14             3.4099178149       32.9522308383       18.0822080820  MEMB      68              0.0000000000
      7801        68  POPC      O12             1.4736075858       34.4038671941       18.2100806574  MEMB      68              0.0000000000
      7802        68  POPC      O11             1.5782669334       32.9809289062       16.2946760108  MEMB      68              0.0000000000
      7803        68  POPC      C1              2.7126124510       32.9466191590       15.4530423705  MEMB      68              0.0000000000
      7804        68  POPC      HA              3.1245019087       31.9698900389       15.6982804576  MEMB      68              0.0000000000
      7805        68  POPC      HB              3.4705258443       33.7314703780       15.7181425842  MEMB      68              0.0000000000
      7806        68  POPC      C2              2.4897945966       33.2196606234       13.9326066112  MEMB      68              0.0000000000
      7807        68  POPC      HS              3.5061226487       33.2104046646       13.4474284568  MEMB      68              0.0000000000
      7808        68  POPC      O21             1.7270065080       34.3574514899       13.7453973866  MEMB      68              0.0000000000
      7809        68  POPC      C21             2.4572913018       35.3804616722       13.7098846688  MEMB      68              0.0000000000
      7810        68  POPC      O22             3.6802549740       35.4241639978       13.7569019326  MEMB      68              0.0000000000
      7811        68  POPC      C22             1.5020406492       36.4982724939       13.4819272042  MEMB      68              0.0000000000
      7812        68  POPC      H2R             0.9835482692       36.7191170231       14.4350624820  MEMB      68              0.0000000000
      7813        68  POPC      H2S             0.7321966435       36.1065323559       12.7819885559  MEMB      68              0.0000000000
      7814        68  POPC      C3              1.7414405637       32.2474687243       13.1052553143  MEMB      68              0.0000000000
      7815        68  POPC      HX              0.8868808580       31.9734882319       13.7690984013  MEMB      68              0.0000000000
      7816        68  POPC      HY              2.5571329120       31.5931069630       13.0686543403  MEMB      68              0.0000000000
      7817        68  POPC      O31             1.5212641170       32.4902680334       11.7032576880  MEMB      68              0.0000000000
      7818        68  POPC      C31             2.6274210635       32.3105566077       10.9272662193  MEMB      68              0.0000000000
      7819        68  POPC      O32             3.6800895745       31.8269919382       11.2060577648  MEMB      68              0.0000000000
      7820        68  POPC      C32             2.4241781193       32.6721242695        9.5813867502  MEMB      68              0.0000000000
      7821        68  POPC      H2X             1.4669922419       33.1823901678        9.6508336359  MEMB      68              0.0000000000
      7822        68  POPC      H2Y             2.3971970527       31.7578135711        8.9601164146  MEMB      68              0.0000000000
      7823        68  POPC      C23             2.2902801702       37.6933625273       12.9452993114  MEMB      68              0.0000000000
      7824        68  POPC      H3R             3.1514616462       37.3572180868       12.3181052538  MEMB      68              0.0000000000
      7825        68  POPC      H3S             2.6595229981       38.2847705716       13.8073354678  MEMB      68              0.0000000000
      7826        68  POPC      C24             1.5001485490       38.6431819904       12.0873855813  MEMB      68              0.0000000000
      7827        68  POPC      H4R             2.1378205317       39.4855372512       11.7471995682  MEMB      68              0.0000000000
      7828        68  POPC      H4S             0.5993803637       39.0284538064       12.6273486010  MEMB      68              0.0000000000
      7829        68  POPC      C25             1.0430222348       38.0012699890       10.8457502592  MEMB      68              0.0000000000
      7830        68  POPC      H5R             0.4946821866       37.1003864317       11.1335249422  MEMB      68              0.0000000000
      7831        68  POPC      H5S             1.8118240248       37.6153535727       10.1509101977  MEMB      68              0.0000000000
      7832        68  POPC      C26             0.1871796294       38.9897381541       10.1754433429  MEMB      68              0.0000000000
      7833        68  POPC      H6R             0.4481430598       39.9596761516        9.7381487609  MEMB      68              0.0000000000
      7834        68  POPC      H6S            -0.7973955252       39.1706833475       10.7710677192  MEMB      68              0.0000000000
      7835        68  POPC      C27             0.0435116690       38.3496969799        8.8668909105  MEMB      68              0.0000000000
      7836        68  POPC      H7R            -1.0070585449       38.8339728328        8.6968235294  MEMB      68              0.0000000000
      7837        68  POPC      H7S            -0.6900820808       37.8041856901        9.4759874669  MEMB      68              0.0000000000
      7838        68  POPC      C28             0.9715034925       37.1050714753        7.5221909651  MEMB      68              0.0000000000
      7839        68  POPC      H8R             1.4243469032       36.2994581448        8.0417917790  MEMB      68              0.0000000000
      7840        68  POPC      H8S             1.6464613416       37.8817055342        7.7373307657  MEMB      68              0.0000000000
      7841        68  POPC      C29             0.2765506876       36.5187303928        5.8630395730  MEMB      68              0.0000000000
      7842        68  POPC      H91            -0.8071132050       36.7404850609        5.4969436407  MEMB      68              0.0000000000
      7843        68  POPC      C210            0.0452024675       35.3408016371        5.3521387603  MEMB      68              0.0000000000
      7844        68  POPC      H101           -1.0739240345       34.9887774945        5.3836169926  MEMB      68              0.0000000000
      7845        68  POPC      C211            0.6498261611       34.5206086114        6.3279943132  MEMB      68              0.0000000000
      7846        68  POPC      H11R            0.0199956875       34.3642265629        7.2001086618  MEMB      68              0.0000000000
      7847        68  POPC      H11S            1.6252345670       34.8786162949        6.6839903970  MEMB      68              0.0000000000
      7848        68  POPC      C212            1.1925132755       33.4752230710        5.4203314885  MEMB      68              0.0000000000
      7849        68  POPC      H12R            0.3007827017       33.0806831958        4.9412507122  MEMB      68              0.0000000000
      7850        68  POPC      H12S            1.8042791303       32.7754408961        6.0434342193  MEMB      68              0.0000000000
      7851        68  POPC      C213            1.8137503995       33.7801380968        4.1198381318  MEMB      68              0.0000000000
      7852        68  POPC      H13R            2.7612352564       34.1663339299        4.5090185340  MEMB      68              0.0000000000
      7853        68  POPC      H13S            1.1941859552       34.5109589544        3.5749015418  MEMB      68              0.0000000000
      7854        68  POPC      C214            1.9565079963       32.5832661073        3.2057214993  MEMB      68              0.0000000000
      7855        68  POPC      H14R            2.7813579027       32.8922221679        2.5304528121  MEMB      68              0.0000000000
      7856        68  POPC      H14S            1.0910089483       32.3810657816        2.5567376309  MEMB      68              0.0000000000
      7857        68  POPC      C215            2.3285352877       31.3362953549        3.9638860815  MEMB      68              0.0000000000
      7858        68  POPC      H15R            1.5555691099       30.8601285140        4.5845273779  MEMB      68              0.0000000000
      7859        68  POPC      H15S            3.1527087216       31.6631858053        4.6262406521  MEMB      68              0.0000000000
      7860        68  POPC      C216            2.7794025368       30.2921903966        3.0067555776  MEMB      68              0.0000000000
      7861        68  POPC      H16R            3.2879769051       29.4791472801        3.5721319917  MEMB      68              0.0000000000
      7862        68  POPC      H16S            3.4877909425       30.8128408668        2.3366806377  MEMB      68              0.0000000000
      7863        68  POPC      C217            1.7250181495       29.7488086396        2.1579586001  MEMB      68              0.0000000000
      7864        68  POPC      H17R            1.4064453747       30.3911894401        1.3332040973  MEMB      68              0.0000000000
      7865        68  POPC      H17S            0.8938069458       29.4382909425        2.8326496146  MEMB      68              0.0000000000
      7866        68  POPC      C218            2.2787621571       28.6320636628        1.4421011889  MEMB      68              0.0000000000
      7867        68  POPC      H18R            3.1614755520       28.5292784536        0.8291375483  MEMB      68              0.0000000000
      7868        68  POPC      H18S            1.7407677828       27.7500472374        1.3054288506  MEMB      68              0.0000000000
      7869        68  POPC      H18T            2.1394026970       27.8016626254        1.9854887735  MEMB      68              0.0000000000
      7870        68  POPC      C33             3.6078993517       33.4726534946        9.0924722028  MEMB      68              0.0000000000
      7871        68  POPC      H3X             3.6138505835       33.3679255402        7.9896865277  MEMB      68              0.0000000000
      7872        68  POPC      H3Y             4.5893444503       33.0813145697        9.4571422093  MEMB      68              0.0000000000
      7873        68  POPC      C34             3.4365505814       34.9166315548        9.4971109545  MEMB      68              0.0000000000
      7874        68  POPC      H4X             3.5774527791       34.9845966402       10.6016577547  MEMB      68              0.0000000000
      7875        68  POPC      H4Y             2.3953822006       35.2270290992        9.2854564066  MEMB      68              0.0000000000
      7876        68  POPC      C35             4.4389197248       35.8357919112        8.8006451424  MEMB      68              0.0000000000
      7877        68  POPC      H5X             5.4691103469       35.4666245222        9.0022100121  MEMB      68              0.0000000000
      7878        68  POPC      H5Y             4.3313108869       36.8244475675        9.3009204807  MEMB      68              0.0000000000
      7879        68  POPC      C36             4.2690750697       35.9972893880        7.2759489438  MEMB      68              0.0000000000
      7880        68  POPC      H6X             3.4938752699       36.7752127042        7.1087738738  MEMB      68              0.0000000000
      7881        68  POPC      H6Y             3.9135921646       35.0746609311        6.7711877889  MEMB      68              0.0000000000
      7882        68  POPC      C37             5.5537576259       36.5019422117        6.6016631652  MEMB      68              0.0000000000
      7883        68  POPC      H7X             6.3918180200       35.7690793835        6.6509264796  MEMB      68              0.0000000000
      7884        68  POPC      H7Y             5.8559387528       37.4211259842        7.1470174209  MEMB      68              0.0000000000
      7885        68  POPC      C38             5.4294470318       36.8515348266        5.1276017187  MEMB      68              0.0000000000
      7886        68  POPC      H8X             5.6749932544       35.9612943779        4.5076431989  MEMB      68              0.0000000000
      7887        68  POPC      H8Y             6.1245278904       37.6963583268        4.8911639588  MEMB      68              0.0000000000
      7888        68  POPC      C39             4.0944198535       37.3233156191        4.6308121043  MEMB      68              0.0000000000
      7889        68  POPC      H9X             3.8022451164       38.2100351325        5.2376741268  MEMB      68              0.0000000000
      7890        68  POPC      H9Y             3.2967114854       36.5549070250        4.7310915159  MEMB      68              0.0000000000
      7891        68  POPC      C310            4.3806440806       37.6948820933        3.1856863843  MEMB      68              0.0000000000
      7892        68  POPC      H10X            4.8587979782       36.8654094390        2.6143207546  MEMB      68              0.0000000000
      7893        68  POPC      H10Y            4.9333666965       38.6632242907        3.1195231832  MEMB      68              0.0000000000
      7894        68  POPC      C311            3.2725146787       37.7471521775        2.2462781563  MEMB      68              0.0000000000
      7895        68  POPC      H11X            3.6238414855       38.4423390922        1.4495609902  MEMB      68              0.0000000000
      7896        68  POPC      H11Y            2.6987666547       38.5925998284        2.1796779023  MEMB      68              0.0000000000
      7897        68  POPC      C312            2.1222966275       36.7165323547        2.4379693125  MEMB      68              0.0000000000
      7898        68  POPC      H12X            1.1078855621       37.0199710873        2.1549360173  MEMB      68              0.0000000000
      7899        68  POPC      H12Y            1.8064027343       36.5274753614        3.4684057654  MEMB      68              0.0000000000
      7900        68  POPC      C313            2.3348897459       35.6035205537        1.4715536411  MEMB      68              0.0000000000
      7901        68  POPC      H13X            3.0896962792       34.9459727198        1.8769644115  MEMB      68              0.0000000000
      7902        68  POPC      H13Y            2.9011130203       36.0740222747        0.6414541111  MEMB      68              0.0000000000
      7903        68  POPC      C314            1.0645205835       34.9399764519        0.9316636845  MEMB      68              0.0000000000
      7904        68  POPC      H14X            0.2349689917       35.5670718775        0.5037213529  MEMB      68              0.0000000000
      7905        68  POPC      H14Y            0.5182230036       34.4977904393        1.7839175443  MEMB      68              0.0000000000
      7906        68  POPC      C315            1.4730998786       33.9599828804       -0.2260511057  MEMB      68              0.0000000000
      7907        68  POPC      H15X            0.5743567040       33.6450944334       -0.7500033250  MEMB      68              0.0000000000
      7908        68  POPC      H15Y            2.0022924902       33.1400014411        0.2771981786  MEMB      68              0.0000000000
      7909        68  POPC      C316            2.0923113420       34.3685676744       -1.5347957160  MEMB      68              0.0000000000
      7910        68  POPC      H16X            1.3247609783       34.9772537915       -2.1078267611  MEMB      68              0.0000000000
      7911        68  POPC      H16Y            2.5141581514       33.6168194663       -2.1897924977  MEMB      68              0.0000000000
      7912        68  POPC      H16Z            2.9060652181       34.9776409474       -1.1389502754  MEMB      68              0.0000000000
      7913        69  OSM       N             -35.6705196168       -1.1115920353       21.7670956753  MEMB      69              0.0000000000
      7914        69  OSM       C15           -36.2762108114       -2.1562530037       20.9129647539  MEMB      69              0.0000000000
      7915        69  OSM       H15A          -37.2188689645       -2.4612142009       21.3771646531  MEMB      69              0.0000000000
      7916        69  OSM       H15B          -35.6192521520       -3.0007354789       20.7591808708  MEMB      69              0.0000000000
      7917        69  OSM       H15C          -36.5485908359       -1.7250166297       19.9532209852  MEMB      69              0.0000000000
      7918        69  OSM       C14           -36.7346384608       -0.1361066266       21.8736338553  MEMB      69              0.0000000000
      7919        69  OSM       H14A          -37.1103854527        0.2737847746       20.9423030799  MEMB      69              0.0000000000
      7920        69  OSM       H14B          -36.2630429915        0.6988467583       22.3823630954  MEMB      69              0.0000000000
      7921        69  OSM       H14C          -37.5767211873       -0.4555134998       22.4877747498  MEMB      69              0.0000000000
      7922        69  OSM       C13           -35.2804596427       -1.6542632065       23.0969288789  MEMB      69              0.0000000000
      7923        69  OSM       H13A          -36.1096529214       -2.1181771147       23.5627960326  MEMB      69              0.0000000000
      7924        69  OSM       H13B          -34.9742024127       -0.8892504924       23.7992227506  MEMB      69              0.0000000000
      7925        69  OSM       H13C          -34.5091792531       -2.4110598246       22.9394431868  MEMB      69              0.0000000000
      7926        69  OSM       C12           -34.4251382948       -0.4196114731       21.2738695115  MEMB      69              0.0000000000
      7927        69  OSM       H12A          -34.1760447658        0.3759921867       21.9747885507  MEMB      69              0.0000000000
      7928        69  OSM       H12B          -34.5546469776        0.0590300118       20.3116039099  MEMB      69              0.0000000000
      7929        69  OSM       C11           -33.1947640383       -1.3246752621       21.2299676316  MEMB      69              0.0000000000
      7930        69  OSM       H11A          -32.9714273494       -1.7069352847       22.2516166949  MEMB      69              0.0000000000
      7931        69  OSM       H11B          -32.3105687727       -0.7224775150       20.9213024538  MEMB      69              0.0000000000
      7932        69  OSM       P             -32.5611706715       -3.6531745059       20.2180258426  MEMB      69              0.0000000000
      7933        69  OSM       O13           -31.1260800945       -3.3155470513       20.2701550421  MEMB      69              0.0000000000
      7934        69  OSM       O14           -33.0807936871       -4.6249699335       21.2210101816  MEMB      69              0.0000000000
      7935        69  OSM       O11           -32.8918830987       -4.1395903588       18.7522947614  MEMB      69              0.0000000000
      7936        69  OSM       O12           -33.4622490032       -2.3648494249       20.3104486011  MEMB      69              0.0000000000
      7937        69  OSM       C1S           -34.2278994219       -4.1426300367       18.2538229464  MEMB      69              0.0000000000
      7938        69  OSM       H1S           -34.8403941065       -3.3105724130       18.6670178733  MEMB      69              0.0000000000
      7939        69  OSM       H1T           -34.7300268314       -5.1044753164       18.4583224307  MEMB      69              0.0000000000
      7940        69  OSM       NF            -33.7212789896       -5.0603088323       16.0658956992  MEMB      69              0.0000000000
      7941        69  OSM       HNF           -32.7492662089       -5.1099932782       15.8870162662  MEMB      69              0.0000000000
      7942        69  OSM       C2S           -34.2061696574       -3.9633288296       16.7394430940  MEMB      69              0.0000000000
      7943        69  OSM       H2S           -35.2452521278       -3.7113300730       16.3427639260  MEMB      69              0.0000000000
      7944        69  OSM       C3S           -33.4280920267       -2.8412300305       16.3660389467  MEMB      69              0.0000000000
      7945        69  OSM       H3S           -32.3856776253       -2.7684089211       16.7729570502  MEMB      69              0.0000000000
      7946        69  OSM       O3            -34.2336018384       -1.8296063680       16.8869114723  MEMB      69              0.0000000000
      7947        69  OSM       HO3           -34.6091294001       -2.0461948417       17.7388730805  MEMB      69              0.0000000000
      7948        69  OSM       C4S           -33.3907270162       -2.7420406600       14.8865692288  MEMB      69              0.0000000000
      7949        69  OSM       H4S           -34.2822750487       -2.2767956463       14.4703231191  MEMB      69              0.0000000000
      7950        69  OSM       C5S           -32.4131510013       -3.1421487042       14.0911983626  MEMB      69              0.0000000000
      7951        69  OSM       H5S           -31.4189437842       -3.1772015499       14.5816230916  MEMB      69              0.0000000000
      7952        69  OSM       C6S           -32.5321355734       -2.9623931748       12.5968168218  MEMB      69              0.0000000000
      7953        69  OSM       H6S           -32.3495803773       -3.7397993983       11.8526345489  MEMB      69              0.0000000000
      7954        69  OSM       H6T           -31.4792000163       -2.6548458299       12.4534745868  MEMB      69              0.0000000000
      7955        69  OSM       C7S           -33.7310610119       -2.0965539415       12.0069154127  MEMB      69              0.0000000000
      7956        69  OSM       H7S           -33.8911952736       -1.1364120120       12.5115514668  MEMB      69              0.0000000000
      7957        69  OSM       H7T           -34.7284711428       -2.2197574675       12.4595784001  MEMB      69              0.0000000000
      7958        69  OSM       C8S           -33.6689354323       -1.9329377973       10.4363376024  MEMB      69              0.0000000000
      7959        69  OSM       H8S           -34.5983959042       -1.3165879610       10.2209095778  MEMB      69              0.0000000000
      7960        69  OSM       H8T           -33.9161480899       -2.8708132111        9.9617330865  MEMB      69              0.0000000000
      7961        69  OSM       C9S           -32.3103601264       -1.4201665564        9.6454694239  MEMB      69              0.0000000000
      7962        69  OSM       H9S           -31.3888335618       -1.7510023564       10.0693705530  MEMB      69              0.0000000000
      7963        69  OSM       H9T           -32.0315425508       -0.3076549409        9.5054105680  MEMB      69              0.0000000000
      7964        69  OSM       C10S          -32.3938089904       -1.6846134052        8.1976315660  MEMB      69              0.0000000000
      7965        69  OSM       H10S          -32.8744218591       -2.6343880521        7.9449920813  MEMB      69              0.0000000000
      7966        69  OSM       H10T          -31.5980288343       -1.1941145941        7.5611510274  MEMB      69              0.0000000000
      7967        69  OSM       C11S          -33.5532027652       -1.0670369805        7.7096694792  MEMB      69              0.0000000000
      7968        69  OSM       H11S          -33.6996351344       -0.3404898500        8.4992463391  MEMB      69              0.0000000000
      7969        69  OSM       H11T          -34.5300804546       -1.1372585738        8.2192795017  MEMB      69              0.0000000000
      7970        69  OSM       C12S          -33.2351520833       -0.6714061618        6.2260343565  MEMB      69              0.0000000000
      7971        69  OSM       H12S          -32.3324629803       -0.1096404060        5.8857309375  MEMB      69              0.0000000000
      7972        69  OSM       H12T          -33.6308218897        0.2105563502        5.7456706448  MEMB      69              0.0000000000
      7973        69  OSM       C13S          -33.9834526381       -1.7441785666        5.5906642558  MEMB      69              0.0000000000
      7974        69  OSM       H13S          -35.0380670486       -1.8766021272        5.9421617134  MEMB      69              0.0000000000
      7975        69  OSM       H13T          -33.2492882940       -2.5436791102        5.6548226015  MEMB      69              0.0000000000
      7976        69  OSM       C14S          -34.3071341206       -1.4178681180        4.2715673258  MEMB      69              0.0000000000
      7977        69  OSM       H14S          -33.2761086950       -1.0452410679        4.0272864794  MEMB      69              0.0000000000
      7978        69  OSM       H14T          -34.8785354664       -0.5011001635        4.4017206183  MEMB      69              0.0000000000
      7979        69  OSM       C15S          -35.2746920064       -2.4302294656        3.5228995919  MEMB      69              0.0000000000
      7980        69  OSM       H15S          -36.0435033736       -2.6822313412        4.2437005969  MEMB      69              0.0000000000
      7981        69  OSM       H15T          -34.5696676844       -3.2711117839        3.5129042285  MEMB      69              0.0000000000
      7982        69  OSM       C16S          -36.2292458000       -2.1876331085        2.2538807346  MEMB      69              0.0000000000
      7983        69  OSM       H16S          -35.7325399981       -2.2612377602        1.2758356032  MEMB      69              0.0000000000
      7984        69  OSM       H16T          -36.8093252098       -1.2479558298        2.2428200569  MEMB      69              0.0000000000
      7985        69  OSM       C17S          -37.0450374134       -3.1634574116        1.4930883642  MEMB      69              0.0000000000
      7986        69  OSM       H17S          -37.9098066924       -3.3360389228        2.1062465238  MEMB      69              0.0000000000
      7987        69  OSM       H17T          -36.5050010453       -4.0990824931        1.4001902802  MEMB      69              0.0000000000
      7988        69  OSM       C18S          -37.3177500569       -2.5308532846        0.1103400166  MEMB      69              0.0000000000
      7989        69  OSM       H18S          -37.9486255606       -3.0185065099       -0.6339272034  MEMB      69              0.0000000000
      7990        69  OSM       H18T          -36.5205157286       -2.2793568693       -0.6124398329  MEMB      69              0.0000000000
      7991        69  OSM       H18U          -37.4590815310       -1.4833441800        0.3332797412  MEMB      69              0.0000000000
      7992        69  OSM       C1F           -34.5873690297       -5.9278166025       15.8074783510  MEMB      69              0.0000000000
      7993        69  OSM       OF            -35.7101745276       -5.8758975708       16.2749786551  MEMB      69              0.0000000000
      7994        69  OSM       C2F           -34.1258779577       -6.9893029661       15.0144089702  MEMB      69              0.0000000000
      7995        69  OSM       H2F           -34.3525706926       -7.8189300425       15.5662463917  MEMB      69              0.0000000000
      7996        69  OSM       H2G           -33.2025179347       -7.0843776423       14.4919284017  MEMB      69              0.0000000000
      7997        69  OSM       C3F           -34.6530547136       -7.1955534218       13.7578158761  MEMB      69              0.0000000000
      7998        69  OSM       H3F           -35.6960365487       -7.2525378319       14.0424964539  MEMB      69              0.0000000000
      7999        69  OSM       H3G           -34.1798998249       -8.1751866949       13.4018514705  MEMB      69              0.0000000000
      8000        69  OSM       C4F           -34.5827040967       -5.9889202564       12.8992475910  MEMB      69              0.0000000000
      8001        69  OSM       H4F           -33.5750066663       -5.6925851005       12.7375569612  MEMB      69              0.0000000000
      8002        69  OSM       H4G           -35.0977381419       -5.1541422508       13.3562518550  MEMB      69              0.0000000000
      8003        69  OSM       C5F           -35.0967497540       -6.3161189097       11.5724779199  MEMB      69              0.0000000000
      8004        69  OSM       H5F           -36.1945366597       -6.4288929082       11.6361731264  MEMB      69              0.0000000000
      8005        69  OSM       H5G           -34.5141532727       -7.2380124632       11.6188074807  MEMB      69              0.0000000000
      8006        69  OSM       C6F           -34.5749166922       -5.5779169859       10.3922167800  MEMB      69              0.0000000000
      8007        69  OSM       H6F           -33.5964791956       -5.9495447022       10.0111889923  MEMB      69              0.0000000000
      8008        69  OSM       H6G           -34.4595900810       -4.5742340945       10.7922230375  MEMB      69              0.0000000000
      8009        69  OSM       C7F           -35.5505918812       -5.5563906781        9.2584867203  MEMB      69              0.0000000000
      8010        69  OSM       H7F           -36.5303125552       -5.1299331834        9.4941075399  MEMB      69              0.0000000000
      8011        69  OSM       H7G           -35.9669403797       -6.5725650470        9.2499572239  MEMB      69              0.0000000000
      8012        69  OSM       C8F           -34.8848761830       -4.9254630601        8.0048604554  MEMB      69              0.0000000000
      8013        69  OSM       H8F           -34.0119833510       -5.4664758159        7.5512292100  MEMB      69              0.0000000000
      8014        69  OSM       H8G           -34.4304361038       -3.9784037337        8.3270905392  MEMB      69              0.0000000000
      8015        69  OSM       C9F           -36.0095184891       -4.6437509721        7.0529811548  MEMB      69              0.0000000000
      8016        69  OSM       H9F           -36.7360539539       -3.9165264213        7.3543056247  MEMB      69              0.0000000000
      8017        69  OSM       C10F          -36.3426506779       -5.2691271994        5.9626157647  MEMB      69              0.0000000000
      8018        69  OSM       H10F          -37.2387742338       -5.0697879456        5.3746465050  MEMB      69              0.0000000000
      8019        69  OSM       C11F          -35.6440000498       -6.3829738951        5.4814520460  MEMB      69              0.0000000000
      8020        69  OSM       H11F          -36.1902652009       -7.2273236365        5.9263463234  MEMB      69              0.0000000000
      8021        69  OSM       H11G          -34.5379855451       -6.3745366453        5.5738603318  MEMB      69              0.0000000000
      8022        69  OSM       C12F          -36.1874341885       -6.4556144930        4.2233450744  MEMB      69              0.0000000000
      8023        69  OSM       H12F          -37.2275435127       -6.7899809426        4.0127349287  MEMB      69              0.0000000000
      8024        69  OSM       H12G          -36.0280675024       -7.5380027103        4.2870891077  MEMB      69              0.0000000000
      8025        69  OSM       C13F          -35.3073053735       -5.6281765897        3.2330905602  MEMB      69              0.0000000000
      8026        69  OSM       H13F          -35.8206042504       -4.6950254192        3.1342395233  MEMB      69              0.0000000000
      8027        69  OSM       H13G          -35.6512887907       -5.8198618272        2.2091696404  MEMB      69              0.0000000000
      8028        69  OSM       C14F          -33.7072486429       -5.6228569992        3.3179169183  MEMB      69              0.0000000000
      8029        69  OSM       H14F          -32.8238645438       -6.2414838561        3.0794317083  MEMB      69              0.0000000000
      8030        69  OSM       H14G          -33.3079242576       -5.8106876505        4.2699989634  MEMB      69              0.0000000000
      8031        69  OSM       C15F          -33.1279257823       -5.6403920841        1.9581226590  MEMB      69              0.0000000000
      8032        69  OSM       H15F          -33.3639730843       -4.6627890101        2.3685880864  MEMB      69              0.0000000000
      8033        69  OSM       H15G          -33.9166356086       -6.0607976099        1.3117189767  MEMB      69              0.0000000000
      8034        69  OSM       C16F          -31.7911557872       -5.1274671992        1.3626290908  MEMB      69              0.0000000000
      8035        69  OSM       H16F          -31.2378185813       -6.0639221409        1.4133366280  MEMB      69              0.0000000000
      8036        69  OSM       H16G          -31.4615190839       -4.6607653984        2.3045371016  MEMB      69              0.0000000000
      8037        69  OSM       C17F          -31.4851748101       -4.2708910483       -0.0982315505  MEMB      69              0.0000000000
      8038        69  OSM       H17F          -30.6941448071       -3.5464377602        0.0863632113  MEMB      69              0.0000000000
      8039        69  OSM       H17G          -32.1356154217       -3.4915631350       -0.5007495371  MEMB      69              0.0000000000
      8040        69  OSM       C18F          -31.5015426840       -4.7874610907       -1.5160297936  MEMB      69              0.0000000000
      8041        69  OSM       H18F          -32.4134332160       -5.3409982815       -1.7648329173  MEMB      69              0.0000000000
      8042        69  OSM       H18G          -30.5849680269       -5.3763884240       -1.4718869295  MEMB      69              0.0000000000
      8043        69  OSM       H18H          -31.6055913907       -4.1618877405       -2.4133323766  MEMB      69              0.0000000000
      8044        70  SAPS      N              29.5708200189      -17.2860061735       20.1889583790  MEMB      70              0.0000000000
      8045        70  SAPS      HN1            28.5702500376      -17.4465905905       19.9722910780  MEMB      70              0.0000000000
      8046        70  SAPS      HN2            30.1990859319      -17.6875815255       19.4573645087  MEMB      70              0.0000000000
      8047        70  SAPS      HN3            29.8092844729      -17.7940550939       21.0540388936  MEMB      70              0.0000000000
      8048        70  SAPS      C12            29.9300616990      -15.8349534117       20.2901231382  MEMB      70              0.0000000000
      8049        70  SAPS      H12A           29.5372376304      -15.3568525039       19.4073387890  MEMB      70              0.0000000000
      8050        70  SAPS      C13            29.4202495339      -15.1032666663       21.5394701583  MEMB      70              0.0000000000
      8051        70  SAPS      O13A           28.7262788073      -15.7290624418       22.3734225688  MEMB      70              0.0000000000
      8052        70  SAPS      O13B           29.7527908251      -13.9045424212       21.6823945402  MEMB      70              0.0000000000
      8053        70  SAPS      C11            31.4603668815      -15.6387078878       20.2246408685  MEMB      70              0.0000000000
      8054        70  SAPS      H11A           31.9231181134      -16.1543419896       21.1048885002  MEMB      70              0.0000000000
      8055        70  SAPS      H11B           31.7139240487      -14.5566901825       20.3000791536  MEMB      70              0.0000000000
      8056        70  SAPS      P              32.7936553208      -17.3542019201       18.7729378260  MEMB      70              0.0000000000
      8057        70  SAPS      O13            34.1948659830      -16.9654403989       19.0508309576  MEMB      70              0.0000000000
      8058        70  SAPS      O14            32.1035673490      -18.3676571855       19.5986759310  MEMB      70              0.0000000000
      8059        70  SAPS      O12            31.9356332982      -16.0610293423       18.9510315277  MEMB      70              0.0000000000
      8060        70  SAPS      O11            32.5110229361      -17.6552602417       17.2471726444  MEMB      70              0.0000000000
      8061        70  SAPS      C1             33.0415883800      -16.7689565404       16.2662969338  MEMB      70              0.0000000000
      8062        70  SAPS      HA             33.8181425014      -16.0750382555       16.6732246926  MEMB      70              0.0000000000
      8063        70  SAPS      HB             33.5135786593      -17.3765965708       15.4629629974  MEMB      70              0.0000000000
      8064        70  SAPS      C2             31.9919405526      -15.8925562991       15.5499583623  MEMB      70              0.0000000000
      8065        70  SAPS      HS             31.6732268918      -15.0722451793       16.2411865545  MEMB      70              0.0000000000
      8066        70  SAPS      O21            30.8879838572      -16.6891060956       15.0747339837  MEMB      70              0.0000000000
      8067        70  SAPS      C21            29.6602149024      -16.2136139192       15.1708009112  MEMB      70              0.0000000000
      8068        70  SAPS      O22            29.2974343854      -15.2266346938       15.7851660593  MEMB      70              0.0000000000
      8069        70  SAPS      C22            28.7246975271      -17.1043029151       14.3581567466  MEMB      70              0.0000000000
      8070        70  SAPS      H2R            28.9448159048      -18.1546209805       14.6399743010  MEMB      70              0.0000000000
      8071        70  SAPS      H2S            27.6912817725      -16.8506452932       14.6614873378  MEMB      70              0.0000000000
      8072        70  SAPS      C3             32.7629524306      -15.2688277725       14.3531352188  MEMB      70              0.0000000000
      8073        70  SAPS      HX             33.2530589183      -16.0634689291       13.7477188785  MEMB      70              0.0000000000
      8074        70  SAPS      HY             33.5938048568      -14.6386368378       14.7418916851  MEMB      70              0.0000000000
      8075        70  SAPS      O31            31.8884493637      -14.5169040022       13.5258333707  MEMB      70              0.0000000000
      8076        70  SAPS      C31            31.4847027573      -13.3978395256       14.1562618495  MEMB      70              0.0000000000
      8077        70  SAPS      O32            31.9279628868      -12.9769958731       15.1948639678  MEMB      70              0.0000000000
      8078        70  SAPS      C32            30.4637163326      -12.6776974232       13.3922793749  MEMB      70              0.0000000000
      8079        70  SAPS      H2X            30.7737498336      -11.6212312371       13.3048759797  MEMB      70              0.0000000000
      8080        70  SAPS      H2Y            29.4592352051      -12.6905401305       13.8687089260  MEMB      70              0.0000000000
      8081        70  SAPS      C23            28.8998503170      -16.8155993021       12.8470944372  MEMB      70              0.0000000000
      8082        70  SAPS      H3R            29.9899700459      -16.8509499996       12.5810243904  MEMB      70              0.0000000000
      8083        70  SAPS      H3S            28.5225967280      -15.7950291150       12.6503393180  MEMB      70              0.0000000000
      8084        70  SAPS      C24            28.1065688535      -17.7102915539       11.8985285610  MEMB      70              0.0000000000
      8085        70  SAPS      H4R            28.3105040765      -17.3674191050       10.8571274499  MEMB      70              0.0000000000
      8086        70  SAPS      H4S            27.0136960206      -17.6488163659       12.0635627072  MEMB      70              0.0000000000
      8087        70  SAPS      C25            28.6644556110      -19.0558301042       12.2046525053  MEMB      70              0.0000000000
      8088        70  SAPS      H5R            28.1933907527      -19.5871048629       13.0413356990  MEMB      70              0.0000000000
      8089        70  SAPS      C26            29.5871915295      -19.6655826385       11.4695417390  MEMB      70              0.0000000000
      8090        70  SAPS      H6R            29.8859829537      -20.6908087466       11.7372036001  MEMB      70              0.0000000000
      8091        70  SAPS      C27            30.2172349032      -19.1576214247       10.2105642056  MEMB      70              0.0000000000
      8092        70  SAPS      H7R            29.6195901379      -18.4031629290        9.6375514442  MEMB      70              0.0000000000
      8093        70  SAPS      H7S            30.3119573546      -20.0549725149        9.5915379270  MEMB      70              0.0000000000
      8094        70  SAPS      C28            31.6351410485      -18.8081110774       10.4088093928  MEMB      70              0.0000000000
      8095        70  SAPS      H8R            32.1466210752      -19.5902907918       10.9866743206  MEMB      70              0.0000000000
      8096        70  SAPS      C29            32.2963244055      -17.7370620959        9.9384763275  MEMB      70              0.0000000000
      8097        70  SAPS      H9R            33.3709794373      -17.7026205558       10.1391760092  MEMB      70              0.0000000000
      8098        70  SAPS      C210           31.7823327950      -16.5948704162        9.0845308540  MEMB      70              0.0000000000
      8099        70  SAPS      H10R           32.5588435877      -15.8038252752        9.0332715324  MEMB      70              0.0000000000
      8100        70  SAPS      H10S           30.9032705154      -16.1050089146        9.5555889264  MEMB      70              0.0000000000
      8101        70  SAPS      C211           31.4027393852      -17.0074295705        7.6895589174  MEMB      70              0.0000000000
      8102        70  SAPS      H11R           30.4151616083      -17.4947608093        7.6383856226  MEMB      70              0.0000000000
      8103        70  SAPS      C212           32.1363631564      -16.9043781170        6.5601625803  MEMB      70              0.0000000000
      8104        70  SAPS      H12R           31.6858536909      -17.3164457129        5.6472271783  MEMB      70              0.0000000000
      8105        70  SAPS      C213           33.5408681650      -16.3554730117        6.3490946642  MEMB      70              0.0000000000
      8106        70  SAPS      H13R           33.7990546169      -15.5695042494        7.0886555048  MEMB      70              0.0000000000
      8107        70  SAPS      H13S           33.5983668299      -15.8177105363        5.3739379571  MEMB      70              0.0000000000
      8108        70  SAPS      C214           34.5946355888      -17.4419170940        6.4143013597  MEMB      70              0.0000000000
      8109        70  SAPS      H14R           35.2584925134      -17.3925242938        7.2895064136  MEMB      70              0.0000000000
      8110        70  SAPS      C215           34.7759844122      -18.4479111647        5.5370684043  MEMB      70              0.0000000000
      8111        70  SAPS      H15R           35.4875157673      -19.2496438507        5.7830173205  MEMB      70              0.0000000000
      8112        70  SAPS      C216           33.9517823804      -18.6822456987        4.3039972939  MEMB      70              0.0000000000
      8113        70  SAPS      H16R           33.3141767705      -17.8033392071        4.0600215875  MEMB      70              0.0000000000
      8114        70  SAPS      H16S           33.2508660660      -19.5272551891        4.4728686959  MEMB      70              0.0000000000
      8115        70  SAPS      C217           34.7948661649      -19.0092093022        3.0772282235  MEMB      70              0.0000000000
      8116        70  SAPS      H17R           35.3236303787      -19.9848922007        3.1562230931  MEMB      70              0.0000000000
      8117        70  SAPS      H17S           35.5776720369      -18.2418467600        2.8683165956  MEMB      70              0.0000000000
      8118        70  SAPS      C218           33.9036132906      -19.0493181487        1.8693007201  MEMB      70              0.0000000000
      8119        70  SAPS      H18R           33.6168999936      -17.9998110173        1.6233225021  MEMB      70              0.0000000000
      8120        70  SAPS      H18S           32.9476654634      -19.6182706080        1.9982256547  MEMB      70              0.0000000000
      8121        70  SAPS      C219           34.7241195164      -19.5727824565        0.7411694133  MEMB      70              0.0000000000
      8122        70  SAPS      H19R           35.0140351807      -20.6515118477        0.7775545506  MEMB      70              0.0000000000
      8123        70  SAPS      H19S           35.5610642723      -18.9107645673        0.4398181148  MEMB      70              0.0000000000
      8124        70  SAPS      C220           33.8904672643      -19.4748158592       -0.3852572197  MEMB      70              0.0000000000
      8125        70  SAPS      H20R           33.5064407687      -18.4578797284       -0.6526637841  MEMB      70              0.0000000000
      8126        70  SAPS      H20S           32.9928997101      -19.9645449114       -0.2484845857  MEMB      70              0.0000000000
      8127        70  SAPS      H20T           34.3972236505      -20.0656396495       -1.1892351215  MEMB      70              0.0000000000
      8128        70  SAPS      C33            30.3995706742      -13.4062941529       12.1091116002  MEMB      70              0.0000000000
      8129        70  SAPS      H3X            29.7667197841      -14.3018162128       12.2077260958  MEMB      70              0.0000000000
      8130        70  SAPS      H3Y            31.3393416855      -13.5652650960       11.5082042575  MEMB      70              0.0000000000
      8131        70  SAPS      C34            29.7006750037      -12.5654353936       11.3049471289  MEMB      70              0.0000000000
      8132        70  SAPS      H4X            30.4890841562      -11.8108674529       10.9190131462  MEMB      70              0.0000000000
      8133        70  SAPS      H4Y            28.6678990978      -12.2556165860       11.6682202113  MEMB      70              0.0000000000
      8134        70  SAPS      C35            29.3864779807      -13.2392596614       10.1408298029  MEMB      70              0.0000000000
      8135        70  SAPS      H5X            30.2059866398      -13.1167424117        9.4013598902  MEMB      70              0.0000000000
      8136        70  SAPS      H5Y            29.0279007975      -12.2007055277        9.8268995914  MEMB      70              0.0000000000
      8137        70  SAPS      C36            28.4487146428      -14.7267727969       10.1454883588  MEMB      70              0.0000000000
      8138        70  SAPS      H6X            27.8247058133      -14.7132687415       11.0274860230  MEMB      70              0.0000000000
      8139        70  SAPS      H6Y            29.3059334850      -15.2932061965       10.4112340477  MEMB      70              0.0000000000
      8140        70  SAPS      C37            27.5113135012      -15.6505669887        8.8999105895  MEMB      70              0.0000000000
      8141        70  SAPS      H7X            26.7498132952      -15.1803117293        8.2558304501  MEMB      70              0.0000000000
      8142        70  SAPS      H7Y            26.6549872421      -16.2194211135        9.2467526247  MEMB      70              0.0000000000
      8143        70  SAPS      C38            27.6667698199      -15.5765139340        7.3395331340  MEMB      70              0.0000000000
      8144        70  SAPS      H8X            28.6689735080      -15.9396427440        7.3444433100  MEMB      70              0.0000000000
      8145        70  SAPS      H8Y            27.4366432145      -14.6037377630        6.7005385038  MEMB      70              0.0000000000
      8146        70  SAPS      C39            26.8378792824      -15.8332812204        6.2367684147  MEMB      70              0.0000000000
      8147        70  SAPS      H9X            25.8454299894      -15.2747678908        6.3505908093  MEMB      70              0.0000000000
      8148        70  SAPS      H9Y            26.9048662442      -16.7948997687        6.6969037757  MEMB      70              0.0000000000
      8149        70  SAPS      C310           27.8796404462      -15.7790522460        5.0637830264  MEMB      70              0.0000000000
      8150        70  SAPS      H10X           27.1630436269      -16.4329881245        4.5340929022  MEMB      70              0.0000000000
      8151        70  SAPS      H10Y           28.7064297002      -16.4158168908        5.3429027202  MEMB      70              0.0000000000
      8152        70  SAPS      C311           28.5383232701      -14.4613018504        4.3240919880  MEMB      70              0.0000000000
      8153        70  SAPS      H11X           29.1701038589      -13.7364026637        4.7445507917  MEMB      70              0.0000000000
      8154        70  SAPS      H11Y           27.8324199587      -13.6601930037        4.2398572736  MEMB      70              0.0000000000
      8155        70  SAPS      C312           29.5034927175      -14.4819427253        3.1024670140  MEMB      70              0.0000000000
      8156        70  SAPS      H12X           29.4381653146      -13.6837191235        2.3643798828  MEMB      70              0.0000000000
      8157        70  SAPS      H12Y           29.5318543811      -15.3362569673        2.4172147962  MEMB      70              0.0000000000
      8158        70  SAPS      C313           30.8273481710      -14.7590793564        3.5440440276  MEMB      70              0.0000000000
      8159        70  SAPS      H13X           30.6769870981      -15.6957207749        4.1397851291  MEMB      70              0.0000000000
      8160        70  SAPS      H13Y           31.0207009431      -13.8386474819        4.1358878294  MEMB      70              0.0000000000
      8161        70  SAPS      C314           31.5666183149      -14.9510344736        2.2406376242  MEMB      70              0.0000000000
      8162        70  SAPS      H14X           31.2549763372      -14.1450547989        1.5245882733  MEMB      70              0.0000000000
      8163        70  SAPS      H14Y           31.3217716388      -15.9234105095        1.7398004256  MEMB      70              0.0000000000
      8164        70  SAPS      C315           32.9903074408      -14.8797602132        2.6253062234  MEMB      70              0.0000000000
      8165        70  SAPS      H15X           33.2116522031      -15.8208970791        3.1695325579  MEMB      70              0.0000000000
      8166        70  SAPS      H15Y           33.0719146123      -14.0215505515        3.3332308217  MEMB      70              0.0000000000
      8167        70  SAPS      C316           33.8364372256      -14.6549791516        1.4001630210  MEMB      70              0.0000000000
      8168        70  SAPS      H16X           33.4319728208      -15.2872982916        0.5750653807  MEMB      70              0.0000000000
      8169        70  SAPS      H16Y           34.8627319267      -15.0036700291        1.6277106094  MEMB      70              0.0000000000
      8170        70  SAPS      C317           33.8274852706      -13.1596772617        1.0654993138  MEMB      70              0.0000000000
      8171        70  SAPS      H17X           34.5167451037      -12.6208494516        1.7462161390  MEMB      70              0.0000000000
      8172        70  SAPS      H17Y           32.7991793992      -12.7497457896        1.2199569597  MEMB      70              0.0000000000
      8173        70  SAPS      C318           34.2477965140      -12.8158904990       -0.3333861409  MEMB      70              0.0000000000
      8174        70  SAPS      H18X           34.2303754785      -11.7123979630       -0.4879535723  MEMB      70              0.0000000000
      8175        70  SAPS      H18Y           33.5147469937      -13.3023252024       -1.0168460517  MEMB      70              0.0000000000
      8176        70  SAPS      H18Z           35.2737755721      -13.1583729670       -0.5820494872  MEMB      70              0.0000000000
      8177        71  OSM       N              26.9485712379      -24.0388298427       22.9965502047  MEMB      71              0.0000000000
      8178        71  OSM       C15            26.2131437198      -25.2392423668       22.5147952187  MEMB      71              0.0000000000
      8179        71  OSM       H15A           26.0315398465      -25.1316585173       21.4476979589  MEMB      71              0.0000000000
      8180        71  OSM       H15B           25.2639757430      -25.4012057955       23.0045030714  MEMB      71              0.0000000000
      8181        71  OSM       H15C           26.7695205515      -26.1552883945       22.6746841702  MEMB      71              0.0000000000
      8182        71  OSM       C14            26.9062460245      -23.9569303634       24.4783763128  MEMB      71              0.0000000000
      8183        71  OSM       H14A           27.5274683653      -24.7170708811       24.9238777839  MEMB      71              0.0000000000
      8184        71  OSM       H14B           25.9006796076      -24.1232497541       24.8490830038  MEMB      71              0.0000000000
      8185        71  OSM       H14C           27.2142180655      -22.9804470893       24.8505711483  MEMB      71              0.0000000000
      8186        71  OSM       C13            28.3897873550      -24.1127216929       22.5866757474  MEMB      71              0.0000000000
      8187        71  OSM       H13A           28.9218024005      -23.2838597835       23.0555770107  MEMB      71              0.0000000000
      8188        71  OSM       H13B           28.4869865360      -23.9953298575       21.5055265557  MEMB      71              0.0000000000
      8189        71  OSM       H13C           28.8327913456      -25.0507043933       22.8729572856  MEMB      71              0.0000000000
      8190        71  OSM       C12            26.3506003288      -22.7467645614       22.4519792459  MEMB      71              0.0000000000
      8191        71  OSM       H12A           27.0722741560      -21.9701900573       22.6860978158  MEMB      71              0.0000000000
      8192        71  OSM       H12B           25.4389356148      -22.5425118632       22.9890863434  MEMB      71              0.0000000000
      8193        71  OSM       C11            26.0218683939      -22.5868152040       20.9452240874  MEMB      71              0.0000000000
      8194        71  OSM       H11A           25.6982450083      -21.5237155123       20.8063183888  MEMB      71              0.0000000000
      8195        71  OSM       H11B           25.1684519949      -23.2305675811       20.6422323983  MEMB      71              0.0000000000
      8196        71  OSM       P              27.7623294770      -21.9895117067       19.0188960883  MEMB      71              0.0000000000
      8197        71  OSM       O13            27.9522558665      -20.6155040494       19.5505001123  MEMB      71              0.0000000000
      8198        71  OSM       O14            28.9221721504      -22.7075434152       18.4628894114  MEMB      71              0.0000000000
      8199        71  OSM       O11            26.5910637422      -21.9822965669       17.9394371994  MEMB      71              0.0000000000
      8200        71  OSM       O12            27.1513523208      -22.9060262167       20.1575978680  MEMB      71              0.0000000000
      8201        71  OSM       C1S            26.1278128110      -23.2533412945       17.4548574978  MEMB      71              0.0000000000
      8202        71  OSM       H1S            25.2288202952      -23.5403672684       18.0448816218  MEMB      71              0.0000000000
      8203        71  OSM       H1T            26.8498925305      -24.0937536250       17.5802903878  MEMB      71              0.0000000000
      8204        71  OSM       NF             26.9794329453      -22.9008590573       15.1391153370  MEMB      71              0.0000000000
      8205        71  OSM       HNF            27.0116055939      -22.0246147997       14.6879834835  MEMB      71              0.0000000000
      8206        71  OSM       C2S            25.8073778865      -23.1629728312       15.9322117240  MEMB      71              0.0000000000
      8207        71  OSM       H2S            25.3592879063      -24.1306052252       15.6062130440  MEMB      71              0.0000000000
      8208        71  OSM       C3S            24.7491340439      -22.0923390897       15.7351763275  MEMB      71              0.0000000000
      8209        71  OSM       H3S            25.1347547685      -21.0697367591       16.0082905395  MEMB      71              0.0000000000
      8210        71  OSM       O3             23.6464084826      -22.4670003499       16.5545203093  MEMB      71              0.0000000000
      8211        71  OSM       HO3            24.0112464248      -22.5421697360       17.4348332716  MEMB      71              0.0000000000
      8212        71  OSM       C4S            24.3539621808      -21.9768297340       14.2876410780  MEMB      71              0.0000000000
      8213        71  OSM       H4S            24.7869815990      -21.1257465277       13.7423165710  MEMB      71              0.0000000000
      8214        71  OSM       C5S            23.5669614672      -22.8491849227       13.6371804988  MEMB      71              0.0000000000
      8215        71  OSM       H5S            23.2208401928      -23.7522698228       14.1579573504  MEMB      71              0.0000000000
      8216        71  OSM       C6S            23.1766005036      -22.7351491915       12.2025741180  MEMB      71              0.0000000000
      8217        71  OSM       H6S            23.7105030363      -21.8996096849       11.7344032267  MEMB      71              0.0000000000
      8218        71  OSM       H6T            22.0754095206      -22.5776150032       12.1247774024  MEMB      71              0.0000000000
      8219        71  OSM       C7S            23.6610323190      -23.8531984783       11.2940670656  MEMB      71              0.0000000000
      8220        71  OSM       H7S            23.2105833875      -23.6702722681       10.2900610548  MEMB      71              0.0000000000
      8221        71  OSM       H7T            23.2684317611      -24.8081003736       11.6959224215  MEMB      71              0.0000000000
      8222        71  OSM       C8S            25.1974736842      -23.9127377780       11.1789922221  MEMB      71              0.0000000000
      8223        71  OSM       H8S            25.4600670978      -24.6540394030       10.3917763452  MEMB      71              0.0000000000
      8224        71  OSM       H8T            25.5978067969      -24.2923421644       12.1437637166  MEMB      71              0.0000000000
      8225        71  OSM       C9S            25.9086396457      -22.5857559029       10.8570393532  MEMB      71              0.0000000000
      8226        71  OSM       H9S            25.8059583465      -21.8437169296       11.6800566551  MEMB      71              0.0000000000
      8227        71  OSM       H9T            25.4534459189      -22.1364964454        9.9466409286  MEMB      71              0.0000000000
      8228        71  OSM       C10S           27.3963962071      -22.7860008934       10.5971911311  MEMB      71              0.0000000000
      8229        71  OSM       H10S           27.5334147513      -23.6556901014        9.9314417197  MEMB      71              0.0000000000
      8230        71  OSM       H10T           27.9261036664      -23.0071831375       11.5556179628  MEMB      71              0.0000000000
      8231        71  OSM       C11S           28.0147689953      -21.5514004659        9.9398003768  MEMB      71              0.0000000000
      8232        71  OSM       H11S           29.1143866328      -21.6685204080       10.0612050195  MEMB      71              0.0000000000
      8233        71  OSM       H11T           27.5978504297      -20.6752744400       10.4861657833  MEMB      71              0.0000000000
      8234        71  OSM       C12S           27.7606477974      -21.3303307437        8.4441278325  MEMB      71              0.0000000000
      8235        71  OSM       H12S           26.6844671136      -21.0693741552        8.3361638002  MEMB      71              0.0000000000
      8236        71  OSM       H12T           27.9865534190      -22.3051913354        7.9686529846  MEMB      71              0.0000000000
      8237        71  OSM       C13S           28.5203078039      -20.1820711086        7.7302308499  MEMB      71              0.0000000000
      8238        71  OSM       H13S           29.5829902545      -20.0724415658        7.9681836770  MEMB      71              0.0000000000
      8239        71  OSM       H13T           28.0358690057      -19.2278217897        8.0244032783  MEMB      71              0.0000000000
      8240        71  OSM       C14S           28.7954227679      -20.3809887471        6.2334372859  MEMB      71              0.0000000000
      8241        71  OSM       H14S           29.4906769506      -21.2522428106        6.1511096111  MEMB      71              0.0000000000
      8242        71  OSM       H14T           29.3681365348      -19.5015571555        5.8561886692  MEMB      71              0.0000000000
      8243        71  OSM       C15S           27.5597622267      -20.6562411876        5.3949512143  MEMB      71              0.0000000000
      8244        71  OSM       H15S           26.9680557491      -19.7189278750        5.3024863044  MEMB      71              0.0000000000
      8245        71  OSM       H15T           26.9357415989      -21.4064223734        5.9282153161  MEMB      71              0.0000000000
      8246        71  OSM       C16S           27.8950173097      -21.2420094453        4.0142612879  MEMB      71              0.0000000000
      8247        71  OSM       H16S           26.9430210851      -21.4442221047        3.4780395233  MEMB      71              0.0000000000
      8248        71  OSM       H16T           28.4081782724      -22.2233033740        4.1520830339  MEMB      71              0.0000000000
      8249        71  OSM       C17S           28.7525085941      -20.3075367944        3.1520045468  MEMB      71              0.0000000000
      8250        71  OSM       H17S           29.8104649241      -20.3750577910        3.4926467591  MEMB      71              0.0000000000
      8251        71  OSM       H17T           28.4126870487      -19.2618229381        3.3314802402  MEMB      71              0.0000000000
      8252        71  OSM       C18S           28.6940559788      -20.6058154224        1.6504666561  MEMB      71              0.0000000000
      8253        71  OSM       H18S           28.7507392222      -21.7001056303        1.4702519412  MEMB      71              0.0000000000
      8254        71  OSM       H18T           29.5434424371      -20.1194307174        1.1244247898  MEMB      71              0.0000000000
      8255        71  OSM       H18U           27.7495965045      -20.2339762303        1.1973319905  MEMB      71              0.0000000000
      8256        71  OSM       C1F            28.0175323510      -23.7206000330       15.1267115717  MEMB      71              0.0000000000
      8257        71  OSM       OF             27.9381888238      -24.8817829450       15.5061230825  MEMB      71              0.0000000000
      8258        71  OSM       C2F            29.2393946222      -23.0965556691       14.5389627984  MEMB      71              0.0000000000
      8259        71  OSM       H2F            29.3917268476      -22.1202569657       15.0468764323  MEMB      71              0.0000000000
      8260        71  OSM       H2G            29.0228935532      -22.8693368225       13.4743592182  MEMB      71              0.0000000000
      8261        71  OSM       C3F            30.5712542601      -23.8651771708       14.6589107484  MEMB      71              0.0000000000
      8262        71  OSM       H3F            30.8167600373      -24.1250187345       15.7110757110  MEMB      71              0.0000000000
      8263        71  OSM       H3G            31.3131619630      -23.1186434740       14.3005764062  MEMB      71              0.0000000000
      8264        71  OSM       C4F            30.6915547532      -25.1083889681       13.7812989198  MEMB      71              0.0000000000
      8265        71  OSM       H4F            30.2872447363      -25.9880234645       14.3358198302  MEMB      71              0.0000000000
      8266        71  OSM       H4G            31.7597849677      -25.3143061105       13.5532435130  MEMB      71              0.0000000000
      8267        71  OSM       C5F            29.9574296040      -24.9356502366       12.4556335224  MEMB      71              0.0000000000
      8268        71  OSM       H5F            30.1751480281      -23.9490405763       12.0077667708  MEMB      71              0.0000000000
      8269        71  OSM       H5G            28.8609544981      -25.0799251413       12.6472730241  MEMB      71              0.0000000000
      8270        71  OSM       C6F            30.3891738189      -25.9504622978       11.4440180611  MEMB      71              0.0000000000
      8271        71  OSM       H6F            30.4805129781      -26.8024954388       12.1521547871  MEMB      71              0.0000000000
      8272        71  OSM       H6G            31.4128901655      -25.8871923583       11.0551959743  MEMB      71              0.0000000000
      8273        71  OSM       C7F            29.3260325041      -26.0977692797       10.3324859038  MEMB      71              0.0000000000
      8274        71  OSM       H7F            28.3044701173      -26.1225781933       10.7806003912  MEMB      71              0.0000000000
      8275        71  OSM       H7G            29.5131130058      -27.0271833189        9.7533596638  MEMB      71              0.0000000000
      8276        71  OSM       C8F            29.3672285178      -25.2128123951        9.1461969246  MEMB      71              0.0000000000
      8277        71  OSM       H8F            29.5487342510      -24.2002300077        9.4918588764  MEMB      71              0.0000000000
      8278        71  OSM       H8G            28.4769280344      -25.3905365400        8.5004001219  MEMB      71              0.0000000000
      8279        71  OSM       C9F            30.5248505574      -25.4487679951        8.3300734110  MEMB      71              0.0000000000
      8280        71  OSM       H9F            31.4705300206      -25.2853350595        8.8562750545  MEMB      71              0.0000000000
      8281        71  OSM       C10F           30.4700713649      -25.9844878165        7.1365871067  MEMB      71              0.0000000000
      8282        71  OSM       H10F           31.3078178550      -25.9995207900        6.5479217695  MEMB      71              0.0000000000
      8283        71  OSM       C11F           29.5190974587      -26.5000823810        6.2147740224  MEMB      71              0.0000000000
      8284        71  OSM       H11F           28.5399580464      -26.0645405880        6.4023294630  MEMB      71              0.0000000000
      8285        71  OSM       H11G           29.5250222298      -27.5347064935        6.4957131506  MEMB      71              0.0000000000
      8286        71  OSM       C12F           30.0200469498      -26.6391171160        4.7451902220  MEMB      71              0.0000000000
      8287        71  OSM       H12F           30.5804467079      -27.5392021085        4.4571628106  MEMB      71              0.0000000000
      8288        71  OSM       H12G           30.4204606647      -25.7669529770        4.2607887697  MEMB      71              0.0000000000
      8289        71  OSM       C13F           28.9875149691      -27.1998867899        3.9596636955  MEMB      71              0.0000000000
      8290        71  OSM       H13F           28.5286953617      -27.6521226119        4.8874352337  MEMB      71              0.0000000000
      8291        71  OSM       H13G           29.1385087759      -27.8991609555        3.0920535349  MEMB      71              0.0000000000
      8292        71  OSM       C14F           27.8245959152      -26.5124416659        3.7805617187  MEMB      71              0.0000000000
      8293        71  OSM       H14F           27.6695793426      -25.9557497647        4.6980813485  MEMB      71              0.0000000000
      8294        71  OSM       H14G           27.0547580794      -27.3082863205        3.5347365150  MEMB      71              0.0000000000
      8295        71  OSM       C15F           28.1160897800      -25.5675496848        2.7779981571  MEMB      71              0.0000000000
      8296        71  OSM       H15F           28.4213262812      -26.1059240352        1.8729185743  MEMB      71              0.0000000000
      8297        71  OSM       H15G           28.8602907561      -24.7764746951        3.0741635102  MEMB      71              0.0000000000
      8298        71  OSM       C16F           26.8159120477      -25.0079949637        2.7018178877  MEMB      71              0.0000000000
      8299        71  OSM       H16F           27.2561090136      -24.0548744831        2.2602118909  MEMB      71              0.0000000000
      8300        71  OSM       H16G           26.6556090365      -24.1246358189        3.3724676332  MEMB      71              0.0000000000
      8301        71  OSM       C17F           25.4202017581      -26.0374753817        1.8199786301  MEMB      71              0.0000000000
      8302        71  OSM       H17F           24.3807715977      -25.5941191413        1.5628018254  MEMB      71              0.0000000000
      8303        71  OSM       H17G           25.9056171439      -26.2380812968        2.5776550984  MEMB      71              0.0000000000
      8304        71  OSM       C18F           25.0476944377      -26.7658853665        0.6063620748  MEMB      71              0.0000000000
      8305        71  OSM       H18F           25.8293932414      -27.4451817883        0.9567557241  MEMB      71              0.0000000000
      8306        71  OSM       H18G           25.0445401441      -26.1939655127       -0.3216600921  MEMB      71              0.0000000000
      8307        71  OSM       H18H           23.9218375512      -26.9410354587        0.5784647112  MEMB      71              0.0000000000
      8308        72  CHL1      C3             35.0997915543       -9.5088377096       17.3774617848  MEMB      72              0.0000000000
      8309        72  CHL1      H3             34.2557641393       -8.8967924068       16.9707597131  MEMB      72              0.0000000000
      8310        72  CHL1      O3             34.9429385259       -9.7333784974       18.7623140991  MEMB      72              0.0000000000
      8311        72  CHL1      H3'            34.9750944836       -8.8532825183       19.1479537981  MEMB      72              0.0000000000
      8312        72  CHL1      C4             35.1165370903      -10.8618197397       16.6672870043  MEMB      72              0.0000000000
      8313        72  CHL1      H4A            35.9238372218      -11.4832465287       17.1132501377  MEMB      72              0.0000000000
      8314        72  CHL1      H4B            34.1410329660      -11.3372091129       16.8815420400  MEMB      72              0.0000000000
      8315        72  CHL1      C5             35.3015278659      -10.7534137190       15.1822648334  MEMB      72              0.0000000000
      8316        72  CHL1      C6             34.4132563203      -11.2768128539       14.3359116103  MEMB      72              0.0000000000
      8317        72  CHL1      H6             33.5721849188      -11.7765517614       14.7522241581  MEMB      72              0.0000000000
      8318        72  CHL1      C7             34.4477350209      -11.2778776738       12.8476810281  MEMB      72              0.0000000000
      8319        72  CHL1      H7A            34.3466822605      -12.2902689129       12.4167366865  MEMB      72              0.0000000000
      8320        72  CHL1      H7B            33.6820412017      -10.5902001535       12.4225441519  MEMB      72              0.0000000000
      8321        72  CHL1      C8             35.7721131915      -10.7888724147       12.3968361562  MEMB      72              0.0000000000
      8322        72  CHL1      H8             36.5711553642      -11.5485663732       12.5606582086  MEMB      72              0.0000000000
      8323        72  CHL1      C14            35.6434381227      -10.4262851733       10.9113750603  MEMB      72              0.0000000000
      8324        72  CHL1      H14            34.9582312602       -9.5267813618       10.8687253460  MEMB      72              0.0000000000
      8325        72  CHL1      C15            35.1298955605      -11.4642491136        9.9573161798  MEMB      72              0.0000000000
      8326        72  CHL1      H15A           35.6636917178      -12.4038944959       10.2154780224  MEMB      72              0.0000000000
      8327        72  CHL1      H15B           34.0446342660      -11.5825886497       10.0612868533  MEMB      72              0.0000000000
      8328        72  CHL1      C16            35.5642358509      -10.9468057715        8.5709693711  MEMB      72              0.0000000000
      8329        72  CHL1      H16A           36.1416145599      -11.7631514690        8.0749937894  MEMB      72              0.0000000000
      8330        72  CHL1      H16B           34.6798824013      -10.6989758270        7.9654939049  MEMB      72              0.0000000000
      8331        72  CHL1      C17            36.4789769094       -9.6988618880        8.8022804199  MEMB      72              0.0000000000
      8332        72  CHL1      H17            35.8946582676       -8.7620299573        8.8502275635  MEMB      72              0.0000000000
      8333        72  CHL1      C13            36.9185607108      -10.0524163827       10.2423391506  MEMB      72              0.0000000000
      8334        72  CHL1      C18            37.9364241787      -11.2523219303       10.4313704031  MEMB      72              0.0000000000
      8335        72  CHL1      H18A           38.9235211772      -11.2093955247        9.9923157167  MEMB      72              0.0000000000
      8336        72  CHL1      H18B           38.2367320029      -11.3798131369       11.4896811051  MEMB      72              0.0000000000
      8337        72  CHL1      H18C           37.6278091276      -12.1719125873        9.9412258732  MEMB      72              0.0000000000
      8338        72  CHL1      C12            37.0433111210       -8.8852368202       11.0702732833  MEMB      72              0.0000000000
      8339        72  CHL1      H12A           37.9993961959       -8.5856091815       11.0264758754  MEMB      72              0.0000000000
      8340        72  CHL1      H12B           36.5390817565       -7.9841858067       10.6768389423  MEMB      72              0.0000000000
      8341        72  CHL1      C11            37.1915477858       -9.1359102675       12.5283661595  MEMB      72              0.0000000000
      8342        72  CHL1      H11A           38.0977811192       -9.6180236275       12.9143759313  MEMB      72              0.0000000000
      8343        72  CHL1      H11B           37.0934925077       -8.0956109991       12.6790046349  MEMB      72              0.0000000000
      8344        72  CHL1      C9             36.1064279129       -9.6136848876       13.2580453309  MEMB      72              0.0000000000
      8345        72  CHL1      H9             35.3527008909       -8.7891439604       13.1783284143  MEMB      72              0.0000000000
      8346        72  CHL1      C10            36.4309056381       -9.8833156202       14.7457161886  MEMB      72              0.0000000000
      8347        72  CHL1      C19            37.7991659937      -10.5797062853       15.0183139736  MEMB      72              0.0000000000
      8348        72  CHL1      H19A           38.6394072917       -9.8589198014       14.8998653346  MEMB      72              0.0000000000
      8349        72  CHL1      H19B           37.8293064180      -10.9612313637       16.0537788278  MEMB      72              0.0000000000
      8350        72  CHL1      H19C           38.0155187143      -11.3959023817       14.3056744452  MEMB      72              0.0000000000
      8351        72  CHL1      C1             36.3552835490       -8.5965958025       15.5901086955  MEMB      72              0.0000000000
      8352        72  CHL1      H1A            37.2723169042       -8.0817696797       15.5722732285  MEMB      72              0.0000000000
      8353        72  CHL1      H1B            35.5893453796       -7.8813417609       15.2299485227  MEMB      72              0.0000000000
      8354        72  CHL1      C2             36.3768132406       -8.7711294368       17.0994399209  MEMB      72              0.0000000000
      8355        72  CHL1      H2A            36.4893770944       -7.7529068233       17.5376995630  MEMB      72              0.0000000000
      8356        72  CHL1      H2B            37.2679989360       -9.3511841211       17.4318090188  MEMB      72              0.0000000000
      8357        72  CHL1      C20            37.3963171050       -9.3426645594        7.6048757381  MEMB      72              0.0000000000
      8358        72  CHL1      H20            37.9038989076      -10.3327165429        7.6008054954  MEMB      72              0.0000000000
      8359        72  CHL1      C21            38.3364893213       -7.9200258545        7.5896760709  MEMB      72              0.0000000000
      8360        72  CHL1      H21A           39.2448103590       -7.4807150291        8.1348118266  MEMB      72              0.0000000000
      8361        72  CHL1      H21B           37.6446897106       -7.1626163078        7.6253155293  MEMB      72              0.0000000000
      8362        72  CHL1      H21C           39.1529511556       -7.7887795365        6.8777119271  MEMB      72              0.0000000000
      8363        72  CHL1      C22            36.7258581144       -9.6479999423        6.2536634009  MEMB      72              0.0000000000
      8364        72  CHL1      H22A           36.1498077315      -10.5805817757        6.2310730090  MEMB      72              0.0000000000
      8365        72  CHL1      H22B           36.1097503415       -8.7363954843        6.2560081834  MEMB      72              0.0000000000
      8366        72  CHL1      C23            37.6100347253       -9.8983764913        5.0113036428  MEMB      72              0.0000000000
      8367        72  CHL1      H23A           38.1810133598       -9.0349211130        5.2373227494  MEMB      72              0.0000000000
      8368        72  CHL1      H23B           38.3283539471      -10.7448795169        5.0407041934  MEMB      72              0.0000000000
      8369        72  CHL1      C24            36.8522725258       -9.7764112599        3.6491702877  MEMB      72              0.0000000000
      8370        72  CHL1      H24A           36.3297065251      -10.7225117314        3.5115214237  MEMB      72              0.0000000000
      8371        72  CHL1      H24B           36.1082703348       -8.9761041949        3.8419955540  MEMB      72              0.0000000000
      8372        72  CHL1      C25            37.5656872426       -9.4612835391        2.2830353374  MEMB      72              0.0000000000
      8373        72  CHL1      H25            38.4741754441      -10.0736686899        2.1317225851  MEMB      72              0.0000000000
      8374        72  CHL1      C26            36.8188331358       -9.2043236418        0.9883115369  MEMB      72              0.0000000000
      8375        72  CHL1      H26A           35.9976682596       -8.4445018203        1.0954019092  MEMB      72              0.0000000000
      8376        72  CHL1      H26B           37.5181718868       -8.7948507375        0.1958721262  MEMB      72              0.0000000000
      8377        72  CHL1      H26C           36.4775318910      -10.1899912403        0.7481556730  MEMB      72              0.0000000000
      8378        72  CHL1      C27            37.9005082582       -8.1046146690        2.2068676361  MEMB      72              0.0000000000
      8379        72  CHL1      H27A           36.9707214556       -7.5092347549        2.2915826812  MEMB      72              0.0000000000
      8380        72  CHL1      H27B           38.5214168271       -7.8647956080        3.0833775204  MEMB      72              0.0000000000
      8381        72  CHL1      H27C           38.4682147348       -7.7005082507        1.3764741525  MEMB      72              0.0000000000
      8382        73  SAPC      N             -16.1276206481       34.4549097405       20.9959864130  MEMB      73              0.0000000000
      8383        73  SAPC      C12           -16.2190696372       33.4801743733       19.8356947201  MEMB      73              0.0000000000
      8384        73  SAPC      H12A          -15.6341345801       33.9157071813       19.0247132639  MEMB      73              0.0000000000
      8385        73  SAPC      H12B          -17.2577720805       33.4245112047       19.5364925939  MEMB      73              0.0000000000
      8386        73  SAPC      C13           -14.6819787197       34.6987291251       21.3531897183  MEMB      73              0.0000000000
      8387        73  SAPC      H13A          -14.2259657899       33.7829998833       21.7358167152  MEMB      73              0.0000000000
      8388        73  SAPC      H13B          -14.0643229572       34.9107388055       20.4726573656  MEMB      73              0.0000000000
      8389        73  SAPC      H13C          -14.5602835528       35.4984348541       22.0640873390  MEMB      73              0.0000000000
      8390        73  SAPC      C14           -16.7714608779       35.7182321703       20.5054474623  MEMB      73              0.0000000000
      8391        73  SAPC      H14A          -16.3958724460       36.0516259868       19.5403792562  MEMB      73              0.0000000000
      8392        73  SAPC      H14B          -17.8482763256       35.6273228707       20.4818993517  MEMB      73              0.0000000000
      8393        73  SAPC      H14C          -16.5801869679       36.5474734167       21.1637271844  MEMB      73              0.0000000000
      8394        73  SAPC      C15           -16.8167523184       33.9761198226       22.2369583960  MEMB      73              0.0000000000
      8395        73  SAPC      H15A          -16.5876730464       32.9446212935       22.4567345959  MEMB      73              0.0000000000
      8396        73  SAPC      H15B          -16.4476634589       34.5454830516       23.0929598188  MEMB      73              0.0000000000
      8397        73  SAPC      H15C          -17.8893167330       34.1041160461       22.1919868430  MEMB      73              0.0000000000
      8398        73  SAPC      C11           -15.6669154860       32.0376091864       19.9138140411  MEMB      73              0.0000000000
      8399        73  SAPC      H11A          -15.9544524915       31.5606607897       18.9455054155  MEMB      73              0.0000000000
      8400        73  SAPC      H11B          -16.1665993768       31.4545859291       20.7106332452  MEMB      73              0.0000000000
      8401        73  SAPC      P             -13.1924781563       32.2976262719       18.9648429259  MEMB      73              0.0000000000
      8402        73  SAPC      O13           -13.1730796355       33.7719426387       18.8333902244  MEMB      73              0.0000000000
      8403        73  SAPC      O14           -11.9626282436       31.5487337691       19.2935906522  MEMB      73              0.0000000000
      8404        73  SAPC      O12           -14.2604566958       31.9895098944       20.1188297473  MEMB      73              0.0000000000
      8405        73  SAPC      O11           -13.8748666929       31.7437917632       17.6541247507  MEMB      73              0.0000000000
      8406        73  SAPC      C1            -13.6132918807       30.4605558221       17.1286275254  MEMB      73              0.0000000000
      8407        73  SAPC      HA            -12.5135502749       30.2851634344       17.0468381196  MEMB      73              0.0000000000
      8408        73  SAPC      HB            -14.0118586015       29.6583994147       17.7994668773  MEMB      73              0.0000000000
      8409        73  SAPC      C2            -14.2459709291       30.3631294374       15.7085561543  MEMB      73              0.0000000000
      8410        73  SAPC      HS            -13.9955591058       29.4374335637       15.2352084726  MEMB      73              0.0000000000
      8411        73  SAPC      O21           -13.9552139033       31.4862364338       14.8502224677  MEMB      73              0.0000000000
      8412        73  SAPC      C21           -12.7674512780       31.6411799823       14.3151048190  MEMB      73              0.0000000000
      8413        73  SAPC      O22           -11.7832039880       30.9570455659       14.3634011231  MEMB      73              0.0000000000
      8414        73  SAPC      C22           -12.5623229375       32.9899799980       13.7295609699  MEMB      73              0.0000000000
      8415        73  SAPC      H2R           -13.3165804329       33.7514668060       13.9123036016  MEMB      73              0.0000000000
      8416        73  SAPC      H2S           -11.8669473712       33.2157176688       14.4812748890  MEMB      73              0.0000000000
      8417        73  SAPC      C3            -15.7815734866       30.1735561793       15.7344323295  MEMB      73              0.0000000000
      8418        73  SAPC      HX            -16.2791364008       31.0743596972       16.1301913559  MEMB      73              0.0000000000
      8419        73  SAPC      HY            -15.9977210687       29.3068981454       16.4075614038  MEMB      73              0.0000000000
      8420        73  SAPC      O31           -16.2599050472       29.9182357338       14.4033422239  MEMB      73              0.0000000000
      8421        73  SAPC      C31           -16.0508247645       28.6893275070       13.9637425039  MEMB      73              0.0000000000
      8422        73  SAPC      O32           -15.5711544407       27.7757511782       14.6074614264  MEMB      73              0.0000000000
      8423        73  SAPC      C32           -16.3634150857       28.6460538421       12.4882651558  MEMB      73              0.0000000000
      8424        73  SAPC      H2X           -16.7892427307       29.5809487266       12.1169916963  MEMB      73              0.0000000000
      8425        73  SAPC      H2Y           -17.0284311185       27.8900462821       12.1131537058  MEMB      73              0.0000000000
      8426        73  SAPC      C23           -11.8294396592       32.9043709965       12.3814711278  MEMB      73              0.0000000000
      8427        73  SAPC      H3R           -10.9414262288       32.2282671944       12.4337633529  MEMB      73              0.0000000000
      8428        73  SAPC      H3S           -11.4222466260       33.8708462039       12.0148058233  MEMB      73              0.0000000000
      8429        73  SAPC      C24           -12.8623538171       32.3907067123       11.3993651977  MEMB      73              0.0000000000
      8430        73  SAPC      H4R           -13.3108404232       31.4604192231       11.8036414506  MEMB      73              0.0000000000
      8431        73  SAPC      H4S           -12.3542147346       32.2060812534       10.4360336562  MEMB      73              0.0000000000
      8432        73  SAPC      C25           -13.9271542820       33.4104460821       11.2177845327  MEMB      73              0.0000000000
      8433        73  SAPC      H5R           -13.5165200608       34.3698794625       10.8973608702  MEMB      73              0.0000000000
      8434        73  SAPC      C26           -15.2492921505       33.2677169626       11.3852649354  MEMB      73              0.0000000000
      8435        73  SAPC      H6R           -15.8855942029       34.1563249849       11.2590035261  MEMB      73              0.0000000000
      8436        73  SAPC      C27           -15.9853380462       32.0212027959       11.7970239156  MEMB      73              0.0000000000
      8437        73  SAPC      H7R           -15.9349412224       31.9268545325       12.9048305528  MEMB      73              0.0000000000
      8438        73  SAPC      H7S           -15.4939508388       31.1076203271       11.3893502310  MEMB      73              0.0000000000
      8439        73  SAPC      C28           -17.4402587740       32.1060276393       11.4017215389  MEMB      73              0.0000000000
      8440        73  SAPC      H8R           -18.1366334632       31.8793282582       12.2267686856  MEMB      73              0.0000000000
      8441        73  SAPC      C29           -17.9748128942       32.1864694050       10.1635814190  MEMB      73              0.0000000000
      8442        73  SAPC      H9R           -19.0756796541       32.2303024732       10.0889947131  MEMB      73              0.0000000000
      8443        73  SAPC      C210          -17.2720374529       32.2018369994        8.8363967663  MEMB      73              0.0000000000
      8444        73  SAPC      H10R          -17.7762133718       31.5707142896        8.0751715295  MEMB      73              0.0000000000
      8445        73  SAPC      H10S          -16.2693654504       31.7431548888        8.9389985248  MEMB      73              0.0000000000
      8446        73  SAPC      C211          -17.1926201541       33.5802363102        8.2785997804  MEMB      73              0.0000000000
      8447        73  SAPC      H11R          -17.5385445975       34.3967868041        8.9270031272  MEMB      73              0.0000000000
      8448        73  SAPC      C212          -16.6789188730       33.8495572129        7.0751875531  MEMB      73              0.0000000000
      8449        73  SAPC      H12R          -16.5782781985       34.8902324585        6.7530019350  MEMB      73              0.0000000000
      8450        73  SAPC      C213          -16.1124953840       32.8524073476        6.1155916019  MEMB      73              0.0000000000
      8451        73  SAPC      H13R          -16.3127039877       33.2094144876        5.0834105809  MEMB      73              0.0000000000
      8452        73  SAPC      H13S          -16.5810709248       31.8445242982        6.1949494992  MEMB      73              0.0000000000
      8453        73  SAPC      C214          -14.6337091090       32.8066850708        6.3467300904  MEMB      73              0.0000000000
      8454        73  SAPC      H14R          -14.2126996796       33.0627269169        7.3297798611  MEMB      73              0.0000000000
      8455        73  SAPC      C215          -13.8043377883       32.4934908281        5.3785904400  MEMB      73              0.0000000000
      8456        73  SAPC      H15R          -12.7303293938       32.4363149285        5.5880802167  MEMB      73              0.0000000000
      8457        73  SAPC      C216          -14.1956498274       32.1409257347        3.9909030224  MEMB      73              0.0000000000
      8458        73  SAPC      H16R          -15.2321975836       31.7991515440        3.7630616519  MEMB      73              0.0000000000
      8459        73  SAPC      H16S          -13.7123229403       31.2165806083        4.0658081920  MEMB      73              0.0000000000
      8460        73  SAPC      C217          -13.5587309338       32.9759188857        2.8881588351  MEMB      73              0.0000000000
      8461        73  SAPC      H17R          -13.9523248363       32.6424458074        1.9185584346  MEMB      73              0.0000000000
      8462        73  SAPC      H17S          -12.4603361344       32.7963647423        2.8559498163  MEMB      73              0.0000000000
      8463        73  SAPC      C218          -13.9218552168       34.4426623200        3.0719342094  MEMB      73              0.0000000000
      8464        73  SAPC      H18R          -13.1460290974       35.0950408728        2.6238143267  MEMB      73              0.0000000000
      8465        73  SAPC      H18S          -13.9514423529       34.7024889635        4.1557336209  MEMB      73              0.0000000000
      8466        73  SAPC      C219          -15.3307069812       34.7251285790        2.5307235588  MEMB      73              0.0000000000
      8467        73  SAPC      H19R          -15.5731071792       35.7852248407        2.8032903672  MEMB      73              0.0000000000
      8468        73  SAPC      H19S          -16.0537949614       34.0391535499        2.9921734038  MEMB      73              0.0000000000
      8469        73  SAPC      C220          -15.5511311565       34.5403653153        1.0413362749  MEMB      73              0.0000000000
      8470        73  SAPC      H20R          -15.0243333598       33.7322513319        0.4944971384  MEMB      73              0.0000000000
      8471        73  SAPC      H20S          -15.0505292078       35.3950651248        0.7832029073  MEMB      73              0.0000000000
      8472        73  SAPC      H20T          -16.4617215293       34.9435192149        0.5806481551  MEMB      73              0.0000000000
      8473        73  SAPC      C33           -15.2211692629       28.0522336450       11.7805399775  MEMB      73              0.0000000000
      8474        73  SAPC      H3X           -14.8898731342       27.1325657044       12.3293438240  MEMB      73              0.0000000000
      8475        73  SAPC      H3Y           -14.5208843608       28.8858042353       11.8356883062  MEMB      73              0.0000000000
      8476        73  SAPC      C34           -15.5602060899       27.5820495362       10.3990187977  MEMB      73              0.0000000000
      8477        73  SAPC      H4X           -16.0745229054       26.6314218414       10.4769682197  MEMB      73              0.0000000000
      8478        73  SAPC      H4Y           -14.7970482841       26.9945021306        9.9599418853  MEMB      73              0.0000000000
      8479        73  SAPC      C35           -16.0115250959       28.6947556081        9.4442189549  MEMB      73              0.0000000000
      8480        73  SAPC      H5X           -15.2664954629       29.4961657723        9.3024733255  MEMB      73              0.0000000000
      8481        73  SAPC      H5Y           -16.8625013216       29.2203769402        9.9126271354  MEMB      73              0.0000000000
      8482        73  SAPC      C36           -16.4878961569       28.1312843544        8.1048506834  MEMB      73              0.0000000000
      8483        73  SAPC      H6X           -17.1979347679       28.8282254948        7.6104331453  MEMB      73              0.0000000000
      8484        73  SAPC      H6Y           -16.9593275253       27.1781490181        8.4470637099  MEMB      73              0.0000000000
      8485        73  SAPC      C37           -15.6525117624       27.6143450212        7.0285005524  MEMB      73              0.0000000000
      8486        73  SAPC      H7X           -16.0766696453       27.3444091405        6.0990296796  MEMB      73              0.0000000000
      8487        73  SAPC      H7Y           -15.3233756687       26.6118184826        7.3649866788  MEMB      73              0.0000000000
      8488        73  SAPC      C38           -14.6488483173       28.5432532825        6.5056682251  MEMB      73              0.0000000000
      8489        73  SAPC      H8X           -14.3179348303       29.1642670630        7.3746587039  MEMB      73              0.0000000000
      8490        73  SAPC      H8Y           -15.0322142969       29.5315931252        6.1605660392  MEMB      73              0.0000000000
      8491        73  SAPC      C39           -13.6661454266       27.4295201229        5.6361507673  MEMB      73              0.0000000000
      8492        73  SAPC      H9X           -13.1012737209       26.6336388933        6.0975128286  MEMB      73              0.0000000000
      8493        73  SAPC      H9Y           -12.6887897750       27.5184229476        5.3055277444  MEMB      73              0.0000000000
      8494        73  SAPC      C310          -14.0715574668       26.7813839174        4.3527587581  MEMB      73              0.0000000000
      8495        73  SAPC      H10X          -14.3032633132       27.8111015959        4.6670036572  MEMB      73              0.0000000000
      8496        73  SAPC      H10Y          -14.9886378050       26.3426100685        4.5458134022  MEMB      73              0.0000000000
      8497        73  SAPC      C311          -13.4346043038       26.6418341893        2.7997801932  MEMB      73              0.0000000000
      8498        73  SAPC      H11X          -12.5011189150       26.0768497798        2.6458781070  MEMB      73              0.0000000000
      8499        73  SAPC      H11Y          -12.4798896233       27.0565135252        3.1401851603  MEMB      73              0.0000000000
      8500        73  SAPC      C312          -14.1310097961       27.2927963025        1.2351496437  MEMB      73              0.0000000000
      8501        73  SAPC      H12X          -15.0684324956       26.8064129691        1.1675959679  MEMB      73              0.0000000000
      8502        73  SAPC      H12Y          -13.4877152199       26.8208692912        0.4857423504  MEMB      73              0.0000000000
      8503        73  SAPC      C313          -14.7549886970       28.8509336831        0.6070473434  MEMB      73              0.0000000000
      8504        73  SAPC      H13X          -14.9938647616       29.8357404503        1.1558837146  MEMB      73              0.0000000000
      8505        73  SAPC      H13Y          -15.7769420484       29.0003262268        0.2849305582  MEMB      73              0.0000000000
      8506        73  SAPC      C314          -13.8514715836       29.8320006594        0.3256723913  MEMB      73              0.0000000000
      8507        73  SAPC      H14X          -13.6060138183       29.0479463092       -0.4290347771  MEMB      73              0.0000000000
      8508        73  SAPC      H14Y          -13.2838809779       30.3851877338        1.1317199726  MEMB      73              0.0000000000
      8509        73  SAPC      C315          -13.7799357911       30.9478647972       -0.2875245948  MEMB      73              0.0000000000
      8510        73  SAPC      H15X          -13.9058031994       31.9267019919        0.2289460983  MEMB      73              0.0000000000
      8511        73  SAPC      H15Y          -14.5043807906       30.7997383078       -1.1335886046  MEMB      73              0.0000000000
      8512        73  SAPC      C316          -12.1791817742       30.5102690803       -0.3213515710  MEMB      73              0.0000000000
      8513        73  SAPC      H16X          -12.5444646120       31.2657790902       -0.8033268513  MEMB      73              0.0000000000
      8514        73  SAPC      H16Y          -11.9821663660       29.5320631349       -0.8102975601  MEMB      73              0.0000000000
      8515        73  SAPC      C317          -10.8713742575       31.0429610910        0.0600292440  MEMB      73              0.0000000000
      8516        73  SAPC      H17X          -10.3946511486       30.0350291776        0.1418810022  MEMB      73              0.0000000000
      8517        73  SAPC      H17Y          -11.2136174287       31.8681303269        0.7109718540  MEMB      73              0.0000000000
      8518        73  SAPC      C318           -9.7381694646       31.4916334020       -0.6911777910  MEMB      73              0.0000000000
      8519        73  SAPC      H18X           -8.7180647675       31.6742841308       -0.4927517056  MEMB      73              0.0000000000
      8520        73  SAPC      H18Y           -9.9818854136       32.5912911830       -0.6649561821  MEMB      73              0.0000000000
      8521        73  SAPC      H18Z           -9.1949751826       30.9096622829       -1.4452749232  MEMB      73              0.0000000000
      8522        74  CHL1      C3            -32.1040385458       17.3106726120       17.3844272092  MEMB      74              0.0000000000
      8523        74  CHL1      H3            -31.6600378964       18.2839853885       17.0959782738  MEMB      74              0.0000000000
      8524        74  CHL1      O3            -32.3393120352       17.1311863541       18.7538779309  MEMB      74              0.0000000000
      8525        74  CHL1      H3'           -32.7802816797       16.2743708578       18.8138720169  MEMB      74              0.0000000000
      8526        74  CHL1      C4            -33.4025508756       17.1383550225       16.6658996148  MEMB      74              0.0000000000
      8527        74  CHL1      H4A           -33.7020062133       16.1393946872       17.0595418613  MEMB      74              0.0000000000
      8528        74  CHL1      H4B           -34.1668682999       17.8651574224       17.0119386636  MEMB      74              0.0000000000
      8529        74  CHL1      C5            -33.3044746118       17.1272449806       15.1508094231  MEMB      74              0.0000000000
      8530        74  CHL1      C6            -34.0750050959       17.9169871928       14.3922382475  MEMB      74              0.0000000000
      8531        74  CHL1      H6            -34.7631893387       18.6093649897       14.9027053414  MEMB      74              0.0000000000
      8532        74  CHL1      C7            -34.1526519875       17.7971393226       12.8937602457  MEMB      74              0.0000000000
      8533        74  CHL1      H7A           -35.1939001874       17.8346519282       12.5161602864  MEMB      74              0.0000000000
      8534        74  CHL1      H7B           -33.6132854408       18.6649958907       12.4646407624  MEMB      74              0.0000000000
      8535        74  CHL1      C8            -33.4676379355       16.5131651822       12.3477025618  MEMB      74              0.0000000000
      8536        74  CHL1      H8            -34.0251809902       15.6179392228       12.5000064919  MEMB      74              0.0000000000
      8537        74  CHL1      C14           -33.2430138946       16.5435965927       10.8512494131  MEMB      74              0.0000000000
      8538        74  CHL1      H14           -32.6188960251       17.4214650702       10.6746111533  MEMB      74              0.0000000000
      8539        74  CHL1      C15           -34.4395265087       16.8387189869        9.9843958403  MEMB      74              0.0000000000
      8540        74  CHL1      H15A          -34.8868236943       15.9856481815       10.3926398112  MEMB      74              0.0000000000
      8541        74  CHL1      H15B          -35.1085156360       17.6728711802       10.2202449758  MEMB      74              0.0000000000
      8542        74  CHL1      C16           -34.0492568117       16.5243118235        8.5510050668  MEMB      74              0.0000000000
      8543        74  CHL1      H16A          -34.7617118139       15.9382184800        7.9279443970  MEMB      74              0.0000000000
      8544        74  CHL1      H16B          -33.9585820078       17.4899758878        8.0420080194  MEMB      74              0.0000000000
      8545        74  CHL1      C17           -32.7022442879       15.7569789633        8.6992627057  MEMB      74              0.0000000000
      8546        74  CHL1      H17           -31.9495973113       16.5592826706        8.5943427862  MEMB      74              0.0000000000
      8547        74  CHL1      C13           -32.5060190295       15.3704817460       10.1823273995  MEMB      74              0.0000000000
      8548        74  CHL1      C18           -32.9780999578       13.9714115667       10.3594969170  MEMB      74              0.0000000000
      8549        74  CHL1      H18A          -33.3268479838       13.7394534692       11.3846465303  MEMB      74              0.0000000000
      8550        74  CHL1      H18B          -33.7123034928       13.9410030842        9.5445868336  MEMB      74              0.0000000000
      8551        74  CHL1      H18C          -32.3793157269       13.1004678313       10.1461455164  MEMB      74              0.0000000000
      8552        74  CHL1      C12           -31.1757571710       15.3223352872       10.8121551633  MEMB      74              0.0000000000
      8553        74  CHL1      H12A          -30.6281758367       14.4454837944       10.3934631835  MEMB      74              0.0000000000
      8554        74  CHL1      H12B          -30.6825082280       16.2710097683       10.5705682855  MEMB      74              0.0000000000
      8555        74  CHL1      C11           -31.3802260904       15.1878482940       12.3348006406  MEMB      74              0.0000000000
      8556        74  CHL1      H11A          -31.6970823963       14.1486364813       12.5778804501  MEMB      74              0.0000000000
      8557        74  CHL1      H11B          -30.3874846116       15.3858260640       12.7100931249  MEMB      74              0.0000000000
      8558        74  CHL1      C9            -32.1856333818       16.2690795779       13.0732393395  MEMB      74              0.0000000000
      8559        74  CHL1      H9            -31.6261744120       17.2127954244       12.9431792265  MEMB      74              0.0000000000
      8560        74  CHL1      C10           -32.3819736034       16.0722684958       14.6030799346  MEMB      74              0.0000000000
      8561        74  CHL1      C19           -32.7263930611       14.5900475263       14.8303445204  MEMB      74              0.0000000000
      8562        74  CHL1      H19A          -33.4953186336       14.3074505988       14.1080575273  MEMB      74              0.0000000000
      8563        74  CHL1      H19B          -31.9013796520       13.8933514057       14.6011371583  MEMB      74              0.0000000000
      8564        74  CHL1      H19C          -33.0362222223       14.3874857205       15.8819258796  MEMB      74              0.0000000000
      8565        74  CHL1      C1            -31.1550432031       16.2872989046       15.4686423451  MEMB      74              0.0000000000
      8566        74  CHL1      H1A           -30.8122665263       15.2547304266       15.4829198367  MEMB      74              0.0000000000
      8567        74  CHL1      H1B           -30.4502697526       17.0220754847       15.0347996441  MEMB      74              0.0000000000
      8568        74  CHL1      C2            -31.2051737455       16.2068345222       16.9866879941  MEMB      74              0.0000000000
      8569        74  CHL1      H2A           -30.2050038797       16.3138743955       17.4608144209  MEMB      74              0.0000000000
      8570        74  CHL1      H2B           -31.5698644419       15.1908549777       17.3064466957  MEMB      74              0.0000000000
      8571        74  CHL1      C20           -32.5244373350       14.7520505155        7.5586303020  MEMB      74              0.0000000000
      8572        74  CHL1      H20           -33.4461888001       14.1328511258        7.4010393524  MEMB      74              0.0000000000
      8573        74  CHL1      C21           -31.3194332651       13.8194944757        7.7924748920  MEMB      74              0.0000000000
      8574        74  CHL1      H21A          -30.4579956053       14.4308455880        8.1151931127  MEMB      74              0.0000000000
      8575        74  CHL1      H21B          -31.0377024197       13.2418417699        6.8990237582  MEMB      74              0.0000000000
      8576        74  CHL1      H21C          -31.5010506534       13.0239727227        8.5277252604  MEMB      74              0.0000000000
      8577        74  CHL1      C22           -32.3056745498       15.5825555782        6.3001948450  MEMB      74              0.0000000000
      8578        74  CHL1      H22A          -33.2148435469       16.1360946561        5.9773832477  MEMB      74              0.0000000000
      8579        74  CHL1      H22B          -31.5029508181       16.3246466392        6.5162607536  MEMB      74              0.0000000000
      8580        74  CHL1      C23           -31.8203600612       14.7390412635        5.1662977714  MEMB      74              0.0000000000
      8581        74  CHL1      H23A          -30.7359741164       14.5577444992        5.3339369769  MEMB      74              0.0000000000
      8582        74  CHL1      H23B          -32.3184439750       13.7423346378        5.1221891847  MEMB      74              0.0000000000
      8583        74  CHL1      C24           -32.0247235941       15.4668308293        3.8800097044  MEMB      74              0.0000000000
      8584        74  CHL1      H24A          -33.0818324710       15.5147558267        3.5643518810  MEMB      74              0.0000000000
      8585        74  CHL1      H24B          -31.5772091796       16.4829844023        3.8514951100  MEMB      74              0.0000000000
      8586        74  CHL1      C25           -31.3111317686       14.7230437245        2.8651127584  MEMB      74              0.0000000000
      8587        74  CHL1      H25           -31.6007511039       13.6301844587        2.8250896935  MEMB      74              0.0000000000
      8588        74  CHL1      C26           -31.6255193638       15.3178256881        1.5675272302  MEMB      74              0.0000000000
      8589        74  CHL1      H26A          -31.0728292691       16.2536503043        1.3311307254  MEMB      74              0.0000000000
      8590        74  CHL1      H26B          -31.1103622412       14.4598132321        1.1587334918  MEMB      74              0.0000000000
      8591        74  CHL1      H26C          -32.6793165197       15.2983230587        1.2514073740  MEMB      74              0.0000000000
      8592        74  CHL1      C27           -29.8311632241       14.8884181992        3.0470535976  MEMB      74              0.0000000000
      8593        74  CHL1      H27A          -29.4746007538       15.9224563776        2.8807280935  MEMB      74              0.0000000000
      8594        74  CHL1      H27B          -29.2985519404       14.5438688584        3.9259630857  MEMB      74              0.0000000000
      8595        74  CHL1      H27C          -29.3911172996       14.1060089906        2.3848968972  MEMB      74              0.0000000000
      8596        75  SAPS      N              27.2772179260       23.4128593347       21.9728114328  MEMB      75              0.0000000000
      8597        75  SAPS      HN1            26.8877622612       23.9169614340       22.7943685447  MEMB      75              0.0000000000
      8598        75  SAPS      HN2            26.6219216634       23.3945351851       21.1592320572  MEMB      75              0.0000000000
      8599        75  SAPS      HN3            27.4950502929       22.4476106101       22.2834824970  MEMB      75              0.0000000000
      8600        75  SAPS      C12            28.5563029122       24.0239370924       21.4888236139  MEMB      75              0.0000000000
      8601        75  SAPS      H12A           28.4179434705       25.0942553342       21.4652875564  MEMB      75              0.0000000000
      8602        75  SAPS      C13            29.7678289554       23.7833255945       22.4108568534  MEMB      75              0.0000000000
      8603        75  SAPS      O13A           29.5965505128       23.2743467974       23.5520204070  MEMB      75              0.0000000000
      8604        75  SAPS      O13B           30.8333114570       24.3291732005       22.0446680800  MEMB      75              0.0000000000
      8605        75  SAPS      C11            28.8723296876       23.5210866243       20.0486020247  MEMB      75              0.0000000000
      8606        75  SAPS      H11A           28.9686348906       22.4098579822       20.0927475669  MEMB      75              0.0000000000
      8607        75  SAPS      H11B           29.8588988258       23.9338989326       19.7228079493  MEMB      75              0.0000000000
      8608        75  SAPS      P              27.7971371366       23.1824243191       17.7037959522  MEMB      75              0.0000000000
      8609        75  SAPS      O13            29.1644271901       22.8192177332       17.2782973411  MEMB      75              0.0000000000
      8610        75  SAPS      O14            26.8249338270       22.0766083825       17.8425160146  MEMB      75              0.0000000000
      8611        75  SAPS      O12            27.8598848116       23.9359424180       19.1203670785  MEMB      75              0.0000000000
      8612        75  SAPS      O11            27.2613916682       24.3259085399       16.7130900297  MEMB      75              0.0000000000
      8613        75  SAPS      C1             28.1532126684       25.3698866018       16.2759289571  MEMB      75              0.0000000000
      8614        75  SAPS      HA             28.7822334311       25.7281070441       17.1247557902  MEMB      75              0.0000000000
      8615        75  SAPS      HB             28.8097914611       24.9665808271       15.4710786888  MEMB      75              0.0000000000
      8616        75  SAPS      C2             27.4001386249       26.6584005675       15.7897726944  MEMB      75              0.0000000000
      8617        75  SAPS      HS             26.7965935922       26.9944952777       16.6642262551  MEMB      75              0.0000000000
      8618        75  SAPS      O21            26.5603726324       26.3044825051       14.6722025725  MEMB      75              0.0000000000
      8619        75  SAPS      C21            25.6350744486       27.1947665019       14.4302296384  MEMB      75              0.0000000000
      8620        75  SAPS      O22            25.4732167109       28.2350826328       15.0459786830  MEMB      75              0.0000000000
      8621        75  SAPS      C22            24.9019623916       26.7332002476       13.1667268349  MEMB      75              0.0000000000
      8622        75  SAPS      H2R            25.0808078866       25.6589943393       13.0237674476  MEMB      75              0.0000000000
      8623        75  SAPS      H2S            23.8371661292       26.8939171884       13.3492386377  MEMB      75              0.0000000000
      8624        75  SAPS      C3             28.3379035862       27.8629431065       15.3935059166  MEMB      75              0.0000000000
      8625        75  SAPS      HX             28.8990415118       28.1373596865       16.3098185859  MEMB      75              0.0000000000
      8626        75  SAPS      HY             27.7359896347       28.7658866251       15.1388094343  MEMB      75              0.0000000000
      8627        75  SAPS      O31            29.2675771256       27.5072478058       14.3542089939  MEMB      75              0.0000000000
      8628        75  SAPS      C31            29.1281704739       28.0838379799       13.1785008292  MEMB      75              0.0000000000
      8629        75  SAPS      O32            28.4806380876       29.0721783995       12.9217931871  MEMB      75              0.0000000000
      8630        75  SAPS      C32            29.7941061879       27.2579963330       12.1184429796  MEMB      75              0.0000000000
      8631        75  SAPS      H2X            30.8241728225       27.5750361850       12.0491349311  MEMB      75              0.0000000000
      8632        75  SAPS      H2Y            29.2784840553       27.4971649254       11.1616929655  MEMB      75              0.0000000000
      8633        75  SAPS      C23            25.4410949975       27.5407392461       11.9638992934  MEMB      75              0.0000000000
      8634        75  SAPS      H3R            26.5289186090       27.6021552776       11.8322249309  MEMB      75              0.0000000000
      8635        75  SAPS      H3S            25.4629882772       28.4355713069       12.4681449358  MEMB      75              0.0000000000
      8636        75  SAPS      C24            24.5680755976       27.8609048056       10.7653586130  MEMB      75              0.0000000000
      8637        75  SAPS      H4R            24.2201109933       28.8018892253       10.2723061043  MEMB      75              0.0000000000
      8638        75  SAPS      H4S            23.6592624993       27.4448622719       10.9958746297  MEMB      75              0.0000000000
      8639        75  SAPS      C25            25.3305287764       27.0154150085        9.9803671181  MEMB      75              0.0000000000
      8640        75  SAPS      H5R            25.5691968160       26.0393903958       10.3863150363  MEMB      75              0.0000000000
      8641        75  SAPS      C26            25.2597480500       27.1767595305        8.7394075055  MEMB      75              0.0000000000
      8642        75  SAPS      H6R            25.7422492346       26.2927880756        8.2867536553  MEMB      75              0.0000000000
      8643        75  SAPS      C27            24.4772628282       28.2189594592        7.8284082650  MEMB      75              0.0000000000
      8644        75  SAPS      H7R            23.7725659851       28.9173520577        8.2797036340  MEMB      75              0.0000000000
      8645        75  SAPS      H7S            24.2765310047       28.1442607813        6.7417833121  MEMB      75              0.0000000000
      8646        75  SAPS      C28            25.7695263819       28.7850465719        7.8209029774  MEMB      75              0.0000000000
      8647        75  SAPS      H8R            25.6722459698       29.8763327996        8.0195335111  MEMB      75              0.0000000000
      8648        75  SAPS      C29            26.7982055756       28.4648338247        7.0580006893  MEMB      75              0.0000000000
      8649        75  SAPS      H9R            27.4546958957       29.0860591626        7.6132166159  MEMB      75              0.0000000000
      8650        75  SAPS      C210           27.4176017216       27.4572735315        6.1244930746  MEMB      75              0.0000000000
      8651        75  SAPS      H10R           27.4162376003       27.6715740211        4.9799985638  MEMB      75              0.0000000000
      8652        75  SAPS      H10S           26.6261852749       27.0222310155        6.3898188860  MEMB      75              0.0000000000
      8653        75  SAPS      C211           28.3837622503       26.5115202350        6.5445513834  MEMB      75              0.0000000000
      8654        75  SAPS      H11R           28.5338542653       26.6601354995        7.6071159127  MEMB      75              0.0000000000
      8655        75  SAPS      C212           29.0071680894       25.5995640249        5.8531410585  MEMB      75              0.0000000000
      8656        75  SAPS      H12R           29.9758010447       25.3808512163        6.3066841647  MEMB      75              0.0000000000
      8657        75  SAPS      C213           28.7967262755       25.3457355500        4.3895157174  MEMB      75              0.0000000000
      8658        75  SAPS      H13R           27.8934457762       25.8205348778        3.9802661224  MEMB      75              0.0000000000
      8659        75  SAPS      H13S           28.5897086511       24.2673017732        4.4389164643  MEMB      75              0.0000000000
      8660        75  SAPS      C214           29.8966162941       25.5644814265        3.4118583794  MEMB      75              0.0000000000
      8661        75  SAPS      H14R           30.6749825071       24.8378677972        3.5472558235  MEMB      75              0.0000000000
      8662        75  SAPS      C215           29.9859998432       26.2265479554        2.2532237771  MEMB      75              0.0000000000
      8663        75  SAPS      H15R           30.9408764155       26.2781549102        1.7102411017  MEMB      75              0.0000000000
      8664        75  SAPS      C216           28.9420644839       26.9809586434        1.5650490973  MEMB      75              0.0000000000
      8665        75  SAPS      H16R           27.9870637614       26.6554823234        1.9771117201  MEMB      75              0.0000000000
      8666        75  SAPS      H16S           29.0041885622       26.6430498453        0.5069514164  MEMB      75              0.0000000000
      8667        75  SAPS      C217           29.1795061051       28.4838016076        1.7494590087  MEMB      75              0.0000000000
      8668        75  SAPS      H17R           30.0958558285       28.7624272521        1.1665868803  MEMB      75              0.0000000000
      8669        75  SAPS      H17S           29.2751360065       28.8287094834        2.7907313686  MEMB      75              0.0000000000
      8670        75  SAPS      C218           28.0453565200       29.3406314283        1.2999590080  MEMB      75              0.0000000000
      8671        75  SAPS      H18R           27.9409356994       30.3844995484        1.6497805641  MEMB      75              0.0000000000
      8672        75  SAPS      H18S           27.0665269496       28.8154334871        1.2120411024  MEMB      75              0.0000000000
      8673        75  SAPS      C219           28.3572958036       29.6240253234       -0.0683780431  MEMB      75              0.0000000000
      8674        75  SAPS      H19R           27.3662259120       30.1099074230       -0.2422599573  MEMB      75              0.0000000000
      8675        75  SAPS      H19S           28.5158696200       28.5903991868       -0.4890621396  MEMB      75              0.0000000000
      8676        75  SAPS      C220           29.3083124512       30.6961880666       -0.5607119830  MEMB      75              0.0000000000
      8677        75  SAPS      H20R           28.9176568701       31.2445854900       -1.4617791218  MEMB      75              0.0000000000
      8678        75  SAPS      H20S           30.2319123733       30.1979189203       -0.9351709694  MEMB      75              0.0000000000
      8679        75  SAPS      H20T           29.3386588892       31.5435240910        0.1098040513  MEMB      75              0.0000000000
      8680        75  SAPS      C33            29.8148800928       25.7720687458       12.4426453135  MEMB      75              0.0000000000
      8681        75  SAPS      H3X            28.7847047626       25.5222461313       12.7663502329  MEMB      75              0.0000000000
      8682        75  SAPS      H3Y            30.5042413742       25.5896106640       13.3010966769  MEMB      75              0.0000000000
      8683        75  SAPS      C34            30.2473495980       24.9553962792       11.2298274730  MEMB      75              0.0000000000
      8684        75  SAPS      H4X            31.3634648234       24.9658164632       11.1891271392  MEMB      75              0.0000000000
      8685        75  SAPS      H4Y            29.8737337119       25.4523417722       10.3062695590  MEMB      75              0.0000000000
      8686        75  SAPS      C35            29.8245506756       23.4777908927       11.2207905172  MEMB      75              0.0000000000
      8687        75  SAPS      H5X            30.3882210974       22.9342006342       12.0162798902  MEMB      75              0.0000000000
      8688        75  SAPS      H5Y            30.1511687852       23.0835304070       10.2329981001  MEMB      75              0.0000000000
      8689        75  SAPS      C36            28.3313239478       23.1085780382       11.2914546242  MEMB      75              0.0000000000
      8690        75  SAPS      H6X            27.9401772885       23.2212182004       12.3272930405  MEMB      75              0.0000000000
      8691        75  SAPS      H6Y            28.2771874262       22.0233778836       11.0316001411  MEMB      75              0.0000000000
      8692        75  SAPS      C37            27.3865654529       23.8430253069       10.3311605185  MEMB      75              0.0000000000
      8693        75  SAPS      H7X            27.3715743934       24.9308175498       10.5521936680  MEMB      75              0.0000000000
      8694        75  SAPS      H7Y            26.3647284131       23.4339408562       10.5196178612  MEMB      75              0.0000000000
      8695        75  SAPS      C38            27.7015858161       23.6959034083        8.8409602911  MEMB      75              0.0000000000
      8696        75  SAPS      H8X            28.7496496759       23.9390749935        8.5928260720  MEMB      75              0.0000000000
      8697        75  SAPS      H8Y            27.0415544563       24.4187769287        8.3001843465  MEMB      75              0.0000000000
      8698        75  SAPS      C39            27.4257501654       22.3088541361        8.2942231134  MEMB      75              0.0000000000
      8699        75  SAPS      H9X            26.4059301720       22.1067578534        8.6150290080  MEMB      75              0.0000000000
      8700        75  SAPS      H9Y            28.0686592951       21.5063656909        8.6922354647  MEMB      75              0.0000000000
      8701        75  SAPS      C310           27.4812079234       22.3208527552        6.7939194841  MEMB      75              0.0000000000
      8702        75  SAPS      H10X           27.7226372847       21.3669389672        6.3390569591  MEMB      75              0.0000000000
      8703        75  SAPS      H10Y           28.2311221335       23.0584068865        6.4416562170  MEMB      75              0.0000000000
      8704        75  SAPS      C311           26.1646805313       22.7318427593        6.2671428676  MEMB      75              0.0000000000
      8705        75  SAPS      H11X           26.1680871891       23.8096701127        6.5366141056  MEMB      75              0.0000000000
      8706        75  SAPS      H11Y           25.2556510427       22.2170650577        6.6216365642  MEMB      75              0.0000000000
      8707        75  SAPS      C312           26.1147377152       22.5984304098        4.7686793470  MEMB      75              0.0000000000
      8708        75  SAPS      H12X           25.4080885928       21.8833900713        4.4129079295  MEMB      75              0.0000000000
      8709        75  SAPS      H12Y           27.0768642761       22.7817823435        4.2225673309  MEMB      75              0.0000000000
      8710        75  SAPS      C313           24.9281362375       23.1925506882        4.0433916009  MEMB      75              0.0000000000
      8711        75  SAPS      H13X           25.6007197438       23.7690466029        4.6822273336  MEMB      75              0.0000000000
      8712        75  SAPS      H13Y           24.0220235452       23.4411318871        4.6286130666  MEMB      75              0.0000000000
      8713        75  SAPS      C314           25.0475018072       23.5961297284        2.4210275463  MEMB      75              0.0000000000
      8714        75  SAPS      H14X           24.4764092810       22.7236633751        2.1422667991  MEMB      75              0.0000000000
      8715        75  SAPS      H14Y           26.1079847469       23.5620554116        2.2535300209  MEMB      75              0.0000000000
      8716        75  SAPS      C315           24.8023500444       24.9346423592        1.3168741855  MEMB      75              0.0000000000
      8717        75  SAPS      H15X           23.7506923689       24.5265202112        1.6187871676  MEMB      75              0.0000000000
      8718        75  SAPS      H15Y           24.9242658636       24.9240754008        0.3231456449  MEMB      75              0.0000000000
      8719        75  SAPS      C316           25.3493405564       26.8812047514        1.2635152884  MEMB      75              0.0000000000
      8720        75  SAPS      H16X           26.2825768788       27.1668635753        1.6051598260  MEMB      75              0.0000000000
      8721        75  SAPS      H16Y           24.8416272496       27.3164259606        2.0612213595  MEMB      75              0.0000000000
      8722        75  SAPS      C317           24.6007546720       28.3154731380        1.6500991329  MEMB      75              0.0000000000
      8723        75  SAPS      H17X           23.4509906096       28.5235399931        1.9361055232  MEMB      75              0.0000000000
      8724        75  SAPS      H17Y           24.8595091429       28.6749770128        0.6421383339  MEMB      75              0.0000000000
      8725        75  SAPS      C318           25.0878109435       28.8564188002        2.9468195797  MEMB      75              0.0000000000
      8726        75  SAPS      H18X           24.7902520814       29.5888931419        2.1868591281  MEMB      75              0.0000000000
      8727        75  SAPS      H18Y           26.0869019359       28.9094951787        3.2953681180  MEMB      75              0.0000000000
      8728        75  SAPS      H18Z           24.2687329424       28.6467307687        3.7012588536  MEMB      75              0.0000000000
      8729        76  OSM       N              32.4354762427       14.9194579878       22.1759787256  MEMB      76              0.0000000000
      8730        76  OSM       C15            31.2234128544       15.7809240394       22.1418469892  MEMB      76              0.0000000000
      8731        76  OSM       H15A           30.8365180174       15.9330433335       23.1295677219  MEMB      76              0.0000000000
      8732        76  OSM       H15B           30.4212573245       15.3632083314       21.5357357666  MEMB      76              0.0000000000
      8733        76  OSM       H15C           31.4991598752       16.7176824776       21.6554209851  MEMB      76              0.0000000000
      8734        76  OSM       C14            33.4111406454       15.3093421734       23.1453117671  MEMB      76              0.0000000000
      8735        76  OSM       H14A           33.0514587793       15.1826072436       24.1507603014  MEMB      76              0.0000000000
      8736        76  OSM       H14B           33.7634959439       16.3081025245       22.9382274231  MEMB      76              0.0000000000
      8737        76  OSM       H14C           34.2278039594       14.5941847645       22.9960713346  MEMB      76              0.0000000000
      8738        76  OSM       C13            32.0472515604       13.5346410888       22.5287255077  MEMB      76              0.0000000000
      8739        76  OSM       H13A           31.5058614192       13.4463810598       23.4405997103  MEMB      76              0.0000000000
      8740        76  OSM       H13B           32.8775250177       12.8058265523       22.4596429122  MEMB      76              0.0000000000
      8741        76  OSM       H13C           31.3663622321       13.1527180860       21.7708223037  MEMB      76              0.0000000000
      8742        76  OSM       C12            33.1749570681       15.0246723526       20.8632644605  MEMB      76              0.0000000000
      8743        76  OSM       H12A           32.3876444502       15.0827670437       20.1304214425  MEMB      76              0.0000000000
      8744        76  OSM       H12B           33.6790023360       14.0796409919       20.6270529369  MEMB      76              0.0000000000
      8745        76  OSM       C11            33.8996662166       16.2573587409       20.3978088730  MEMB      76              0.0000000000
      8746        76  OSM       H11A           34.1628358875       16.1102512936       19.3200707310  MEMB      76              0.0000000000
      8747        76  OSM       H11B           34.8162493464       16.3076489809       21.0151717476  MEMB      76              0.0000000000
      8748        76  OSM       P              33.6241928761       18.7668962796       20.1115193824  MEMB      76              0.0000000000
      8749        76  OSM       O13            32.5224195121       19.7363887799       20.2174070421  MEMB      76              0.0000000000
      8750        76  OSM       O14            34.7844664183       18.9913376001       20.9817886042  MEMB      76              0.0000000000
      8751        76  OSM       O11            34.0295535261       18.5378666066       18.6080371953  MEMB      76              0.0000000000
      8752        76  OSM       O12            33.0164637184       17.3685432690       20.5165773826  MEMB      76              0.0000000000
      8753        76  OSM       C1S            35.3594169040       18.3948478326       18.1248857830  MEMB      76              0.0000000000
      8754        76  OSM       H1S            35.8896705947       17.5855269239       18.6756988093  MEMB      76              0.0000000000
      8755        76  OSM       H1T            35.9262539125       19.3322748295       18.2724825372  MEMB      76              0.0000000000
      8756        76  OSM       NF             36.4418219336       17.3985404424       16.0740884724  MEMB      76              0.0000000000
      8757        76  OSM       HNF            37.1688920561       17.7633666005       15.5228279651  MEMB      76              0.0000000000
      8758        76  OSM       C2S            35.3471225696       18.1763858501       16.5641591858  MEMB      76              0.0000000000
      8759        76  OSM       H2S            34.3380352506       17.7350126560       16.3038187020  MEMB      76              0.0000000000
      8760        76  OSM       C3S            35.4369630949       19.4552437746       15.8292098178  MEMB      76              0.0000000000
      8761        76  OSM       H3S            36.4498881181       19.8873750398       16.0709766045  MEMB      76              0.0000000000
      8762        76  OSM       O3             34.2872757430       20.1784794213       16.1630087802  MEMB      76              0.0000000000
      8763        76  OSM       HO3            34.3221232952       20.1777132673       17.1301200123  MEMB      76              0.0000000000
      8764        76  OSM       C4S            35.2733873186       19.3053433587       14.3630044965  MEMB      76              0.0000000000
      8765        76  OSM       H4S            34.2201847763       19.3410939618       14.0670490531  MEMB      76              0.0000000000
      8766        76  OSM       C5S            36.2104729144       19.2805433919       13.4131966655  MEMB      76              0.0000000000
      8767        76  OSM       H5S            37.2268002735       19.6155817869       13.7020859465  MEMB      76              0.0000000000
      8768        76  OSM       C6S            35.8383727367       19.1492699177       11.9412307785  MEMB      76              0.0000000000
      8769        76  OSM       H6S            34.7293634980       19.2581132807       11.8463109979  MEMB      76              0.0000000000
      8770        76  OSM       H6T            36.2690779408       18.2800321441       11.4273419472  MEMB      76              0.0000000000
      8771        76  OSM       C7S            36.2314798594       20.2348665057       10.9813161844  MEMB      76              0.0000000000
      8772        76  OSM       H7S            37.3042665419       20.4513976723       10.8155663522  MEMB      76              0.0000000000
      8773        76  OSM       H7T            35.6633314238       20.9952454676       11.5642710568  MEMB      76              0.0000000000
      8774        76  OSM       C8S            35.4032631276       20.6681851688        9.8379001150  MEMB      76              0.0000000000
      8775        76  OSM       H8S            35.8798005803       21.5856594700        9.4267665452  MEMB      76              0.0000000000
      8776        76  OSM       H8T            34.3508174198       20.8077204107       10.1911081012  MEMB      76              0.0000000000
      8777        76  OSM       C9S            35.2523665594       19.8010242525        8.7326071783  MEMB      76              0.0000000000
      8778        76  OSM       H9S            34.4723003682       20.2749797389        8.0950009677  MEMB      76              0.0000000000
      8779        76  OSM       H9T            34.8168691059       18.9419815691        9.2754078674  MEMB      76              0.0000000000
      8780        76  OSM       C10S           36.5821928178       19.6525171277        8.0421594144  MEMB      76              0.0000000000
      8781        76  OSM       H10S           37.3727750412       19.3976997082        8.7858077666  MEMB      76              0.0000000000
      8782        76  OSM       H10T           36.9217435645       20.5905710346        7.5406271548  MEMB      76              0.0000000000
      8783        76  OSM       C11S           36.3075298960       18.5288375223        7.0844041426  MEMB      76              0.0000000000
      8784        76  OSM       H11S           35.8029143126       17.7558700605        7.7050840128  MEMB      76              0.0000000000
      8785        76  OSM       H11T           37.2458622966       18.1063428048        6.6860555846  MEMB      76              0.0000000000
      8786        76  OSM       C12S           35.3619701582       18.9396088050        5.9485708121  MEMB      76              0.0000000000
      8787        76  OSM       H12S           34.5687830678       19.6548633576        6.2342872643  MEMB      76              0.0000000000
      8788        76  OSM       H12T           34.8250809633       18.0408525912        5.6164885168  MEMB      76              0.0000000000
      8789        76  OSM       C13S           36.1421586104       19.5462672214        4.7926445373  MEMB      76              0.0000000000
      8790        76  OSM       H13S           36.5500791753       18.7049569554        4.2056327830  MEMB      76              0.0000000000
      8791        76  OSM       H13T           37.0640437538       20.0287890132        5.1860701949  MEMB      76              0.0000000000
      8792        76  OSM       C14S           35.4030280557       20.6625461085        3.9953981933  MEMB      76              0.0000000000
      8793        76  OSM       H14S           36.0545277797       20.8892791798        3.1274958663  MEMB      76              0.0000000000
      8794        76  OSM       H14T           35.2932947273       21.5432710999        4.6525914308  MEMB      76              0.0000000000
      8795        76  OSM       C15S           33.9774200087       20.5212829807        3.4239764487  MEMB      76              0.0000000000
      8796        76  OSM       H15S           33.6150568529       21.3535307304        2.8229744292  MEMB      76              0.0000000000
      8797        76  OSM       H15T           33.2074762296       20.2529935326        4.2381274587  MEMB      76              0.0000000000
      8798        76  OSM       C16S           33.9313937458       19.5624605975        2.2543218972  MEMB      76              0.0000000000
      8799        76  OSM       H16S           32.9139868592       19.2715109489        1.9706190892  MEMB      76              0.0000000000
      8800        76  OSM       H16T           34.1461360953       19.0679892840        3.2320196687  MEMB      76              0.0000000000
      8801        76  OSM       C17S           34.9661796165       19.1732539966        1.0353098730  MEMB      76              0.0000000000
      8802        76  OSM       H17S           35.9953161323       19.2593222964        1.4038003743  MEMB      76              0.0000000000
      8803        76  OSM       H17T           34.6508287771       19.9125067379        0.3067523453  MEMB      76              0.0000000000
      8804        76  OSM       C18S           34.9850951346       17.8079591852        0.1406855443  MEMB      76              0.0000000000
      8805        76  OSM       H18S           35.5630374208       17.6778111317       -0.7634897724  MEMB      76              0.0000000000
      8806        76  OSM       H18T           33.8965969209       17.7122066933       -0.0539678137  MEMB      76              0.0000000000
      8807        76  OSM       H18U           35.1690984445       16.7778340459        0.5040818453  MEMB      76              0.0000000000
      8808        76  OSM       C1F            36.3877948125       16.1973855733       16.3944592484  MEMB      76              0.0000000000
      8809        76  OSM       OF             35.2962909996       15.8695730715       16.7791496713  MEMB      76              0.0000000000
      8810        76  OSM       C2F            37.6301322995       15.3808487571       16.2493983156  MEMB      76              0.0000000000
      8811        76  OSM       H2F            38.0124632182       15.0620926159       17.2500932208  MEMB      76              0.0000000000
      8812        76  OSM       H2G            38.2621266203       16.0196416415       15.7279277020  MEMB      76              0.0000000000
      8813        76  OSM       C3F            37.8075349722       14.3075502445       15.1684773486  MEMB      76              0.0000000000
      8814        76  OSM       H3F            37.1250809051       13.5771194737       15.2398539611  MEMB      76              0.0000000000
      8815        76  OSM       H3G            38.6493206433       13.6228621053       15.3721349224  MEMB      76              0.0000000000
      8816        76  OSM       C4F            37.4417139406       14.5300989907       13.7189474430  MEMB      76              0.0000000000
      8817        76  OSM       H4F            37.9942216745       15.3495155728       13.4623949534  MEMB      76              0.0000000000
      8818        76  OSM       H4G            36.5585892282       14.8496860855       13.2089159533  MEMB      76              0.0000000000
      8819        76  OSM       C5F            37.4211834605       13.2059669704       13.0924411931  MEMB      76              0.0000000000
      8820        76  OSM       H5F            36.7708920297       12.4589091986       13.6437775866  MEMB      76              0.0000000000
      8821        76  OSM       H5G            38.5379679018       13.1478465738       13.1662312034  MEMB      76              0.0000000000
      8822        76  OSM       C6F            37.0617082737       12.8713898353       11.7282643803  MEMB      76              0.0000000000
      8823        76  OSM       H6F            36.1174956233       13.1399360705       11.3765917601  MEMB      76              0.0000000000
      8824        76  OSM       H6G            37.0988702922       11.7767471043       11.6160347610  MEMB      76              0.0000000000
      8825        76  OSM       C7F            37.7648473965       13.6767718857       10.7984304945  MEMB      76              0.0000000000
      8826        76  OSM       H7F            38.3533389353       13.0226044070       10.1771818771  MEMB      76              0.0000000000
      8827        76  OSM       H7G            38.3454888784       14.3779355196       11.4216343801  MEMB      76              0.0000000000
      8828        76  OSM       C8F            37.0780246565       14.4243648618        9.7318293920  MEMB      76              0.0000000000
      8829        76  OSM       H8F            36.6750655695       13.9739766877        8.8950437751  MEMB      76              0.0000000000
      8830        76  OSM       H8G            37.9057528454       14.7086774144        9.0861933122  MEMB      76              0.0000000000
      8831        76  OSM       C9F            36.2787632923       15.5108359934       10.3375779893  MEMB      76              0.0000000000
      8832        76  OSM       H9F            36.7670899878       16.0781716900       11.1363949640  MEMB      76              0.0000000000
      8833        76  OSM       C10F           35.1192541127       15.8830741180        9.9013237492  MEMB      76              0.0000000000
      8834        76  OSM       H10F           34.5855378815       16.6464523899       10.4764192884  MEMB      76              0.0000000000
      8835        76  OSM       C11F           34.4906394520       15.2148269133        8.7269569508  MEMB      76              0.0000000000
      8836        76  OSM       H11F           33.9185062806       14.5342263796        9.2683917677  MEMB      76              0.0000000000
      8837        76  OSM       H11G           35.0361211881       14.4016854542        8.2105104148  MEMB      76              0.0000000000
      8838        76  OSM       C12F           33.5275613883       16.1802747647        7.9653804677  MEMB      76              0.0000000000
      8839        76  OSM       H12F           34.1860362997       16.7721228607        7.3705998708  MEMB      76              0.0000000000
      8840        76  OSM       H12G           32.8688047265       16.7472357559        8.6410172131  MEMB      76              0.0000000000
      8841        76  OSM       C13F           32.4679184928       15.7141659867        6.9955398300  MEMB      76              0.0000000000
      8842        76  OSM       H13F           31.3715895473       15.7829605103        6.8901620799  MEMB      76              0.0000000000
      8843        76  OSM       H13G           32.2966085822       15.0324866063        7.6809984081  MEMB      76              0.0000000000
      8844        76  OSM       C14F           33.0967789063       14.9262144423        6.0525730623  MEMB      76              0.0000000000
      8845        76  OSM       H14F           32.4028016404       14.3444855300        5.3854478403  MEMB      76              0.0000000000
      8846        76  OSM       H14G           34.0875938511       14.5275434242        6.3632524315  MEMB      76              0.0000000000
      8847        76  OSM       C15F           33.4487650357       15.6543112604        5.1030939588  MEMB      76              0.0000000000
      8848        76  OSM       H15F           34.2320813010       16.3148545715        5.4288729524  MEMB      76              0.0000000000
      8849        76  OSM       H15G           32.4201641688       16.1527694762        4.9002996231  MEMB      76              0.0000000000
      8850        76  OSM       C16F           33.9248412724       14.5789552337        4.1711784120  MEMB      76              0.0000000000
      8851        76  OSM       H16F           34.1912083182       15.3249007923        3.6853921680  MEMB      76              0.0000000000
      8852        76  OSM       H16G           32.9993653601       14.4484523677        3.7477097062  MEMB      76              0.0000000000
      8853        76  OSM       C17F           35.1028028227       14.2679315100        3.2646255627  MEMB      76              0.0000000000
      8854        76  OSM       H17F           35.2797275111       13.4543924210        3.9186352402  MEMB      76              0.0000000000
      8855        76  OSM       H17G           35.9625543252       14.9278167472        3.4189237135  MEMB      76              0.0000000000
      8856        76  OSM       C18F           34.9377195442       13.7580476693        1.7752042732  MEMB      76              0.0000000000
      8857        76  OSM       H18F           35.8116503131       13.1501969008        1.7435253840  MEMB      76              0.0000000000
      8858        76  OSM       H18G           34.8471368310       14.4879360025        0.9669044982  MEMB      76              0.0000000000
      8859        76  OSM       H18H           34.2557416808       12.9839063300        1.4157908816  MEMB      76              0.0000000000
      8860        77  SAPE      N             -28.4439392136       26.2887866243       20.9250619170  MEMB      77              0.0000000000
      8861        77  SAPE      HN1           -28.0258722643       25.9270958458       20.0372845877  MEMB      77              0.0000000000
      8862        77  SAPE      HN2           -29.4699335145       26.3574808036       20.8189498012  MEMB      77              0.0000000000
      8863        77  SAPE      HN3           -28.0033410721       27.2041126484       21.1562971411  MEMB      77              0.0000000000
      8864        77  SAPE      C12           -28.1066742484       25.2349091190       21.9288233576  MEMB      77              0.0000000000
      8865        77  SAPE      H12A          -28.5678166076       25.5144215205       22.8668020840  MEMB      77              0.0000000000
      8866        77  SAPE      H12B          -27.0185735620       25.2449341764       22.1087673443  MEMB      77              0.0000000000
      8867        77  SAPE      C11           -28.5742730171       23.8907007588       21.3906849238  MEMB      77              0.0000000000
      8868        77  SAPE      H11A          -29.6783975616       23.9255371316       21.2192523253  MEMB      77              0.0000000000
      8869        77  SAPE      H11B          -28.3764463379       23.0773797761       22.1271274821  MEMB      77              0.0000000000
      8870        77  SAPE      P             -28.5771799042       22.7368444005       19.0839369471  MEMB      77              0.0000000000
      8871        77  SAPE      O13           -27.6252462983       22.4077068627       18.0051657820  MEMB      77              0.0000000000
      8872        77  SAPE      O14           -29.2984088675       21.6691035005       19.8213538116  MEMB      77              0.0000000000
      8873        77  SAPE      O12           -27.8615647866       23.6302309670       20.1839505557  MEMB      77              0.0000000000
      8874        77  SAPE      O11           -29.6284164483       23.8260418164       18.6584090940  MEMB      77              0.0000000000
      8875        77  SAPE      C1            -29.5165357107       24.4710973802       17.4266354620  MEMB      77              0.0000000000
      8876        77  SAPE      HA            -30.0690050640       25.4487280066       17.4757500882  MEMB      77              0.0000000000
      8877        77  SAPE      HB            -28.4912236984       24.6518841230       17.0287642388  MEMB      77              0.0000000000
      8878        77  SAPE      C2            -30.2146080200       23.6525541948       16.3912532545  MEMB      77              0.0000000000
      8879        77  SAPE      HS            -31.2228669148       23.5403994123       16.7598805594  MEMB      77              0.0000000000
      8880        77  SAPE      O21           -29.8227533978       22.2878673141       16.0845583908  MEMB      77              0.0000000000
      8881        77  SAPE      C21           -30.8234474776       21.4750200516       15.6618386027  MEMB      77              0.0000000000
      8882        77  SAPE      O22           -32.0126214713       21.6697241216       15.7883137055  MEMB      77              0.0000000000
      8883        77  SAPE      C22           -30.2361975964       20.2639784484       14.9546378081  MEMB      77              0.0000000000
      8884        77  SAPE      H2R           -29.1383949121       20.3760112017       14.9193481184  MEMB      77              0.0000000000
      8885        77  SAPE      H2S           -30.4886609875       19.4022747259       15.6024726357  MEMB      77              0.0000000000
      8886        77  SAPE      C3            -30.0180606258       24.6053411840       15.1894456465  MEMB      77              0.0000000000
      8887        77  SAPE      HX            -30.6247708802       25.5313540974       15.1040399654  MEMB      77              0.0000000000
      8888        77  SAPE      HY            -30.4744556717       23.8212855982       14.7180649835  MEMB      77              0.0000000000
      8889        77  SAPE      O31           -28.7286613255       24.7223976096       14.6210202633  MEMB      77              0.0000000000
      8890        77  SAPE      C31           -28.6601467472       25.3374823769       13.4584615977  MEMB      77              0.0000000000
      8891        77  SAPE      O32           -29.5785710620       25.6999087532       12.7457739372  MEMB      77              0.0000000000
      8892        77  SAPE      C32           -27.1923059784       25.6531478964       13.2824932394  MEMB      77              0.0000000000
      8893        77  SAPE      H2X           -26.6447206093       24.6965719270       13.3679597757  MEMB      77              0.0000000000
      8894        77  SAPE      H2Y           -26.9114282200       26.2666192052       14.1725400965  MEMB      77              0.0000000000
      8895        77  SAPE      C23           -30.7569698047       20.0409772443       13.5111187837  MEMB      77              0.0000000000
      8896        77  SAPE      H3R           -31.8638279051       20.1439946882       13.4746304763  MEMB      77              0.0000000000
      8897        77  SAPE      H3S           -30.5551114429       18.9865765539       13.2390440228  MEMB      77              0.0000000000
      8898        77  SAPE      C24           -29.9967856728       20.9107480921       12.4752383175  MEMB      77              0.0000000000
      8899        77  SAPE      H4R           -28.9158672302       20.6823116689       12.5123014148  MEMB      77              0.0000000000
      8900        77  SAPE      H4S           -30.0021510906       21.9496554710       12.8570586524  MEMB      77              0.0000000000
      8901        77  SAPE      C25           -30.5187891803       20.7573111410       11.0442943260  MEMB      77              0.0000000000
      8902        77  SAPE      H5R           -30.8393714593       19.7448977730       10.7913041724  MEMB      77              0.0000000000
      8903        77  SAPE      C26           -30.9057673585       21.7351142069       10.1917407885  MEMB      77              0.0000000000
      8904        77  SAPE      H6R           -31.4690504801       21.4997861569        9.2741743373  MEMB      77              0.0000000000
      8905        77  SAPE      C27           -30.8899091549       23.1887652110       10.5340088819  MEMB      77              0.0000000000
      8906        77  SAPE      H7R           -30.0619236209       23.8745043449       10.2964487828  MEMB      77              0.0000000000
      8907        77  SAPE      H7S           -30.7363690939       23.1637873216       11.5461817504  MEMB      77              0.0000000000
      8908        77  SAPE      C28           -32.1916074679       23.7599188898       10.2022102299  MEMB      77              0.0000000000
      8909        77  SAPE      H8R           -32.9215202003       24.1693911835       10.9338914090  MEMB      77              0.0000000000
      8910        77  SAPE      C29           -32.3167929859       24.2834950760        9.0884129501  MEMB      77              0.0000000000
      8911        77  SAPE      H9R           -33.3895072855       24.5145472977        8.9985883318  MEMB      77              0.0000000000
      8912        77  SAPE      C210          -31.3169201305       24.4775645113        7.9465636530  MEMB      77              0.0000000000
      8913        77  SAPE      H10R          -31.8558684508       23.9369544024        7.1400825413  MEMB      77              0.0000000000
      8914        77  SAPE      H10S          -30.4392142351       23.9050835936        8.2157432523  MEMB      77              0.0000000000
      8915        77  SAPE      C211          -30.8213228517       25.8737592288        7.4064330226  MEMB      77              0.0000000000
      8916        77  SAPE      H11R          -31.3271740533       26.8218128347        7.6480735104  MEMB      77              0.0000000000
      8917        77  SAPE      C212          -29.8384684147       26.3205379606        6.7292602028  MEMB      77              0.0000000000
      8918        77  SAPE      H12R          -29.9208634715       27.3509466393        6.3244233494  MEMB      77              0.0000000000
      8919        77  SAPE      C213          -28.8388958609       25.3718902128        6.2964934716  MEMB      77              0.0000000000
      8920        77  SAPE      H13R          -29.2869718721       24.7009360009        5.5368633073  MEMB      77              0.0000000000
      8921        77  SAPE      H13S          -28.5776151656       24.7734383460        7.1914645429  MEMB      77              0.0000000000
      8922        77  SAPE      C214          -27.6836816624       26.1845392369        5.8302236602  MEMB      77              0.0000000000
      8923        77  SAPE      H14R          -27.5069338454       27.1595077970        6.3174517408  MEMB      77              0.0000000000
      8924        77  SAPE      C215          -26.8242301010       25.7138553755        4.9365715374  MEMB      77              0.0000000000
      8925        77  SAPE      H15R          -25.9501520904       26.3180656024        4.6751402738  MEMB      77              0.0000000000
      8926        77  SAPE      C216          -26.9176903416       24.3465912031        4.3211145538  MEMB      77              0.0000000000
      8927        77  SAPE      H16R          -27.4001959761       23.6068260710        4.9952285455  MEMB      77              0.0000000000
      8928        77  SAPE      H16S          -25.8892223249       23.9715081025        4.1652322623  MEMB      77              0.0000000000
      8929        77  SAPE      C217          -27.5988019617       24.2792931815        2.9524029060  MEMB      77              0.0000000000
      8930        77  SAPE      H17R          -28.6223508066       24.7176681504        2.9581278354  MEMB      77              0.0000000000
      8931        77  SAPE      H17S          -27.6851494868       23.1899824198        2.7312101163  MEMB      77              0.0000000000
      8932        77  SAPE      C218          -26.6719383624       24.8472273738        1.8741874730  MEMB      77              0.0000000000
      8933        77  SAPE      H18R          -25.6687348631       24.4114281070        2.0979510360  MEMB      77              0.0000000000
      8934        77  SAPE      H18S          -26.5504600349       25.9452130263        1.9906507977  MEMB      77              0.0000000000
      8935        77  SAPE      C219          -27.0367087134       24.3871703840        0.4502465286  MEMB      77              0.0000000000
      8936        77  SAPE      H19R          -27.2432158541       23.2920545750        0.4638474063  MEMB      77              0.0000000000
      8937        77  SAPE      H19S          -26.1420761820       24.5150337192       -0.1972361222  MEMB      77              0.0000000000
      8938        77  SAPE      C220          -28.2228255564       25.0988827509       -0.2084027219  MEMB      77              0.0000000000
      8939        77  SAPE      H20R          -29.1219100631       25.0544697273        0.4428843765  MEMB      77              0.0000000000
      8940        77  SAPE      H20S          -28.4840016604       24.6085040351       -1.1707051574  MEMB      77              0.0000000000
      8941        77  SAPE      H20T          -27.9703478651       26.1570990431       -0.4342690999  MEMB      77              0.0000000000
      8942        77  SAPE      C33           -26.8563414722       26.3859197251       11.9683379559  MEMB      77              0.0000000000
      8943        77  SAPE      H3X           -25.8818992174       26.8942635166       12.1375302983  MEMB      77              0.0000000000
      8944        77  SAPE      H3Y           -27.5917409488       27.1898486031       11.7345367972  MEMB      77              0.0000000000
      8945        77  SAPE      C34           -26.7267080538       25.5068341168       10.7037714254  MEMB      77              0.0000000000
      8946        77  SAPE      H4X           -26.4412214464       26.2243262839        9.9008363382  MEMB      77              0.0000000000
      8947        77  SAPE      H4Y           -27.7164358719       25.0856029703       10.4164851476  MEMB      77              0.0000000000
      8948        77  SAPE      C35           -25.6310374043       24.4193990399       10.7277225160  MEMB      77              0.0000000000
      8949        77  SAPE      H5X           -25.9390144862       23.5265742327       11.3127774078  MEMB      77              0.0000000000
      8950        77  SAPE      H5Y           -24.7287946474       24.8481323043       11.2180568743  MEMB      77              0.0000000000
      8951        77  SAPE      C36           -25.1626689642       23.9481640683        9.3367587439  MEMB      77              0.0000000000
      8952        77  SAPE      H6X           -24.3600000239       23.1905575345        9.4942572417  MEMB      77              0.0000000000
      8953        77  SAPE      H6Y           -24.6857906639       24.8061805293        8.8118689439  MEMB      77              0.0000000000
      8954        77  SAPE      C37           -26.2480765271       23.3184963959        8.4442683361  MEMB      77              0.0000000000
      8955        77  SAPE      H7X           -25.7692387385       23.0481271570        7.4765507164  MEMB      77              0.0000000000
      8956        77  SAPE      H7Y           -27.0639747266       24.0338390862        8.2190412294  MEMB      77              0.0000000000
      8957        77  SAPE      C38           -26.9008977932       22.0721468372        9.0495203978  MEMB      77              0.0000000000
      8958        77  SAPE      H8X           -27.7155288253       22.3906293552        9.7410723728  MEMB      77              0.0000000000
      8959        77  SAPE      H8Y           -26.1545543331       21.5152829087        9.6607455675  MEMB      77              0.0000000000
      8960        77  SAPE      C39           -27.5044533757       21.1096913413        8.0119264985  MEMB      77              0.0000000000
      8961        77  SAPE      H9X           -27.8755634753       20.2584827344        8.6249588284  MEMB      77              0.0000000000
      8962        77  SAPE      H9Y           -26.7424897379       20.7031792083        7.3120474008  MEMB      77              0.0000000000
      8963        77  SAPE      C310          -28.6702008267       21.6823091575        7.1800554600  MEMB      77              0.0000000000
      8964        77  SAPE      H10X          -28.2840288891       22.3260422108        6.3648193099  MEMB      77              0.0000000000
      8965        77  SAPE      H10Y          -29.2918912280       22.3227099586        7.8363690059  MEMB      77              0.0000000000
      8966        77  SAPE      C311          -29.5193264114       20.5497389806        6.5740502082  MEMB      77              0.0000000000
      8967        77  SAPE      H11X          -29.8946991682       19.9370055743        7.4230509853  MEMB      77              0.0000000000
      8968        77  SAPE      H11Y          -28.8433266958       19.9056865397        5.9652932788  MEMB      77              0.0000000000
      8969        77  SAPE      C312          -30.7154358950       20.9720520597        5.6935576959  MEMB      77              0.0000000000
      8970        77  SAPE      H12X          -31.4872401070       21.5113717300        6.2845446929  MEMB      77              0.0000000000
      8971        77  SAPE      H12Y          -31.1643319295       20.0514324046        5.2513368808  MEMB      77              0.0000000000
      8972        77  SAPE      C313          -30.3373156716       21.8580796511        4.5108318677  MEMB      77              0.0000000000
      8973        77  SAPE      H13X          -29.3780352597       21.4624282630        4.1052961050  MEMB      77              0.0000000000
      8974        77  SAPE      H13Y          -30.2023702716       22.9022901926        4.8626548117  MEMB      77              0.0000000000
      8975        77  SAPE      C314          -31.3745677161       21.8673902827        3.3817304796  MEMB      77              0.0000000000
      8976        77  SAPE      H14X          -32.3465398268       22.2604040217        3.7599262338  MEMB      77              0.0000000000
      8977        77  SAPE      H14Y          -31.5378474080       20.8134111979        3.0736187372  MEMB      77              0.0000000000
      8978        77  SAPE      C315          -30.8485570685       22.7076373467        2.2003756812  MEMB      77              0.0000000000
      8979        77  SAPE      H15X          -29.8028254144       22.3997698835        1.9761206364  MEMB      77              0.0000000000
      8980        77  SAPE      H15Y          -30.7848335524       23.7649711055        2.5454151765  MEMB      77              0.0000000000
      8981        77  SAPE      C316          -31.6803492423       22.6304780781        0.9041314902  MEMB      77              0.0000000000
      8982        77  SAPE      H16X          -31.2027438116       23.2584093973        0.1137881976  MEMB      77              0.0000000000
      8983        77  SAPE      H16Y          -32.6799852476       23.0573877803        1.1175091301  MEMB      77              0.0000000000
      8984        77  SAPE      C317          -31.8332948968       21.2266997692        0.3212061673  MEMB      77              0.0000000000
      8985        77  SAPE      H17X          -32.4866383183       21.2222469247       -0.5853203206  MEMB      77              0.0000000000
      8986        77  SAPE      H17Y          -32.3360318927       20.5496801565        1.0457467783  MEMB      77              0.0000000000
      8987        77  SAPE      C318          -30.4999232976       20.6588395106       -0.1102481517  MEMB      77              0.0000000000
      8988        77  SAPE      H18X          -29.7939274563       20.3914551162        0.6969891988  MEMB      77              0.0000000000
      8989        77  SAPE      H18Y          -29.9960269836       21.2605041301       -0.8942099086  MEMB      77              0.0000000000
      8990        77  SAPE      H18Z          -30.7461971563       19.7404674445       -0.6035692660  MEMB      77              0.0000000000
      8991        78  OSM       N             -33.8337734744        9.6696190791       21.5133990591  MEMB      78              0.0000000000
      8992        78  OSM       C15           -32.9711504153        8.5406116392       21.9064741454  MEMB      78              0.0000000000
      8993        78  OSM       H15A          -32.6982019387        8.6150242811       22.9428366012  MEMB      78              0.0000000000
      8994        78  OSM       H15B          -32.0936287969        8.5727749085       21.2720635104  MEMB      78              0.0000000000
      8995        78  OSM       H15C          -33.4586577010        7.5859035419       21.7151879597  MEMB      78              0.0000000000
      8996        78  OSM       C14           -33.0113012763       10.9175300120       21.5497360603  MEMB      78              0.0000000000
      8997        78  OSM       H14A          -32.0775465362       10.7868484880       21.0189173626  MEMB      78              0.0000000000
      8998        78  OSM       H14B          -32.7587901540       11.1557016184       22.5703283285  MEMB      78              0.0000000000
      8999        78  OSM       H14C          -33.6147031787       11.7124675086       21.1341430607  MEMB      78              0.0000000000
      9000        78  OSM       C13           -34.2918770469        9.3478663412       20.0994612807  MEMB      78              0.0000000000
      9001        78  OSM       H13A          -34.8913134914        8.4387133368       20.1030966341  MEMB      78              0.0000000000
      9002        78  OSM       H13B          -33.4984470721        9.1834267587       19.3823425120  MEMB      78              0.0000000000
      9003        78  OSM       H13C          -34.9591927582       10.1059173377       19.6898285024  MEMB      78              0.0000000000
      9004        78  OSM       C12           -35.0160542268        9.8181161790       22.4753643819  MEMB      78              0.0000000000
      9005        78  OSM       H12A          -34.6526444000        9.9418645312       23.4867307290  MEMB      78              0.0000000000
      9006        78  OSM       H12B          -35.6259216088        8.9222112671       22.4127887883  MEMB      78              0.0000000000
      9007        78  OSM       C11           -35.9523795107       11.0193309791       22.2731783987  MEMB      78              0.0000000000
      9008        78  OSM       H11A          -35.3884352726       11.9404270079       22.4875031933  MEMB      78              0.0000000000
      9009        78  OSM       H11B          -36.8072769030       11.0256256240       22.9989475161  MEMB      78              0.0000000000
      9010        78  OSM       P             -37.7458905802       10.7612139262       20.3587737929  MEMB      78              0.0000000000
      9011        78  OSM       O13           -37.6700531220        9.4581896316       19.6787968729  MEMB      78              0.0000000000
      9012        78  OSM       O14           -38.7322192692       11.0232092351       21.3986862393  MEMB      78              0.0000000000
      9013        78  OSM       O11           -37.7396023189       11.8692466937       19.2939548870  MEMB      78              0.0000000000
      9014        78  OSM       O12           -36.3259816684       11.0705216541       20.9231127381  MEMB      78              0.0000000000
      9015        78  OSM       C1S           -36.6237775771       11.9434767958       18.3917572012  MEMB      78              0.0000000000
      9016        78  OSM       H1S           -35.8842806720       11.1219690140       18.4980869360  MEMB      78              0.0000000000
      9017        78  OSM       H1T           -36.0682433644       12.9040332984       18.5402119640  MEMB      78              0.0000000000
      9018        78  OSM       NF            -35.9204796821       11.5868052646       16.1306865832  MEMB      78              0.0000000000
      9019        78  OSM       HNF           -35.6645430557       12.3925612857       15.5983712122  MEMB      78              0.0000000000
      9020        78  OSM       C2S           -37.1385544345       11.8429539141       16.9502732007  MEMB      78              0.0000000000
      9021        78  OSM       H2S           -37.9322070414       11.1201340015       16.8145983780  MEMB      78              0.0000000000
      9022        78  OSM       C3S           -37.8879896886       13.1698075949       16.7010207032  MEMB      78              0.0000000000
      9023        78  OSM       H3S           -37.1775576246       13.8834863390       16.7994941963  MEMB      78              0.0000000000
      9024        78  OSM       O3            -38.5201037899       13.6101880686       17.8188088670  MEMB      78              0.0000000000
      9025        78  OSM       HO3           -38.7624740441       12.8637858401       18.3567838481  MEMB      78              0.0000000000
      9026        78  OSM       C4S           -38.6450025644       13.0423060511       15.3196082710  MEMB      78              0.0000000000
      9027        78  OSM       H4S           -39.2336585190       12.1593231234       15.0813372584  MEMB      78              0.0000000000
      9028        78  OSM       C5S           -38.6358477894       14.0052421633       14.3538301641  MEMB      78              0.0000000000
      9029        78  OSM       H5S           -38.1140123862       14.9331229456       14.5889168992  MEMB      78              0.0000000000
      9030        78  OSM       C6S           -39.1890931230       14.1395410451       12.9452761811  MEMB      78              0.0000000000
      9031        78  OSM       H6S           -38.4508136765       14.1679397694       12.1547382256  MEMB      78              0.0000000000
      9032        78  OSM       H6T           -39.6531434378       15.1121738450       12.7291059927  MEMB      78              0.0000000000
      9033        78  OSM       C7S           -39.8851775464       12.8684443302       12.6801311896  MEMB      78              0.0000000000
      9034        78  OSM       H7S           -40.7639915458       13.1388606111       13.2959852082  MEMB      78              0.0000000000
      9035        78  OSM       H7T           -39.4290086353       11.9187980012       12.9635701889  MEMB      78              0.0000000000
      9036        78  OSM       C8S           -40.2257386162       12.4128447037       11.3119500894  MEMB      78              0.0000000000
      9037        78  OSM       H8S           -40.5902921017       13.2964794847       10.9892711793  MEMB      78              0.0000000000
      9038        78  OSM       H8T           -41.1931460434       12.0534843432       11.0290243704  MEMB      78              0.0000000000
      9039        78  OSM       C9S           -39.4000354841       12.3994809014       10.1953382199  MEMB      78              0.0000000000
      9040        78  OSM       H9S           -38.6871262731       13.2303058851       10.1085728674  MEMB      78              0.0000000000
      9041        78  OSM       H9T           -40.0207007160       11.9692807857        9.3661384500  MEMB      78              0.0000000000
      9042        78  OSM       C10S          -38.6334843356       11.3506543950       10.1057860282  MEMB      78              0.0000000000
      9043        78  OSM       H10S          -39.1874883873       10.3879674469       10.1758655674  MEMB      78              0.0000000000
      9044        78  OSM       H10T          -38.0565794082       11.4887488755       10.9926348322  MEMB      78              0.0000000000
      9045        78  OSM       C11S          -37.6821135054       11.6325464440        8.9887135029  MEMB      78              0.0000000000
      9046        78  OSM       H11S          -36.8826296354       11.0462859081        8.8356143504  MEMB      78              0.0000000000
      9047        78  OSM       H11T          -37.0021475082       12.3511769681        8.8848377548  MEMB      78              0.0000000000
      9048        78  OSM       C12S          -37.9625486538       11.0475605747        7.8275733458  MEMB      78              0.0000000000
      9049        78  OSM       H12S          -38.7014950059       11.8144859118        7.9614007816  MEMB      78              0.0000000000
      9050        78  OSM       H12T          -38.5701386810       10.1086467835        7.9990556711  MEMB      78              0.0000000000
      9051        78  OSM       C13S          -36.9414697500       11.0733376628        6.6633126505  MEMB      78              0.0000000000
      9052        78  OSM       H13S          -37.0563130708       10.3996061689        5.8225657254  MEMB      78              0.0000000000
      9053        78  OSM       H13T          -36.0347811177       10.5512523963        6.9507456553  MEMB      78              0.0000000000
      9054        78  OSM       C14S          -36.7579417876       12.4099791067        6.0311907451  MEMB      78              0.0000000000
      9055        78  OSM       H14S          -36.7591727925       13.1158769989        6.8697832896  MEMB      78              0.0000000000
      9056        78  OSM       H14T          -37.6027601955       12.7653831076        5.4595975974  MEMB      78              0.0000000000
      9057        78  OSM       C15S          -35.4686316615       12.4047015019        5.2304943483  MEMB      78              0.0000000000
      9058        78  OSM       H15S          -34.9140066393       11.4648776775        5.4607903767  MEMB      78              0.0000000000
      9059        78  OSM       H15T          -34.9540691910       13.2889429971        5.6312854172  MEMB      78              0.0000000000
      9060        78  OSM       C16S          -35.5693911043       12.5836589990        3.7196124403  MEMB      78              0.0000000000
      9061        78  OSM       H16S          -36.5967722609       12.7276878635        3.4835005707  MEMB      78              0.0000000000
      9062        78  OSM       H16T          -35.2183354216       11.6906911851        3.1640537538  MEMB      78              0.0000000000
      9063        78  OSM       C17S          -35.1370015108       13.9188652528        3.1762873174  MEMB      78              0.0000000000
      9064        78  OSM       H17S          -34.0491253156       13.8369795816        3.2120139442  MEMB      78              0.0000000000
      9065        78  OSM       H17T          -35.5537829273       14.6948803507        3.8662427094  MEMB      78              0.0000000000
      9066        78  OSM       C18S          -35.4363321983       14.2725281810        1.7230008746  MEMB      78              0.0000000000
      9067        78  OSM       H18S          -36.4312194797       14.3921644709        1.4111287827  MEMB      78              0.0000000000
      9068        78  OSM       H18T          -35.0346967710       13.5384306799        1.0032612970  MEMB      78              0.0000000000
      9069        78  OSM       H18U          -35.2830019843       15.3401387011        1.5312171489  MEMB      78              0.0000000000
      9070        78  OSM       C1F           -35.0526114120       10.5482900985       16.0416688955  MEMB      78              0.0000000000
      9071        78  OSM       OF            -35.1486962299        9.5711737035       16.7458632522  MEMB      78              0.0000000000
      9072        78  OSM       C2F           -33.9604447753       10.6133305112       14.9827708618  MEMB      78              0.0000000000
      9073        78  OSM       H2F           -33.4736456300        9.6425367664       14.8318320381  MEMB      78              0.0000000000
      9074        78  OSM       H2G           -33.2989046390       11.5089334304       15.0868479657  MEMB      78              0.0000000000
      9075        78  OSM       C3F           -34.5586518843       10.7492877335       13.6179073344  MEMB      78              0.0000000000
      9076        78  OSM       H3F           -34.8889473481       11.6379714938       13.9550103913  MEMB      78              0.0000000000
      9077        78  OSM       H3G           -35.6266649998       10.6902495250       13.6391275551  MEMB      78              0.0000000000
      9078        78  OSM       C4F           -33.6396341173       10.9232377502       12.3656431270  MEMB      78              0.0000000000
      9079        78  OSM       H4F           -33.1304227326        9.9374185063       12.4299576592  MEMB      78              0.0000000000
      9080        78  OSM       H4G           -32.9427258262       11.7781777493       12.4180291167  MEMB      78              0.0000000000
      9081        78  OSM       C5F           -34.1082090184       10.8148400220       10.9125254342  MEMB      78              0.0000000000
      9082        78  OSM       H5F           -34.9196337340       11.3570378876       10.5157803124  MEMB      78              0.0000000000
      9083        78  OSM       H5G           -34.6293880458        9.8946791934       11.0382179953  MEMB      78              0.0000000000
      9084        78  OSM       C6F           -33.1083426755       10.5584258776        9.7821349763  MEMB      78              0.0000000000
      9085        78  OSM       H6F           -32.8375054705        9.4856657316        9.9093015471  MEMB      78              0.0000000000
      9086        78  OSM       H6G           -32.2606744978       11.2310545960        9.8747757345  MEMB      78              0.0000000000
      9087        78  OSM       C7F           -33.5746000030       10.7373758466        8.3306103715  MEMB      78              0.0000000000
      9088        78  OSM       H7F           -34.0127809672       11.7102440675        8.0278249233  MEMB      78              0.0000000000
      9089        78  OSM       H7G           -34.4549463922       10.1737618903        8.4215570031  MEMB      78              0.0000000000
      9090        78  OSM       C8F           -32.5249660108       10.2686468382        7.2781021465  MEMB      78              0.0000000000
      9091        78  OSM       H8F           -31.8019061300       11.1085846300        7.3501966654  MEMB      78              0.0000000000
      9092        78  OSM       H8G           -32.9576812387       10.2986859907        6.2544234068  MEMB      78              0.0000000000
      9093        78  OSM       C9F           -31.7009376559        8.9983035718        7.3869916945  MEMB      78              0.0000000000
      9094        78  OSM       H9F           -30.6531454380        9.1507382589        7.6769876839  MEMB      78              0.0000000000
      9095        78  OSM       C10F          -32.0695438141        7.7424549787        7.0675895522  MEMB      78              0.0000000000
      9096        78  OSM       H10F          -31.3940126324        6.9095240475        7.2041860878  MEMB      78              0.0000000000
      9097        78  OSM       C11F          -33.3752301406        7.2950236363        6.5417678154  MEMB      78              0.0000000000
      9098        78  OSM       H11F          -33.9651588465        8.0869159217        6.8947517958  MEMB      78              0.0000000000
      9099        78  OSM       H11G          -33.7590554512        6.3475338926        7.0039430906  MEMB      78              0.0000000000
      9100        78  OSM       C12F          -33.6175759368        7.2416373873        5.0347739153  MEMB      78              0.0000000000
      9101        78  OSM       H12F          -34.5684837168        6.6952359164        4.7781642695  MEMB      78              0.0000000000
      9102        78  OSM       H12G          -32.7610277726        6.6067952828        4.8440245144  MEMB      78              0.0000000000
      9103        78  OSM       C13F          -33.5129910193        8.5145766935        4.1678424969  MEMB      78              0.0000000000
      9104        78  OSM       H13F          -32.4572915820        8.8658824079        4.2610551642  MEMB      78              0.0000000000
      9105        78  OSM       H13G          -34.2273116516        9.3286747044        4.3487328892  MEMB      78              0.0000000000
      9106        78  OSM       C14F          -33.8195828867        8.1633976135        2.7178541413  MEMB      78              0.0000000000
      9107        78  OSM       H14F          -34.8102335437        7.7499158593        2.4753565395  MEMB      78              0.0000000000
      9108        78  OSM       H14G          -33.2280248115        7.2968192800        2.8067679729  MEMB      78              0.0000000000
      9109        78  OSM       C15F          -33.2187858426        9.0552022922        1.6332751594  MEMB      78              0.0000000000
      9110        78  OSM       H15F          -32.1347949943        8.9748231466        1.8220336073  MEMB      78              0.0000000000
      9111        78  OSM       H15G          -33.5863827791       10.0518013814        1.8709603444  MEMB      78              0.0000000000
      9112        78  OSM       C16F          -33.5706063341        8.7718681834        0.1561094584  MEMB      78              0.0000000000
      9113        78  OSM       H16F          -34.6504589542        8.5153203751        0.0356256381  MEMB      78              0.0000000000
      9114        78  OSM       H16G          -32.9470408119        7.9268553138       -0.0283918618  MEMB      78              0.0000000000
      9115        78  OSM       C17F          -33.0052877747        9.6103210184       -1.0364028034  MEMB      78              0.0000000000
      9116        78  OSM       H17F          -33.2973836430       10.6407426674       -0.8055328407  MEMB      78              0.0000000000
      9117        78  OSM       H17G          -33.4576174694        9.2148662151       -1.9787822905  MEMB      78              0.0000000000
      9118        78  OSM       C18F          -31.4989144398        9.7432462446       -1.2908482818  MEMB      78              0.0000000000
      9119        78  OSM       H18F          -31.0336254123        9.9433628255       -0.3213336455  MEMB      78              0.0000000000
      9120        78  OSM       H18G          -31.1278146922       10.4072728087       -2.0625826156  MEMB      78              0.0000000000
      9121        78  OSM       H18H          -31.0190644885        8.8722412736       -1.7102144518  MEMB      78              0.0000000000
      9122        79  CHL1      C3            -33.8720718553      -15.9823767693       17.3013225319  MEMB      79              0.0000000000
      9123        79  CHL1      H3            -34.2081082136      -14.9444389770       17.0664805929  MEMB      79              0.0000000000
      9124        79  CHL1      O3            -34.0380306810      -16.2096976660       18.6885740656  MEMB      79              0.0000000000
      9125        79  CHL1      H3'           -34.8011329107      -15.6869133719       18.9523928199  MEMB      79              0.0000000000
      9126        79  CHL1      C4            -34.6908065980      -16.9810850306       16.4751116472  MEMB      79              0.0000000000
      9127        79  CHL1      H4A           -34.3270515071      -18.0139253379       16.6778680901  MEMB      79              0.0000000000
      9128        79  CHL1      H4B           -35.7529719726      -17.0049771860       16.7875284500  MEMB      79              0.0000000000
      9129        79  CHL1      C5            -34.5312325574      -16.5524807551       15.0278576471  MEMB      79              0.0000000000
      9130        79  CHL1      C6            -35.5440890659      -16.0783178932       14.3084059153  MEMB      79              0.0000000000
      9131        79  CHL1      H6            -36.5275567459      -15.9740466901       14.7759026397  MEMB      79              0.0000000000
      9132        79  CHL1      C7            -35.4124659389      -15.7178895973       12.8614816028  MEMB      79              0.0000000000
      9133        79  CHL1      H7A           -36.3108619648      -16.0435342352       12.2994057595  MEMB      79              0.0000000000
      9134        79  CHL1      H7B           -35.3240411619      -14.6136456496       12.7732544809  MEMB      79              0.0000000000
      9135        79  CHL1      C8            -34.1600040695      -16.3514136718       12.2062992832  MEMB      79              0.0000000000
      9136        79  CHL1      H8            -34.3109276120      -17.4521734439       12.1535362480  MEMB      79              0.0000000000
      9137        79  CHL1      C14           -33.9782042142      -15.7984711335       10.8146113600  MEMB      79              0.0000000000
      9138        79  CHL1      H14           -33.7545361511      -14.7080623298       10.9737814963  MEMB      79              0.0000000000
      9139        79  CHL1      C15           -35.1932650926      -15.8104948150        9.8693843704  MEMB      79              0.0000000000
      9140        79  CHL1      H15A          -35.7348146895      -16.7768357027        9.9141014157  MEMB      79              0.0000000000
      9141        79  CHL1      H15B          -35.8641430076      -14.9477632724       10.0591542988  MEMB      79              0.0000000000
      9142        79  CHL1      C16           -34.6072896073      -15.7071131282        8.4781464463  MEMB      79              0.0000000000
      9143        79  CHL1      H16A          -34.8307919709      -16.6407948054        7.9175918864  MEMB      79              0.0000000000
      9144        79  CHL1      H16B          -34.9844192402      -14.8290334402        7.9150941739  MEMB      79              0.0000000000
      9145        79  CHL1      C17           -33.0935707701      -15.6549149908        8.6823735550  MEMB      79              0.0000000000
      9146        79  CHL1      H17           -32.8559283460      -14.5653754891        8.7950522249  MEMB      79              0.0000000000
      9147        79  CHL1      C13           -32.7843486549      -16.3350956853       10.0455096710  MEMB      79              0.0000000000
      9148        79  CHL1      C18           -32.7773242964      -17.8588282228        9.8237566940  MEMB      79              0.0000000000
      9149        79  CHL1      H18A          -33.4952906295      -18.1336244220        9.0253847045  MEMB      79              0.0000000000
      9150        79  CHL1      H18B          -31.7619638274      -18.1639798233        9.4898519727  MEMB      79              0.0000000000
      9151        79  CHL1      H18C          -32.9858461928      -18.4118364810       10.7581337903  MEMB      79              0.0000000000
      9152        79  CHL1      C12           -31.5653982163      -15.9181957145       10.8819523863  MEMB      79              0.0000000000
      9153        79  CHL1      H12A          -30.6079917993      -16.2764018188       10.4594701356  MEMB      79              0.0000000000
      9154        79  CHL1      H12B          -31.6051343557      -14.8106474546       10.8936465366  MEMB      79              0.0000000000
      9155        79  CHL1      C11           -31.5984748282      -16.3930804162       12.3380372324  MEMB      79              0.0000000000
      9156        79  CHL1      H11A          -31.2901853480      -17.4573122689       12.3169193086  MEMB      79              0.0000000000
      9157        79  CHL1      H11B          -30.8479748164      -15.8503541519       12.9422626116  MEMB      79              0.0000000000
      9158        79  CHL1      C9            -32.9314698106      -16.0439171661       13.0455655930  MEMB      79              0.0000000000
      9159        79  CHL1      H9            -32.8672119031      -14.9346932554       13.1505070681  MEMB      79              0.0000000000
      9160        79  CHL1      C10           -33.1176079451      -16.5805120379       14.4717032159  MEMB      79              0.0000000000
      9161        79  CHL1      C19           -32.7995013306      -18.0436675639       14.3596688423  MEMB      79              0.0000000000
      9162        79  CHL1      H19A          -33.3235804533      -18.5992984439       13.5601672265  MEMB      79              0.0000000000
      9163        79  CHL1      H19B          -31.7526878573      -18.0767805824       14.0767886042  MEMB      79              0.0000000000
      9164        79  CHL1      H19C          -32.9446604716      -18.5697796721       15.3150320255  MEMB      79              0.0000000000
      9165        79  CHL1      C1            -32.1554322982      -15.8543134300       15.4503557643  MEMB      79              0.0000000000
      9166        79  CHL1      H1A           -31.1664843943      -16.2716469329       15.2483802471  MEMB      79              0.0000000000
      9167        79  CHL1      H1B           -32.1140296179      -14.7614613164       15.2443789460  MEMB      79              0.0000000000
      9168        79  CHL1      C2            -32.3930624837      -16.1428684811       16.9398891958  MEMB      79              0.0000000000
      9169        79  CHL1      H2A           -31.7353362869      -15.5160929733       17.5763279404  MEMB      79              0.0000000000
      9170        79  CHL1      H2B           -32.1151056284      -17.2080665189       17.1085232833  MEMB      79              0.0000000000
      9171        79  CHL1      C20           -32.4228600633      -16.1366238914        7.4275191372  MEMB      79              0.0000000000
      9172        79  CHL1      H20           -32.4266134491      -17.2286616983        7.2024913533  MEMB      79              0.0000000000
      9173        79  CHL1      C21           -31.0733660373      -15.8317118028        7.7497033801  MEMB      79              0.0000000000
      9174        79  CHL1      H21A          -30.5915286216      -16.7479245314        8.1701184030  MEMB      79              0.0000000000
      9175        79  CHL1      H21B          -30.9211782814      -14.9711404804        8.4105363805  MEMB      79              0.0000000000
      9176        79  CHL1      H21C          -30.5963362019      -15.4886743614        6.8284400588  MEMB      79              0.0000000000
      9177        79  CHL1      C22           -32.7906194043      -15.3061215468        6.1982832487  MEMB      79              0.0000000000
      9178        79  CHL1      H22A          -33.8513600615      -15.5159603911        6.0009220067  MEMB      79              0.0000000000
      9179        79  CHL1      H22B          -32.6127943983      -14.2223928027        6.4234365916  MEMB      79              0.0000000000
      9180        79  CHL1      C23           -32.1185985106      -15.6538667779        4.8774220278  MEMB      79              0.0000000000
      9181        79  CHL1      H23A          -31.0344365617      -15.3988983467        4.9602581957  MEMB      79              0.0000000000
      9182        79  CHL1      H23B          -32.1775857304      -16.7187485340        4.6147798524  MEMB      79              0.0000000000
      9183        79  CHL1      C24           -32.8172372333      -14.8525248384        3.7762791265  MEMB      79              0.0000000000
      9184        79  CHL1      H24A          -33.8942156834      -14.8104204320        3.6461947817  MEMB      79              0.0000000000
      9185        79  CHL1      H24B          -32.6848563280      -13.8296585524        4.2061237972  MEMB      79              0.0000000000
      9186        79  CHL1      C25           -32.2774899337      -15.1231567149        2.3623666839  MEMB      79              0.0000000000
      9187        79  CHL1      H25           -32.6572167128      -16.0236953726        1.8599456538  MEMB      79              0.0000000000
      9188        79  CHL1      C26           -32.9795932889      -13.9646589255        1.4100084725  MEMB      79              0.0000000000
      9189        79  CHL1      H26A          -32.9721315484      -12.9044953831        1.7537696242  MEMB      79              0.0000000000
      9190        79  CHL1      H26B          -32.5986356483      -13.9120973585        0.3942349098  MEMB      79              0.0000000000
      9191        79  CHL1      H26C          -34.0627035022      -14.0220378511        1.2258259043  MEMB      79              0.0000000000
      9192        79  CHL1      C27           -30.7232387056      -15.6432008195        2.5113332515  MEMB      79              0.0000000000
      9193        79  CHL1      H27A          -29.8826027161      -15.1579018562        2.9905467764  MEMB      79              0.0000000000
      9194        79  CHL1      H27B          -30.3601404439      -16.3985085127        3.2270033495  MEMB      79              0.0000000000
      9195        79  CHL1      H27C          -30.2036425852      -15.4745687916        1.5673222702  MEMB      79              0.0000000000
      9196        80  SAPE      N             -32.1435241026      -22.8675574824       18.5547926226  MEMB      80              0.0000000000
      9197        80  SAPE      HN1           -33.1799843970      -22.9285292755       18.5383827076  MEMB      80              0.0000000000
      9198        80  SAPE      HN2           -31.7996568350      -22.3275416141       19.3869051829  MEMB      80              0.0000000000
      9199        80  SAPE      HN3           -31.7964036164      -22.3905259515       17.6970531469  MEMB      80              0.0000000000
      9200        80  SAPE      C12           -31.5190596078      -24.2244319015       18.6622789203  MEMB      80              0.0000000000
      9201        80  SAPE      H12A          -31.6613731465      -24.7703118154       17.7100610999  MEMB      80              0.0000000000
      9202        80  SAPE      H12B          -31.9623596174      -24.7596770811       19.5339460897  MEMB      80              0.0000000000
      9203        80  SAPE      C11           -30.0568799823      -24.0774483109       19.0052240320  MEMB      80              0.0000000000
      9204        80  SAPE      H11A          -29.5445417081      -23.3829620153       18.2848343560  MEMB      80              0.0000000000
      9205        80  SAPE      H11B          -29.6006941389      -25.0858659971       18.8942834228  MEMB      80              0.0000000000
      9206        80  SAPE      P             -28.9394196770      -22.5707561416       20.7724428391  MEMB      80              0.0000000000
      9207        80  SAPE      O13           -29.4852882355      -21.2821623288       20.3019793887  MEMB      80              0.0000000000
      9208        80  SAPE      O14           -28.5025261600      -22.7434178306       22.1627407398  MEMB      80              0.0000000000
      9209        80  SAPE      O12           -30.0017029774      -23.6776895268       20.3787713422  MEMB      80              0.0000000000
      9210        80  SAPE      O11           -27.7217019743      -23.0539574898       19.8946085469  MEMB      80              0.0000000000
      9211        80  SAPE      C1            -26.6487882865      -22.1559076102       19.6659334288  MEMB      80              0.0000000000
      9212        80  SAPE      HA            -26.6762903538      -21.2406951045       20.3125683560  MEMB      80              0.0000000000
      9213        80  SAPE      HB            -25.7128315781      -22.7059142407       19.8779855298  MEMB      80              0.0000000000
      9214        80  SAPE      C2            -26.7163980951      -21.6603131837       18.2170965751  MEMB      80              0.0000000000
      9215        80  SAPE      HS            -25.9808029917      -20.8038875949       18.1685263289  MEMB      80              0.0000000000
      9216        80  SAPE      O21           -28.1164923650      -21.4010933171       17.9026829153  MEMB      80              0.0000000000
      9217        80  SAPE      C21           -28.2447335460      -20.2214608598       17.3817744348  MEMB      80              0.0000000000
      9218        80  SAPE      O22           -27.3336463024      -19.4569109088       17.2677618158  MEMB      80              0.0000000000
      9219        80  SAPE      C22           -29.5926264021      -19.9987873062       16.7726964845  MEMB      80              0.0000000000
      9220        80  SAPE      H2R           -30.3553035603      -20.4374695746       17.4369425875  MEMB      80              0.0000000000
      9221        80  SAPE      H2S           -29.7983251755      -18.9047028179       16.6511586584  MEMB      80              0.0000000000
      9222        80  SAPE      C3            -26.2375937383      -22.7299140992       17.2306277394  MEMB      80              0.0000000000
      9223        80  SAPE      HX            -27.0075578296      -23.5193460983       17.3649286300  MEMB      80              0.0000000000
      9224        80  SAPE      HY            -25.2578717293      -23.1531336211       17.5343313391  MEMB      80              0.0000000000
      9225        80  SAPE      O31           -26.3057312803      -22.3277385581       15.8489430765  MEMB      80              0.0000000000
      9226        80  SAPE      C31           -25.4903604126      -21.3679852181       15.4164515527  MEMB      80              0.0000000000
      9227        80  SAPE      O32           -24.5863494156      -20.8761246253       16.0590682715  MEMB      80              0.0000000000
      9228        80  SAPE      C32           -25.6889292051      -21.1962206395       13.8949041463  MEMB      80              0.0000000000
      9229        80  SAPE      H2X           -26.7154429028      -21.0025871548       13.6122145518  MEMB      80              0.0000000000
      9230        80  SAPE      H2Y           -25.4986286159      -22.2513817621       13.5495593633  MEMB      80              0.0000000000
      9231        80  SAPE      C23           -29.4984553767      -20.6894925245       15.4038951651  MEMB      80              0.0000000000
      9232        80  SAPE      H3R           -29.4656630019      -21.7905239820       15.5118518294  MEMB      80              0.0000000000
      9233        80  SAPE      H3S           -28.5984258478      -20.3405650239       14.8366688434  MEMB      80              0.0000000000
      9234        80  SAPE      C24           -30.6204910579      -20.2583315516       14.5268399215  MEMB      80              0.0000000000
      9235        80  SAPE      H4R           -30.4489702114      -20.4673764864       13.4507602265  MEMB      80              0.0000000000
      9236        80  SAPE      H4S           -30.5008179108      -19.1740850986       14.6488322305  MEMB      80              0.0000000000
      9237        80  SAPE      C25           -31.9114714682      -20.7815564269       15.0613483931  MEMB      80              0.0000000000
      9238        80  SAPE      H5R           -32.3532988491      -20.2876495718       15.9418252538  MEMB      80              0.0000000000
      9239        80  SAPE      C26           -32.6154455108      -21.7169271963       14.4781138327  MEMB      80              0.0000000000
      9240        80  SAPE      H6R           -33.5051325930      -21.9452703149       15.0017097256  MEMB      80              0.0000000000
      9241        80  SAPE      C27           -32.3082724146      -22.4504501376       13.2114755554  MEMB      80              0.0000000000
      9242        80  SAPE      H7R           -31.6226730562      -21.8574240741       12.5893955771  MEMB      80              0.0000000000
      9243        80  SAPE      H7S           -33.1723171210      -22.5203961248       12.5404736968  MEMB      80              0.0000000000
      9244        80  SAPE      C28           -31.7833731147      -23.8230962800       13.5261313660  MEMB      80              0.0000000000
      9245        80  SAPE      H8R           -32.3233323598      -24.3838977225       14.3084904771  MEMB      80              0.0000000000
      9246        80  SAPE      C29           -30.6822025156      -24.3595909098       12.9774287756  MEMB      80              0.0000000000
      9247        80  SAPE      H9R           -30.4574455528      -25.4137806347       13.1935693218  MEMB      80              0.0000000000
      9248        80  SAPE      C210          -29.7784796318      -23.7010975606       11.9587583949  MEMB      80              0.0000000000
      9249        80  SAPE      H10R          -29.8073074722      -22.5877206780       11.9951644137  MEMB      80              0.0000000000
      9250        80  SAPE      H10S          -30.1670484635      -23.9790661533       10.9595467242  MEMB      80              0.0000000000
      9251        80  SAPE      C211          -28.3415343494      -24.1348045897       12.0694424519  MEMB      80              0.0000000000
      9252        80  SAPE      H11R          -27.9289106877      -24.2281735077       13.0869445559  MEMB      80              0.0000000000
      9253        80  SAPE      C212          -27.5008104262      -24.2533614259       11.0307202882  MEMB      80              0.0000000000
      9254        80  SAPE      H12R          -26.4666700434      -24.5576965007       11.2428775887  MEMB      80              0.0000000000
      9255        80  SAPE      C213          -27.8077525437      -23.9813982543        9.5762318779  MEMB      80              0.0000000000
      9256        80  SAPE      H13R          -27.4939853632      -22.9284681944        9.4141074881  MEMB      80              0.0000000000
      9257        80  SAPE      H13S          -28.8958163923      -24.0006651295        9.3380270008  MEMB      80              0.0000000000
      9258        80  SAPE      C214          -27.1035773578      -24.9100257948        8.6136449080  MEMB      80              0.0000000000
      9259        80  SAPE      H14R          -26.6291075069      -25.8025904373        9.0483753652  MEMB      80              0.0000000000
      9260        80  SAPE      C215          -27.0245597413      -24.7510751194        7.2791989912  MEMB      80              0.0000000000
      9261        80  SAPE      H15R          -26.4694656179      -25.5068774600        6.7008537900  MEMB      80              0.0000000000
      9262        80  SAPE      C216          -27.6163223674      -23.6172085199        6.4737417120  MEMB      80              0.0000000000
      9263        80  SAPE      H16R          -27.6701435603      -22.6949280168        7.0964827141  MEMB      80              0.0000000000
      9264        80  SAPE      H16S          -28.6284205606      -23.9105355357        6.1366362611  MEMB      80              0.0000000000
      9265        80  SAPE      C217          -26.9248936022      -23.2857198375        5.1390074867  MEMB      80              0.0000000000
      9266        80  SAPE      H17R          -25.9856672592      -22.9075089672        5.4054687832  MEMB      80              0.0000000000
      9267        80  SAPE      H17S          -27.2831252683      -22.3759809104        4.6303915752  MEMB      80              0.0000000000
      9268        80  SAPE      C218          -26.7612624744      -24.4968194057        4.2137860731  MEMB      80              0.0000000000
      9269        80  SAPE      H18R          -27.5037195400      -25.2336684271        4.5987092781  MEMB      80              0.0000000000
      9270        80  SAPE      H18S          -25.7459674898      -24.9411456064        4.3286105325  MEMB      80              0.0000000000
      9271        80  SAPE      C219          -27.1177813834      -24.2359575294        2.7422058639  MEMB      80              0.0000000000
      9272        80  SAPE      H19R          -27.8769520675      -23.4178344663        2.7261976251  MEMB      80              0.0000000000
      9273        80  SAPE      H19S          -27.6020140927      -25.1445318004        2.3309924825  MEMB      80              0.0000000000
      9274        80  SAPE      C220          -25.9344720055      -23.9323047976        1.8227783391  MEMB      80              0.0000000000
      9275        80  SAPE      H20R          -26.1918286208      -23.8689613899        0.7495795768  MEMB      80              0.0000000000
      9276        80  SAPE      H20S          -25.0913822655      -24.6453224303        1.9656883600  MEMB      80              0.0000000000
      9277        80  SAPE      H20T          -25.6015901382      -22.9210376564        2.0425038410  MEMB      80              0.0000000000
      9278        80  SAPE      C33           -24.8531920839      -20.0482787637       13.1873307525  MEMB      80              0.0000000000
      9279        80  SAPE      H3X           -23.8032104083      -20.2596664170       13.4544278711  MEMB      80              0.0000000000
      9280        80  SAPE      H3Y           -24.7530181635      -19.0844843393       13.6908511845  MEMB      80              0.0000000000
      9281        80  SAPE      C34           -25.1376043902      -19.9341717796       11.6117735729  MEMB      80              0.0000000000
      9282        80  SAPE      H4X           -26.1496474740      -19.9123304541       11.2197967773  MEMB      80              0.0000000000
      9283        80  SAPE      H4Y           -25.3844172440      -20.9657612591       11.3060572044  MEMB      80              0.0000000000
      9284        80  SAPE      C35           -24.0027628145      -19.2216782099       10.7100619932  MEMB      80              0.0000000000
      9285        80  SAPE      H5X           -22.9016189649      -19.3824150325       10.8862301829  MEMB      80              0.0000000000
      9286        80  SAPE      H5Y           -24.1418925147      -18.2039900198       11.0603971000  MEMB      80              0.0000000000
      9287        80  SAPE      C36           -24.0591116716      -19.2807099017        9.1572391882  MEMB      80              0.0000000000
      9288        80  SAPE      H6X           -25.1098131029      -19.2792714529        8.8792905351  MEMB      80              0.0000000000
      9289        80  SAPE      H6Y           -23.8068787935      -20.1782275431        8.5654631110  MEMB      80              0.0000000000
      9290        80  SAPE      C37           -23.0059297056      -18.4355178951        8.4646453358  MEMB      80              0.0000000000
      9291        80  SAPE      H7X           -21.9910470326      -18.5635970841        8.9298246288  MEMB      80              0.0000000000
      9292        80  SAPE      H7Y           -23.3782026699      -17.4194833194        8.6622033983  MEMB      80              0.0000000000
      9293        80  SAPE      C38           -22.9114692415      -18.8489733318        6.9835757354  MEMB      80              0.0000000000
      9294        80  SAPE      H8X           -22.3331501489      -19.8038779677        6.8841246963  MEMB      80              0.0000000000
      9295        80  SAPE      H8Y           -22.3614497383      -18.0469310475        6.4522892892  MEMB      80              0.0000000000
      9296        80  SAPE      C39           -24.2774129307      -19.1444681976        6.3319933780  MEMB      80              0.0000000000
      9297        80  SAPE      H9X           -24.8270340088      -19.9572105528        6.8577151307  MEMB      80              0.0000000000
      9298        80  SAPE      H9Y           -24.0924348785      -19.5562631272        5.3292632318  MEMB      80              0.0000000000
      9299        80  SAPE      C310          -25.2312344489      -17.9548211416        6.3562267577  MEMB      80              0.0000000000
      9300        80  SAPE      H10X          -24.7288053757      -17.0185567311        6.0300405162  MEMB      80              0.0000000000
      9301        80  SAPE      H10Y          -25.5575660097      -17.8294133947        7.4140402920  MEMB      80              0.0000000000
      9302        80  SAPE      C311          -26.4904970272      -18.1828206454        5.5288049712  MEMB      80              0.0000000000
      9303        80  SAPE      H11X          -27.1101282919      -17.2556232419        5.6220326049  MEMB      80              0.0000000000
      9304        80  SAPE      H11Y          -27.0567253053      -19.0630270612        5.8872508910  MEMB      80              0.0000000000
      9305        80  SAPE      C312          -26.2258574466      -18.5252526993        4.0760690285  MEMB      80              0.0000000000
      9306        80  SAPE      H12X          -25.5401100475      -19.3339253153        3.8288953976  MEMB      80              0.0000000000
      9307        80  SAPE      H12Y          -25.5590878576      -17.8222141766        3.7165958121  MEMB      80              0.0000000000
      9308        80  SAPE      C313          -27.4878695718      -18.5174373185        3.2594613023  MEMB      80              0.0000000000
      9309        80  SAPE      H13X          -28.1640232570      -17.7027159015        3.6248684351  MEMB      80              0.0000000000
      9310        80  SAPE      H13Y          -27.9554947943      -19.5026021607        3.4692075719  MEMB      80              0.0000000000
      9311        80  SAPE      C314          -27.2447869940      -18.3323141874        1.7640312344  MEMB      80              0.0000000000
      9312        80  SAPE      H14X          -26.4431751569      -18.9521081044        1.3396767679  MEMB      80              0.0000000000
      9313        80  SAPE      H14Y          -27.0282659179      -17.2501827145        1.5480962092  MEMB      80              0.0000000000
      9314        80  SAPE      C315          -28.4938559107      -18.7548297285        1.0329108642  MEMB      80              0.0000000000
      9315        80  SAPE      H15X          -28.4533020696      -18.4575553207       -0.0398286705  MEMB      80              0.0000000000
      9316        80  SAPE      H15Y          -29.1272261152      -18.0870945603        1.6364011852  MEMB      80              0.0000000000
      9317        80  SAPE      C316          -29.1573464392      -20.1434184952        1.2626100532  MEMB      80              0.0000000000
      9318        80  SAPE      H16X          -29.6322008461      -20.1993991255        2.2665159791  MEMB      80              0.0000000000
      9319        80  SAPE      H16Y          -28.3064357090      -20.8531935771        1.2621267577  MEMB      80              0.0000000000
      9320        80  SAPE      C317          -30.2155821533      -20.6932480750        0.2357378847  MEMB      80              0.0000000000
      9321        80  SAPE      H17X          -30.3678861524      -21.7501634714        0.5202074150  MEMB      80              0.0000000000
      9322        80  SAPE      H17Y          -29.7921962385      -20.6191587712       -0.7894787037  MEMB      80              0.0000000000
      9323        80  SAPE      C318          -31.6847973250      -20.2280221240        0.2225169550  MEMB      80              0.0000000000
      9324        80  SAPE      H18X          -31.7898880366      -19.4463917939       -0.5512671473  MEMB      80              0.0000000000
      9325        80  SAPE      H18Y          -31.9764229764      -19.8345606408        1.2315593015  MEMB      80              0.0000000000
      9326        80  SAPE      H18Z          -32.4337832384      -20.8456974590       -0.2647644584  MEMB      80              0.0000000000
      9327        81  SOPE      N              22.2202128527      -32.0604698628       20.3812406030  MEMB      81              0.0000000000
      9328        81  SOPE      HN1            22.5948791744      -31.7336009687       19.4600557852  MEMB      81              0.0000000000
      9329        81  SOPE      HN2            23.0295668585      -32.1925702936       21.0248044830  MEMB      81              0.0000000000
      9330        81  SOPE      HN3            21.6743829109      -32.9432380255       20.2764768020  MEMB      81              0.0000000000
      9331        81  SOPE      C12            21.3337694625      -31.0355912555       21.0306332936  MEMB      81              0.0000000000
      9332        81  SOPE      H12A           21.1431094175      -31.4054622610       22.0605386746  MEMB      81              0.0000000000
      9333        81  SOPE      H12B           20.3890142118      -30.9892692270       20.4620333703  MEMB      81              0.0000000000
      9334        81  SOPE      C11            21.9830683399      -29.6531196823       21.0817112272  MEMB      81              0.0000000000
      9335        81  SOPE      H11A           21.3399195167      -28.9628306938       21.6771194340  MEMB      81              0.0000000000
      9336        81  SOPE      H11B           22.0392933355      -29.2434098849       20.0467736014  MEMB      81              0.0000000000
      9337        81  SOPE      P              24.4808154852      -28.9144452309       21.1682648446  MEMB      81              0.0000000000
      9338        81  SOPE      O13            25.6303450215      -29.3956982886       21.9595653058  MEMB      81              0.0000000000
      9339        81  SOPE      O14            24.1322149623      -27.4791361729       21.2288817513  MEMB      81              0.0000000000
      9340        81  SOPE      O12            23.2536950128      -29.7604704814       21.6989107301  MEMB      81              0.0000000000
      9341        81  SOPE      O11            24.5545267820      -29.4280951759       19.6611833774  MEMB      81              0.0000000000
      9342        81  SOPE      C1             24.4107510591      -28.4836279505       18.5797165746  MEMB      81              0.0000000000
      9343        81  SOPE      HA             25.4076550194      -28.1339877893       18.2195543909  MEMB      81              0.0000000000
      9344        81  SOPE      HB             23.7910965227      -27.5972400638       18.8484660687  MEMB      81              0.0000000000
      9345        81  SOPE      C2             23.7459796490      -29.1446921028       17.3695916342  MEMB      81              0.0000000000
      9346        81  SOPE      HS             22.8063704807      -29.6241374799       17.7462960830  MEMB      81              0.0000000000
      9347        81  SOPE      O21            24.7172920704      -30.0393605823       16.8183793606  MEMB      81              0.0000000000
      9348        81  SOPE      C21            24.1264514151      -31.1181562133       16.3457213615  MEMB      81              0.0000000000
      9349        81  SOPE      O22            22.9764781872      -31.3759973900       16.5412970262  MEMB      81              0.0000000000
      9350        81  SOPE      C22            25.0722204802      -32.0605666501       15.7493515265  MEMB      81              0.0000000000
      9351        81  SOPE      H2R            24.7287930473      -32.9107835735       15.2503951088  MEMB      81              0.0000000000
      9352        81  SOPE      H2S            25.6340500266      -32.4846908817       16.6100901171  MEMB      81              0.0000000000
      9353        81  SOPE      C3             23.3384795896      -28.1524067611       16.2715344502  MEMB      81              0.0000000000
      9354        81  SOPE      HX             24.2327564633      -27.5624736946       15.9734799214  MEMB      81              0.0000000000
      9355        81  SOPE      HY             22.5836042598      -27.4625266223       16.7112591691  MEMB      81              0.0000000000
      9356        81  SOPE      O31            22.7856790132      -28.8500715329       15.1411081656  MEMB      81              0.0000000000
      9357        81  SOPE      C31            22.5620674632      -27.9849813223       14.1718480472  MEMB      81              0.0000000000
      9358        81  SOPE      O32            22.9152215740      -26.8156408767       14.2024233147  MEMB      81              0.0000000000
      9359        81  SOPE      C32            21.6695861626      -28.6700046940       13.1785582151  MEMB      81              0.0000000000
      9360        81  SOPE      H2X            20.7630325023      -28.3197869754       12.6886698916  MEMB      81              0.0000000000
      9361        81  SOPE      H2Y            21.1617742250      -29.4437236246       13.7309947458  MEMB      81              0.0000000000
      9362        81  SOPE      C23            25.8069737799      -31.3968228532       14.6822100532  MEMB      81              0.0000000000
      9363        81  SOPE      H3R            26.5950980888      -32.1039737823       14.3160922900  MEMB      81              0.0000000000
      9364        81  SOPE      H3S            26.1574511015      -30.5432722789       15.3125862070  MEMB      81              0.0000000000
      9365        81  SOPE      C24            25.3028060521      -31.0392948791       13.3509396132  MEMB      81              0.0000000000
      9366        81  SOPE      H4R            24.9778946329      -31.8826311335       12.7113680359  MEMB      81              0.0000000000
      9367        81  SOPE      H4S            24.6925783130      -30.1228078900       13.4292627155  MEMB      81              0.0000000000
      9368        81  SOPE      C25            26.4474799978      -30.5629273046       12.5893746804  MEMB      81              0.0000000000
      9369        81  SOPE      H5R            26.7656664644      -29.6422504505       13.1378809723  MEMB      81              0.0000000000
      9370        81  SOPE      H5S            27.2257592800      -31.3113247151       12.2452230648  MEMB      81              0.0000000000
      9371        81  SOPE      C26            26.0831105097      -29.6491866816       11.5666428080  MEMB      81              0.0000000000
      9372        81  SOPE      H6R            25.6568677070      -28.6640112330       11.8035037306  MEMB      81              0.0000000000
      9373        81  SOPE      H6S            27.1572472722      -29.5662909685       11.3908801389  MEMB      81              0.0000000000
      9374        81  SOPE      C27            25.4408394816      -30.2611318703       10.4526652371  MEMB      81              0.0000000000
      9375        81  SOPE      H7R            26.1551895401      -31.1084540975       10.2114644889  MEMB      81              0.0000000000
      9376        81  SOPE      H7S            24.5604101441      -30.7762163328       10.8494266472  MEMB      81              0.0000000000
      9377        81  SOPE      C28            24.9631007839      -29.2105625599        9.3653709506  MEMB      81              0.0000000000
      9378        81  SOPE      H8R            24.0336341265      -29.5666528950        8.8944371706  MEMB      81              0.0000000000
      9379        81  SOPE      H8S            24.8060311114      -28.2407806839        9.8303646910  MEMB      81              0.0000000000
      9380        81  SOPE      C29            25.2174191919      -28.7676238487        7.9921919007  MEMB      81              0.0000000000
      9381        81  SOPE      H91            26.0913526528      -28.0325303968        8.0406258800  MEMB      81              0.0000000000
      9382        81  SOPE      C210           25.6349283252      -29.5795215040        7.0880962630  MEMB      81              0.0000000000
      9383        81  SOPE      H101           26.4761259116      -29.8943861334        7.2321452989  MEMB      81              0.0000000000
      9384        81  SOPE      C211           25.8928935053      -31.0370188032        6.8465786261  MEMB      81              0.0000000000
      9385        81  SOPE      H11R           26.3620660699      -31.5722232433        7.7486389942  MEMB      81              0.0000000000
      9386        81  SOPE      H11S           26.3950344886      -31.8036462152        6.1577392402  MEMB      81              0.0000000000
      9387        81  SOPE      C212           24.7442368488      -30.6306437033        5.9322110003  MEMB      81              0.0000000000
      9388        81  SOPE      H12R           23.7379676061      -30.4370835828        6.3252177930  MEMB      81              0.0000000000
      9389        81  SOPE      H12S           24.6629234775      -31.5983973504        5.5661754017  MEMB      81              0.0000000000
      9390        81  SOPE      C213           24.6687856213      -30.2186234329        4.5000973522  MEMB      81              0.0000000000
      9391        81  SOPE      H13R           25.0706520397      -30.9838689016        3.8166378239  MEMB      81              0.0000000000
      9392        81  SOPE      H13S           24.9744798293      -29.1614081554        4.4131754964  MEMB      81              0.0000000000
      9393        81  SOPE      C214           23.3354409249      -30.3044897971        3.8878246787  MEMB      81              0.0000000000
      9394        81  SOPE      H14R           22.6145377196      -30.0978697099        4.6934713472  MEMB      81              0.0000000000
      9395        81  SOPE      H14S           23.1749583235      -31.2621093021        3.3132217446  MEMB      81              0.0000000000
      9396        81  SOPE      C215           23.1760867793      -29.1454977468        3.0164602486  MEMB      81              0.0000000000
      9397        81  SOPE      H15R           23.1960351243      -28.1980810539        3.6159885497  MEMB      81              0.0000000000
      9398        81  SOPE      H15S           22.2023099637      -29.3206832989        2.5564899425  MEMB      81              0.0000000000
      9399        81  SOPE      C216           24.2108064434      -29.0381644397        1.9720006044  MEMB      81              0.0000000000
      9400        81  SOPE      H16R           25.1109784918      -28.5246537480        2.3780364797  MEMB      81              0.0000000000
      9401        81  SOPE      H16S           23.6707609050      -28.5082382302        1.2038279706  MEMB      81              0.0000000000
      9402        81  SOPE      C217           24.5327845743      -30.1167945310        1.0251581430  MEMB      81              0.0000000000
      9403        81  SOPE      H17R           23.6456531639      -30.5397645200        0.5211291757  MEMB      81              0.0000000000
      9404        81  SOPE      H17S           24.8884650490      -30.9017012077        1.7375734113  MEMB      81              0.0000000000
      9405        81  SOPE      C218           25.5546362999      -29.5871439471       -0.0416201194  MEMB      81              0.0000000000
      9406        81  SOPE      H18R           26.4368145138      -29.2088598890        0.5007591621  MEMB      81              0.0000000000
      9407        81  SOPE      H18S           25.3131924593      -28.8684227953       -0.8055653094  MEMB      81              0.0000000000
      9408        81  SOPE      H18T           26.0379041585      -30.3264624266       -0.6554881438  MEMB      81              0.0000000000
      9409        81  SOPE      C33            22.5730858440      -28.7428765760       11.9908079265  MEMB      81              0.0000000000
      9410        81  SOPE      H3X            23.3415811042      -29.5014659904       12.2343655795  MEMB      81              0.0000000000
      9411        81  SOPE      H3Y            22.9348600689      -27.7442128095       11.7026358782  MEMB      81              0.0000000000
      9412        81  SOPE      C34            21.9609044336      -29.0235660160       10.6392566576  MEMB      81              0.0000000000
      9413        81  SOPE      H4X            21.3661069111      -29.5217800035       11.3321764779  MEMB      81              0.0000000000
      9414        81  SOPE      H4Y            22.6437544547      -29.6522718647       10.0795270102  MEMB      81              0.0000000000
      9415        81  SOPE      C35            20.5255424044      -28.9389346338       10.0721684247  MEMB      81              0.0000000000
      9416        81  SOPE      H5X            19.6396082630      -29.2210699279       10.7189198574  MEMB      81              0.0000000000
      9417        81  SOPE      H5Y            20.4041146674      -29.5902216812        9.1684058081  MEMB      81              0.0000000000
      9418        81  SOPE      C36            20.9028484127      -27.5309070827        9.9683794327  MEMB      81              0.0000000000
      9419        81  SOPE      H6X            21.8170554013      -27.4384949533        9.3223160795  MEMB      81              0.0000000000
      9420        81  SOPE      H6Y            20.9060951096      -27.0989159835       10.9921024322  MEMB      81              0.0000000000
      9421        81  SOPE      C37            19.9829433660      -26.7603878989        9.3065640310  MEMB      81              0.0000000000
      9422        81  SOPE      H7X            19.0973604647      -27.0671129085        9.8988729524  MEMB      81              0.0000000000
      9423        81  SOPE      H7Y            20.0533234901      -27.3348335505        8.3442315852  MEMB      81              0.0000000000
      9424        81  SOPE      C38            20.1503881534      -25.2558662050        9.2305831761  MEMB      81              0.0000000000
      9425        81  SOPE      H8X            20.2215805501      -24.8410639691       10.2440838735  MEMB      81              0.0000000000
      9426        81  SOPE      H8Y            19.2389663127      -24.7151255804        8.8770574514  MEMB      81              0.0000000000
      9427        81  SOPE      C39            21.3526723590      -24.9436442238        8.3644375654  MEMB      81              0.0000000000
      9428        81  SOPE      H9X            22.1754479375      -25.2752118349        9.0264311410  MEMB      81              0.0000000000
      9429        81  SOPE      H9Y            21.3439240944      -23.8518442214        8.1775033954  MEMB      81              0.0000000000
      9430        81  SOPE      C310           21.5172941227      -25.6792470759        7.0199104212  MEMB      81              0.0000000000
      9431        81  SOPE      H10X           20.7911126169      -25.2495794086        6.3353457112  MEMB      81              0.0000000000
      9432        81  SOPE      H10Y           21.4452574367      -26.7896165171        7.0607776525  MEMB      81              0.0000000000
      9433        81  SOPE      C311           22.6554174582      -25.2941355020        6.1450123754  MEMB      81              0.0000000000
      9434        81  SOPE      H11X           22.4511727166      -24.3158276303        5.6485299704  MEMB      81              0.0000000000
      9435        81  SOPE      H11Y           22.6573930929      -26.0377313972        5.3127793841  MEMB      81              0.0000000000
      9436        81  SOPE      C312           23.9133624113      -25.2280006058        6.9701336360  MEMB      81              0.0000000000
      9437        81  SOPE      H12X           24.2620504146      -26.2475659013        7.2593448740  MEMB      81              0.0000000000
      9438        81  SOPE      H12Y           23.7287385818      -24.6577357018        7.8929341895  MEMB      81              0.0000000000
      9439        81  SOPE      C313           24.9438401356      -24.3605366855        6.3301336941  MEMB      81              0.0000000000
      9440        81  SOPE      H13X           25.6858859071      -23.9810157282        7.0557056791  MEMB      81              0.0000000000
      9441        81  SOPE      H13Y           24.5329889873      -23.5556395388        5.6713811588  MEMB      81              0.0000000000
      9442        81  SOPE      C314           25.7151192148      -25.2011003583        5.4726321780  MEMB      81              0.0000000000
      9443        81  SOPE      H14X           26.3055660548      -25.9729176635        6.0178554746  MEMB      81              0.0000000000
      9444        81  SOPE      H14Y           26.4561609347      -24.5021016796        5.0723724688  MEMB      81              0.0000000000
      9445        81  SOPE      C315           24.8057489700      -25.7225487364        4.4191332873  MEMB      81              0.0000000000
      9446        81  SOPE      H15X           24.3219729493      -26.7110434133        4.6726289358  MEMB      81              0.0000000000
      9447        81  SOPE      H15Y           25.4347952071      -26.5600344365        4.1217871120  MEMB      81              0.0000000000
      9448        81  SOPE      C316           24.1974372143      -24.5129688834        3.3270143250  MEMB      81              0.0000000000
      9449        81  SOPE      H16X           23.3364855807      -23.9685489051        3.6650886213  MEMB      81              0.0000000000
      9450        81  SOPE      H16Y           23.5197014258      -25.3926462937        3.0800549747  MEMB      81              0.0000000000
      9451        81  SOPE      C317           25.0269833177      -23.6503675738        1.7347119727  MEMB      81              0.0000000000
      9452        81  SOPE      H17X           25.3827134551      -22.9436128027        2.4876190644  MEMB      81              0.0000000000
      9453        81  SOPE      H17Y           24.2293971837      -23.3648598462        1.1046027151  MEMB      81              0.0000000000
      9454        81  SOPE      C318           26.2827309152      -24.2805434063        0.3328077127  MEMB      81              0.0000000000
      9455        81  SOPE      H18X           26.8928641275      -23.7412260707       -0.2951347125  MEMB      81              0.0000000000
      9456        81  SOPE      H18Y           26.5141047248      -25.2775532580       -0.1396088778  MEMB      81              0.0000000000
      9457        81  SOPE      H18Z           27.0704711940      -25.0779547716        0.6516799110  MEMB      81              0.0000000000
      9458        82  POPC      N               9.7772839961       37.7843874842       19.8519455835  MEMB      82              0.0000000000
      9459        82  POPC      C12            10.0950244771       36.4724091916       20.7325118582  MEMB      82              0.0000000000
      9460        82  POPC      H12A            9.3132172983       36.1823293336       21.4240777864  MEMB      82              0.0000000000
      9461        82  POPC      H12B           10.9119348191       36.8987927939       21.3605318955  MEMB      82              0.0000000000
      9462        82  POPC      C13            10.8462213054       38.7091811110       19.1868730206  MEMB      82              0.0000000000
      9463        82  POPC      H13A           11.6304274319       38.0943254028       18.7325296226  MEMB      82              0.0000000000
      9464        82  POPC      H13B           10.5396378643       39.3293106534       18.3439185302  MEMB      82              0.0000000000
      9465        82  POPC      H13C           11.4643921964       39.2836423959       19.8826947366  MEMB      82              0.0000000000
      9466        82  POPC      C14             9.0182284022       37.2436051031       18.7189823616  MEMB      82              0.0000000000
      9467        82  POPC      H14A            8.2202366428       36.6281665577       19.1002035900  MEMB      82              0.0000000000
      9468        82  POPC      H14B            8.6737477027       38.0348733517       18.0772242528  MEMB      82              0.0000000000
      9469        82  POPC      H14C            9.6774313834       36.5819821854       18.1503862113  MEMB      82              0.0000000000
      9470        82  POPC      C15             8.9614737644       38.7570634634       20.6256807648  MEMB      82              0.0000000000
      9471        82  POPC      H15A            9.4292372123       39.0428539256       21.5688055768  MEMB      82              0.0000000000
      9472        82  POPC      H15B            8.0106983057       38.3106371635       20.8315958477  MEMB      82              0.0000000000
      9473        82  POPC      H15C            8.8703526904       39.6850716380       20.0497576243  MEMB      82              0.0000000000
      9474        82  POPC      C11            10.7106942237       35.0329371511       20.0597321170  MEMB      82              0.0000000000
      9475        82  POPC      H11A            9.8328159636       34.4054157452       19.8571228498  MEMB      82              0.0000000000
      9476        82  POPC      H11B           11.4552325144       34.5937758440       20.8190633385  MEMB      82              0.0000000000
      9477        82  POPC      P              12.5364179639       34.3968161578       18.0019189371  MEMB      82              0.0000000000
      9478        82  POPC      O13            12.9750415164       34.9073365614       16.6953546280  MEMB      82              0.0000000000
      9479        82  POPC      O14            11.8667400161       33.1469749769       18.1956096871  MEMB      82              0.0000000000
      9480        82  POPC      O12            11.4065668669       35.1939575865       18.7760133296  MEMB      82              0.0000000000
      9481        82  POPC      O11            13.8345474149       34.2499808143       18.7165236354  MEMB      82              0.0000000000
      9482        82  POPC      C1             14.5356104014       35.3870399694       18.9865661842  MEMB      82              0.0000000000
      9483        82  POPC      HA             14.7018714758       35.0414226640       19.9682685599  MEMB      82              0.0000000000
      9484        82  POPC      HB             14.1170243347       36.3454696747       19.1794130812  MEMB      82              0.0000000000
      9485        82  POPC      C2             15.6905382705       35.8013767838       18.1563641979  MEMB      82              0.0000000000
      9486        82  POPC      HS             16.2368406089       36.4768228027       18.8234777201  MEMB      82              0.0000000000
      9487        82  POPC      O21            15.3989311068       36.4019549165       16.8612775932  MEMB      82              0.0000000000
      9488        82  POPC      C21            14.3858904909       37.2182247558       16.7269195224  MEMB      82              0.0000000000
      9489        82  POPC      O22            13.5383685851       37.5210785009       17.5470180380  MEMB      82              0.0000000000
      9490        82  POPC      C22            14.2240071169       37.6996571079       15.3530708625  MEMB      82              0.0000000000
      9491        82  POPC      H2R            14.4897010552       36.8580409358       14.7261852245  MEMB      82              0.0000000000
      9492        82  POPC      H2S            14.9681401188       38.3110200872       14.8590601976  MEMB      82              0.0000000000
      9493        82  POPC      C3             16.6484898393       34.6584857149       17.9570774817  MEMB      82              0.0000000000
      9494        82  POPC      HX             17.0007481460       34.2079981027       18.8955506778  MEMB      82              0.0000000000
      9495        82  POPC      HY             17.5029883049       35.0606860822       17.5477579871  MEMB      82              0.0000000000
      9496        82  POPC      O31            16.2370796328       33.7125957691       17.0672941924  MEMB      82              0.0000000000
      9497        82  POPC      C31            16.2019164999       33.9896751289       15.8449725487  MEMB      82              0.0000000000
      9498        82  POPC      O32            16.7544465159       34.8469402217       15.1806650742  MEMB      82              0.0000000000
      9499        82  POPC      C32            15.6483543140       32.7899672403       15.2896559077  MEMB      82              0.0000000000
      9500        82  POPC      H2X            14.6325057622       32.5827942400       15.6147616256  MEMB      82              0.0000000000
      9501        82  POPC      H2Y            16.4274377443       32.0982047337       15.5919822654  MEMB      82              0.0000000000
      9502        82  POPC      C23            12.7965991630       38.3279143547       15.4115745187  MEMB      82              0.0000000000
      9503        82  POPC      H3R            12.6937164279       39.3009851962       15.9462365880  MEMB      82              0.0000000000
      9504        82  POPC      H3S            12.0724619830       37.6607227008       15.9255913775  MEMB      82              0.0000000000
      9505        82  POPC      C24            12.3918309370       38.6663881626       14.0261561123  MEMB      82              0.0000000000
      9506        82  POPC      H4R            13.3073246009       39.0082643289       13.4977887025  MEMB      82              0.0000000000
      9507        82  POPC      H4S            11.6066529816       39.4363714155       13.9809073041  MEMB      82              0.0000000000
      9508        82  POPC      C25            11.9754886428       37.3750598535       13.4372059174  MEMB      82              0.0000000000
      9509        82  POPC      H5R            11.2527247361       36.8370189912       14.0799554603  MEMB      82              0.0000000000
      9510        82  POPC      H5S            12.9222485535       36.8355188572       13.4972301587  MEMB      82              0.0000000000
      9511        82  POPC      C26            11.5486227551       37.4984595153       11.9967263614  MEMB      82              0.0000000000
      9512        82  POPC      H6R            10.6309160096       38.1129923111       11.9552962656  MEMB      82              0.0000000000
      9513        82  POPC      H6S            11.3158237321       36.4852240676       11.6112289647  MEMB      82              0.0000000000
      9514        82  POPC      C27            12.6287402405       38.1100720832       11.1116998105  MEMB      82              0.0000000000
      9515        82  POPC      H7R            13.6266496579       37.6618941177       11.3447126246  MEMB      82              0.0000000000
      9516        82  POPC      H7S            12.6917578468       39.1990184781       11.3299839098  MEMB      82              0.0000000000
      9517        82  POPC      C28            12.2886038369       37.8977230680        9.6390908546  MEMB      82              0.0000000000
      9518        82  POPC      H8R            11.2216473912       38.1043210303        9.4246539169  MEMB      82              0.0000000000
      9519        82  POPC      H8S            12.4377724371       36.8239000282        9.4228198320  MEMB      82              0.0000000000
      9520        82  POPC      C29            13.1231084393       38.8336875581        8.8226018837  MEMB      82              0.0000000000
      9521        82  POPC      H91            12.6869762480       39.8156431696        8.6918370639  MEMB      82              0.0000000000
      9522        82  POPC      C210           14.3389039741       38.5909532462        8.3519272994  MEMB      82              0.0000000000
      9523        82  POPC      H101           14.9139218097       39.3050632653        7.7452398448  MEMB      82              0.0000000000
      9524        82  POPC      C211           15.0008838171       37.3110464692        8.6035471961  MEMB      82              0.0000000000
      9525        82  POPC      H11R           15.0557971395       37.0736694605        9.6900709334  MEMB      82              0.0000000000
      9526        82  POPC      H11S           16.0185754042       37.4042262226        8.2332550963  MEMB      82              0.0000000000
      9527        82  POPC      C212           14.4072439595       36.1867578855        7.7984599195  MEMB      82              0.0000000000
      9528        82  POPC      H12R           13.3960740150       35.9088513906        8.1057767174  MEMB      82              0.0000000000
      9529        82  POPC      H12S           14.9815087293       35.3063587645        8.1365687486  MEMB      82              0.0000000000
      9530        82  POPC      C213           14.2531398864       36.4961691543        6.2918402969  MEMB      82              0.0000000000
      9531        82  POPC      H13R           13.7116818311       37.4174919509        6.0981575695  MEMB      82              0.0000000000
      9532        82  POPC      H13S           13.7000133023       35.6479576188        5.8159805678  MEMB      82              0.0000000000
      9533        82  POPC      C214           15.4882960304       36.7755570093        5.4911423193  MEMB      82              0.0000000000
      9534        82  POPC      H14R           15.4014027601       35.7051141363        5.1958650117  MEMB      82              0.0000000000
      9535        82  POPC      H14S           16.4025626957       37.0865579865        6.0600653790  MEMB      82              0.0000000000
      9536        82  POPC      C215           15.5194119391       37.3085772138        4.0827205025  MEMB      82              0.0000000000
      9537        82  POPC      H15R           16.5409668966       37.3472823216        3.6362414040  MEMB      82              0.0000000000
      9538        82  POPC      H15S           15.1559751228       38.3300385652        4.2239521316  MEMB      82              0.0000000000
      9539        82  POPC      C216           14.6859997342       36.4663143610        3.1277030927  MEMB      82              0.0000000000
      9540        82  POPC      H16R           14.5398198729       37.1145927766        2.2381841347  MEMB      82              0.0000000000
      9541        82  POPC      H16S           13.6940628180       36.2604541833        3.5859895808  MEMB      82              0.0000000000
      9542        82  POPC      C217           15.3949270627       35.1677908322        2.6916403195  MEMB      82              0.0000000000
      9543        82  POPC      H17R           15.3065656632       34.3819240192        3.4763753466  MEMB      82              0.0000000000
      9544        82  POPC      H17S           16.4891815107       35.3677886821        2.5850876614  MEMB      82              0.0000000000
      9545        82  POPC      C218           14.9168507232       34.6833298947        1.3274126887  MEMB      82              0.0000000000
      9546        82  POPC      H18R           13.9567168893       35.1765023374        1.0588722467  MEMB      82              0.0000000000
      9547        82  POPC      H18S           14.7773921291       33.5833585637        1.2776478504  MEMB      82              0.0000000000
      9548        82  POPC      H18T           15.6890947476       34.9724199294        0.5807023971  MEMB      82              0.0000000000
      9549        82  POPC      C33            15.5189533365       32.8849396102       13.8815937689  MEMB      82              0.0000000000
      9550        82  POPC      H3X            16.5722528572       32.9679575584       13.5550567646  MEMB      82              0.0000000000
      9551        82  POPC      H3Y            15.1704515722       33.9092960112       13.7865999492  MEMB      82              0.0000000000
      9552        82  POPC      C34            14.4864263463       31.9053161532       13.1970440861  MEMB      82              0.0000000000
      9553        82  POPC      H4X            13.7292348218       31.4430164221       13.8349918645  MEMB      82              0.0000000000
      9554        82  POPC      H4Y            15.0957465524       31.2221297477       12.7938218113  MEMB      82              0.0000000000
      9555        82  POPC      C35            13.7259691299       32.0384984367       11.8651080334  MEMB      82              0.0000000000
      9556        82  POPC      H5X            14.5832580944       32.1893105096       11.2380683095  MEMB      82              0.0000000000
      9557        82  POPC      H5Y            13.0774453013       32.8003732223       11.4757099537  MEMB      82              0.0000000000
      9558        82  POPC      C36            12.4886209711       31.0983881674       11.7938059692  MEMB      82              0.0000000000
      9559        82  POPC      H6X            11.7395316407       31.1910707478       12.4984214691  MEMB      82              0.0000000000
      9560        82  POPC      H6Y            13.0525815086       30.3152226768       12.0691424981  MEMB      82              0.0000000000
      9561        82  POPC      C37            11.5242038158       30.7328131364       10.6434911515  MEMB      82              0.0000000000
      9562        82  POPC      H7X            11.0946046761       29.8319520417       10.2267111340  MEMB      82              0.0000000000
      9563        82  POPC      H7Y            12.1312593078       30.0396361138       10.2282179788  MEMB      82              0.0000000000
      9564        82  POPC      C38            11.0839626755       31.8003726238        9.7530029676  MEMB      82              0.0000000000
      9565        82  POPC      H8X            11.7794126958       32.7094887817       10.0005881703  MEMB      82              0.0000000000
      9566        82  POPC      H8Y            10.2841541014       31.7378551275       10.3524494154  MEMB      82              0.0000000000
      9567        82  POPC      C39            10.1204948822       31.5786609124        8.2736466696  MEMB      82              0.0000000000
      9568        82  POPC      H9X             9.9806629773       30.6220442107        7.9742916729  MEMB      82              0.0000000000
      9569        82  POPC      H9Y            11.1550836802       31.5719914171        8.3801538281  MEMB      82              0.0000000000
      9570        82  POPC      C310            9.2436345501       32.9461747674        6.9634034714  MEMB      82              0.0000000000
      9571        82  POPC      H10X            9.5705312535       34.1374039892        6.9503400008  MEMB      82              0.0000000000
      9572        82  POPC      H10Y            8.2590709616       32.9670045450        7.1066907799  MEMB      82              0.0000000000
      9573        82  POPC      C311            9.5271644182       33.8164770050        5.6346353354  MEMB      82              0.0000000000
      9574        82  POPC      H11X            8.6843118047       34.5693921436        5.5761241061  MEMB      82              0.0000000000
      9575        82  POPC      H11Y            9.1664688562       32.8852704224        5.2249221757  MEMB      82              0.0000000000
      9576        82  POPC      C312           10.8967925960       34.5364896901        5.1248447872  MEMB      82              0.0000000000
      9577        82  POPC      H12X           11.5712041609       33.7263453444        5.0187202963  MEMB      82              0.0000000000
      9578        82  POPC      H12Y           11.8206636325       35.0344666775        5.4460237405  MEMB      82              0.0000000000
      9579        82  POPC      C313           10.8332943673       35.0328393767        3.8014860760  MEMB      82              0.0000000000
      9580        82  POPC      H13X            9.9179389106       34.5858041630        3.3760673570  MEMB      82              0.0000000000
      9581        82  POPC      H13Y           11.7914459018       34.8106057903        3.2649299088  MEMB      82              0.0000000000
      9582        82  POPC      C314           10.1502919106       36.2217767373        3.7728213287  MEMB      82              0.0000000000
      9583        82  POPC      H14X           11.0124426886       36.7663971052        4.1936743365  MEMB      82              0.0000000000
      9584        82  POPC      H14Y            9.2918497904       36.0431936096        4.4803730607  MEMB      82              0.0000000000
      9585        82  POPC      C315            9.7155731215       36.2997545352        2.3306144029  MEMB      82              0.0000000000
      9586        82  POPC      H15X            8.8899602276       35.5977216059        2.0252460822  MEMB      82              0.0000000000
      9587        82  POPC      H15Y           10.5943272194       36.1908319155        1.6468092928  MEMB      82              0.0000000000
      9588        82  POPC      C316            9.3492910831       37.6278952926        2.2559682897  MEMB      82              0.0000000000
      9589        82  POPC      H16X           10.3703916308       38.1117314257        2.2925927925  MEMB      82              0.0000000000
      9590        82  POPC      H16Y            8.7714569656       37.8707134846        3.1895294651  MEMB      82              0.0000000000
      9591        82  POPC      H16Z            8.7957015614       37.8690058929        1.3471304730  MEMB      82              0.0000000000
      9592        83  SOPE      N              24.7985608622       28.2597659274       23.1554092944  MEMB      83              0.0000000000
      9593        83  SOPE      HN1            25.7683900941       28.1130841768       23.4886807416  MEMB      83              0.0000000000
      9594        83  SOPE      HN2            24.1000382021       27.8134084210       23.7904981114  MEMB      83              0.0000000000
      9595        83  SOPE      HN3            24.6653597777       27.9002851859       22.1740851790  MEMB      83              0.0000000000
      9596        83  SOPE      C12            24.6061581903       29.7541470346       23.1794839281  MEMB      83              0.0000000000
      9597        83  SOPE      H12A           25.5207835348       30.2292292854       22.7568496296  MEMB      83              0.0000000000
      9598        83  SOPE      H12B           24.4624452754       30.0572186380       24.2341287189  MEMB      83              0.0000000000
      9599        83  SOPE      C11            23.3677427081       30.1429650072       22.3868520156  MEMB      83              0.0000000000
      9600        83  SOPE      H11A           23.1797806227       31.2428343030       22.5062704655  MEMB      83              0.0000000000
      9601        83  SOPE      H11B           22.4860260245       29.6130247080       22.8157990481  MEMB      83              0.0000000000
      9602        83  SOPE      P              24.0254493998       30.7277256464       19.9001997152  MEMB      83              0.0000000000
      9603        83  SOPE      O13            25.4997849688       30.6836936259       19.8247911760  MEMB      83              0.0000000000
      9604        83  SOPE      O14            23.3379494359       32.0135422368       20.1426798280  MEMB      83              0.0000000000
      9605        83  SOPE      O12            23.5495621099       29.7222304079       21.0417640622  MEMB      83              0.0000000000
      9606        83  SOPE      O11            23.3584844791       29.9909941745       18.6681547487  MEMB      83              0.0000000000
      9607        83  SOPE      C1             21.9839003833       29.5537624341       18.7176404146  MEMB      83              0.0000000000
      9608        83  SOPE      HA             21.4271860980       29.9369405495       19.6068187185  MEMB      83              0.0000000000
      9609        83  SOPE      HB             21.9374550184       28.4381966899       18.7459439511  MEMB      83              0.0000000000
      9610        83  SOPE      C2             21.2092360977       30.0689235995       17.4815364650  MEMB      83              0.0000000000
      9611        83  SOPE      HS             20.1705458934       29.6570213563       17.4495616869  MEMB      83              0.0000000000
      9612        83  SOPE      O21            21.9096681173       29.7461591303       16.2921293012  MEMB      83              0.0000000000
      9613        83  SOPE      C21            21.6681361550       28.5605342323       15.8801820224  MEMB      83              0.0000000000
      9614        83  SOPE      O22            20.9761388279       27.6948497545       16.3818855301  MEMB      83              0.0000000000
      9615        83  SOPE      C22            22.3047463969       28.4299960216       14.5485157365  MEMB      83              0.0000000000
      9616        83  SOPE      H2R            22.0015382134       27.4484278211       14.2150984703  MEMB      83              0.0000000000
      9617        83  SOPE      H2S            23.3711776954       28.3841573784       14.7311752068  MEMB      83              0.0000000000
      9618        83  SOPE      C3             21.0613542873       31.5976531599       17.5118280310  MEMB      83              0.0000000000
      9619        83  SOPE      HX             22.0691544722       32.0774082207       17.4752474584  MEMB      83              0.0000000000
      9620        83  SOPE      HY             20.5890915523       31.8682923525       18.4784744225  MEMB      83              0.0000000000
      9621        83  SOPE      O31            20.1807330790       32.0128819203       16.4587661842  MEMB      83              0.0000000000
      9622        83  SOPE      C31            20.7116670981       32.4131794166       15.3382925204  MEMB      83              0.0000000000
      9623        83  SOPE      O32            21.8866328001       32.6420694149       15.1132190347  MEMB      83              0.0000000000
      9624        83  SOPE      C32            19.5678747156       32.7601197733       14.4358047164  MEMB      83              0.0000000000
      9625        83  SOPE      H2X            18.9185084854       33.5434582287       14.8893220681  MEMB      83              0.0000000000
      9626        83  SOPE      H2Y            18.9509392677       31.8463848016       14.3400925776  MEMB      83              0.0000000000
      9627        83  SOPE      C23            21.9388614281       29.5798440546       13.5935986118  MEMB      83              0.0000000000
      9628        83  SOPE      H3R            22.2526160203       30.5476022572       14.0382016862  MEMB      83              0.0000000000
      9629        83  SOPE      H3S            20.8612630108       29.5396520754       13.3596162280  MEMB      83              0.0000000000
      9630        83  SOPE      C24            22.7061085257       29.5036260953       12.3172894666  MEMB      83              0.0000000000
      9631        83  SOPE      H4R            22.7421589691       28.4112599466       12.2403053818  MEMB      83              0.0000000000
      9632        83  SOPE      H4S            22.2561675210       29.8655089587       11.3769635310  MEMB      83              0.0000000000
      9633        83  SOPE      C25            24.0734679001       30.0841362179       12.5330860234  MEMB      83              0.0000000000
      9634        83  SOPE      H5R            24.5743446831       29.7122747632       13.4437839632  MEMB      83              0.0000000000
      9635        83  SOPE      H5S            24.6857966883       29.8598669275       11.6442479545  MEMB      83              0.0000000000
      9636        83  SOPE      C26            24.3364391466       31.4686612908       12.3807167817  MEMB      83              0.0000000000
      9637        83  SOPE      H6R            23.5892336786       31.8039071359       11.6369986627  MEMB      83              0.0000000000
      9638        83  SOPE      H6S            24.2761677458       31.9930645523       13.3528657006  MEMB      83              0.0000000000
      9639        83  SOPE      C27            25.7129128728       31.5646659547       11.7690647376  MEMB      83              0.0000000000
      9640        83  SOPE      H7R            26.4514936143       31.4705872192       12.5895956272  MEMB      83              0.0000000000
      9641        83  SOPE      H7S            26.0935694118       30.9367315518       10.9336621644  MEMB      83              0.0000000000
      9642        83  SOPE      C28            25.5522106670       32.8545732457       11.1340737950  MEMB      83              0.0000000000
      9643        83  SOPE      H8R            25.2861925002       33.3805514945       12.0478219014  MEMB      83              0.0000000000
      9644        83  SOPE      H8S            26.4547358739       33.2187552470       10.8070466282  MEMB      83              0.0000000000
      9645        83  SOPE      C29            24.6101741942       33.3405558761       10.1537004953  MEMB      83              0.0000000000
      9646        83  SOPE      H91            24.0043866066       34.0934838974       10.6810150759  MEMB      83              0.0000000000
      9647        83  SOPE      C210           24.7667678649       33.3078307165        8.8331322419  MEMB      83              0.0000000000
      9648        83  SOPE      H101           24.1963251804       34.0908326682        8.3291613996  MEMB      83              0.0000000000
      9649        83  SOPE      C211           25.9219501590       32.7734842183        7.9997152797  MEMB      83              0.0000000000
      9650        83  SOPE      H11R           25.7276894795       31.8041483663        7.5435661723  MEMB      83              0.0000000000
      9651        83  SOPE      H11S           26.8162948603       32.4408813253        8.4625352429  MEMB      83              0.0000000000
      9652        83  SOPE      C212           26.4273043343       33.7799812425        6.9936104552  MEMB      83              0.0000000000
      9653        83  SOPE      H12R           27.1798141813       33.2443727031        6.5610040293  MEMB      83              0.0000000000
      9654        83  SOPE      H12S           27.2898111655       34.4722230536        6.9928627424  MEMB      83              0.0000000000
      9655        83  SOPE      C213           25.2675027725       34.1140470993        6.1616995322  MEMB      83              0.0000000000
      9656        83  SOPE      H13R           24.6958277676       34.9757992943        6.5578850668  MEMB      83              0.0000000000
      9657        83  SOPE      H13S           24.7515325063       33.1448255032        5.9418288862  MEMB      83              0.0000000000
      9658        83  SOPE      C214           25.7455627767       34.5465885129        4.9096420005  MEMB      83              0.0000000000
      9659        83  SOPE      H14R           26.2822640642       33.6413403428        4.6264736303  MEMB      83              0.0000000000
      9660        83  SOPE      H14S           26.3305848414       35.4807436573        5.1162454984  MEMB      83              0.0000000000
      9661        83  SOPE      C215           24.7709407408       34.7077212614        3.8302265254  MEMB      83              0.0000000000
      9662        83  SOPE      H15R           24.2525990174       35.6415687089        4.1532258571  MEMB      83              0.0000000000
      9663        83  SOPE      H15S           24.1180765103       33.8186995522        3.7260962203  MEMB      83              0.0000000000
      9664        83  SOPE      C216           25.2183818104       34.8363299236        2.3751427381  MEMB      83              0.0000000000
      9665        83  SOPE      H16R           25.9380004184       34.1541369401        1.9253347039  MEMB      83              0.0000000000
      9666        83  SOPE      H16S           25.6523029517       35.8865047347        2.2218792686  MEMB      83              0.0000000000
      9667        83  SOPE      C217           24.1838896139       34.5058978088        1.4038818380  MEMB      83              0.0000000000
      9668        83  SOPE      H17R           23.9124466254       35.1873796287        2.0473153612  MEMB      83              0.0000000000
      9669        83  SOPE      H17S           23.1223450894       34.1804256886        1.3854913021  MEMB      83              0.0000000000
      9670        83  SOPE      C218           24.7746699915       35.1409161120        0.3268763017  MEMB      83              0.0000000000
      9671        83  SOPE      H18R           25.4176528539       34.4609454529       -0.1652108624  MEMB      83              0.0000000000
      9672        83  SOPE      H18S           25.3590103438       36.0696570658        0.3981061044  MEMB      83              0.0000000000
      9673        83  SOPE      H18T           24.1328099557       35.6733535066       -0.2959923126  MEMB      83              0.0000000000
      9674        83  SOPE      C33            20.0232245304       33.2448157990       13.0731805473  MEMB      83              0.0000000000
      9675        83  SOPE      H3X            20.6127780055       34.1344715934       12.9178943446  MEMB      83              0.0000000000
      9676        83  SOPE      H3Y            19.0512915096       33.6249307408       12.7624082865  MEMB      83              0.0000000000
      9677        83  SOPE      C34            20.6706338103       32.2072276974       12.1672325220  MEMB      83              0.0000000000
      9678        83  SOPE      H4X            19.9819015946       31.3318775471       12.0905667588  MEMB      83              0.0000000000
      9679        83  SOPE      H4Y            21.6572801082       31.8986397972       12.5430506514  MEMB      83              0.0000000000
      9680        83  SOPE      C35            21.0684545708       32.8232781857       10.8216291808  MEMB      83              0.0000000000
      9681        83  SOPE      H5X            21.7319590725       33.6781790913       10.8123456435  MEMB      83              0.0000000000
      9682        83  SOPE      H5Y            20.2651967276       33.5112035934       10.6607261539  MEMB      83              0.0000000000
      9683        83  SOPE      C36            21.3908265636       31.7728275687        9.7254653172  MEMB      83              0.0000000000
      9684        83  SOPE      H6X            20.8307096910       30.8555601743       10.0384606374  MEMB      83              0.0000000000
      9685        83  SOPE      H6Y            22.4213153754       31.4440344035        9.8651944066  MEMB      83              0.0000000000
      9686        83  SOPE      C37            21.2204144564       32.0992124054        8.1825650935  MEMB      83              0.0000000000
      9687        83  SOPE      H7X            20.1981822791       32.2042346514        7.7582511493  MEMB      83              0.0000000000
      9688        83  SOPE      H7Y            21.6145013463       31.2675702023        7.5552877103  MEMB      83              0.0000000000
      9689        83  SOPE      C38            21.5832754701       33.3938934439        7.6544709702  MEMB      83              0.0000000000
      9690        83  SOPE      H8X            22.5662014143       33.3917482860        8.0627228988  MEMB      83              0.0000000000
      9691        83  SOPE      H8Y            20.9140086013       34.1748154086        8.0917005030  MEMB      83              0.0000000000
      9692        83  SOPE      C39            21.6806791083       33.2636971158        6.1315900200  MEMB      83              0.0000000000
      9693        83  SOPE      H9X            21.7805023575       32.2418612692        5.7801668198  MEMB      83              0.0000000000
      9694        83  SOPE      H9Y            22.5146978149       33.9400197511        5.8829578997  MEMB      83              0.0000000000
      9695        83  SOPE      C310           20.4274938784       33.6312758200        5.4170777200  MEMB      83              0.0000000000
      9696        83  SOPE      H10X           20.6077925239       34.6253582507        5.8723461771  MEMB      83              0.0000000000
      9697        83  SOPE      H10Y           19.5503790147       33.1488259810        5.8821380942  MEMB      83              0.0000000000
      9698        83  SOPE      C311           20.1161630848       33.8605538810        3.8629795261  MEMB      83              0.0000000000
      9699        83  SOPE      H11X           20.2257220227       34.8556356923        3.5964735466  MEMB      83              0.0000000000
      9700        83  SOPE      H11Y           19.1286382009       34.1426535944        3.4332134494  MEMB      83              0.0000000000
      9701        83  SOPE      C312           21.0019682935       33.2461849620        2.9519043796  MEMB      83              0.0000000000
      9702        83  SOPE      H12X           21.9961199143       33.5136584368        3.3191918875  MEMB      83              0.0000000000
      9703        83  SOPE      H12Y           20.8887805136       33.6401713296        1.9182590405  MEMB      83              0.0000000000
      9704        83  SOPE      C313           20.6726139415       31.8775289824        3.1955896046  MEMB      83              0.0000000000
      9705        83  SOPE      H13X           19.6462606364       31.6829311712        3.0534037363  MEMB      83              0.0000000000
      9706        83  SOPE      H13Y           20.5468126596       31.6322577678        4.2605493934  MEMB      83              0.0000000000
      9707        83  SOPE      C314           21.7420816722       31.1527656218        2.5321960616  MEMB      83              0.0000000000
      9708        83  SOPE      H14X           22.2223321341       31.6387841854        1.6473593148  MEMB      83              0.0000000000
      9709        83  SOPE      H14Y           21.4128553814       30.1370493174        2.2281804426  MEMB      83              0.0000000000
      9710        83  SOPE      C315           22.6048569791       31.2582229252        3.7848270672  MEMB      83              0.0000000000
      9711        83  SOPE      H15X           22.1797977928       30.5981923252        4.6070366727  MEMB      83              0.0000000000
      9712        83  SOPE      H15Y           22.9763733466       32.2360842968        4.0842580546  MEMB      83              0.0000000000
      9713        83  SOPE      C316           23.9836076828       30.9728886617        3.7370491196  MEMB      83              0.0000000000
      9714        83  SOPE      H16X           23.3910901661       30.2103440329        3.1448468054  MEMB      83              0.0000000000
      9715        83  SOPE      H16Y           24.3529954944       30.4029382435        4.6187249765  MEMB      83              0.0000000000
      9716        83  SOPE      C317           25.2017248265       31.5058782355        2.8524347754  MEMB      83              0.0000000000
      9717        83  SOPE      H17X           26.1251982282       30.8370528431        2.7173798929  MEMB      83              0.0000000000
      9718        83  SOPE      H17Y           25.7391734350       31.9973286429        3.6156941937  MEMB      83              0.0000000000
      9719        83  SOPE      C318           25.0650075355       31.6079048626        1.3097923414  MEMB      83              0.0000000000
      9720        83  SOPE      H18X           24.3864722827       30.8804255046        0.7983383986  MEMB      83              0.0000000000
      9721        83  SOPE      H18Y           26.0235659332       31.5518898847        0.7517398610  MEMB      83              0.0000000000
      9722        83  SOPE      H18Z           24.5115447371       32.4650906364        1.2294631576  MEMB      83              0.0000000000
      9723        84  SAPC      N             -25.7049255370      -27.8204783374       19.9776003199  MEMB      84              0.0000000000
      9724        84  SAPC      C12           -25.2927989006      -28.8273598700       18.8945627307  MEMB      84              0.0000000000
      9725        84  SAPC      H12A          -24.9996520991      -28.3065136573       17.9922764509  MEMB      84              0.0000000000
      9726        84  SAPC      H12B          -26.1668254202      -29.4206704721       18.6172473277  MEMB      84              0.0000000000
      9727        84  SAPC      C13           -24.5868200420      -27.3509274622       20.8568424788  MEMB      84              0.0000000000
      9728        84  SAPC      H13A          -24.2998114374      -28.1440310419       21.5401714981  MEMB      84              0.0000000000
      9729        84  SAPC      H13B          -23.7023619745      -27.0883243438       20.2909930213  MEMB      84              0.0000000000
      9730        84  SAPC      H13C          -24.9166206293      -26.5042747927       21.4476172890  MEMB      84              0.0000000000
      9731        84  SAPC      C14           -26.3346971234      -26.6543197596       19.2943839458  MEMB      84              0.0000000000
      9732        84  SAPC      H14A          -27.0856643827      -26.9868888791       18.5904654605  MEMB      84              0.0000000000
      9733        84  SAPC      H14B          -26.8419183280      -26.0103363623       20.0039742813  MEMB      84              0.0000000000
      9734        84  SAPC      H14C          -25.6009813873      -26.0788989654       18.7511014328  MEMB      84              0.0000000000
      9735        84  SAPC      C15           -26.7480217470      -28.4354055267       20.8699874599  MEMB      84              0.0000000000
      9736        84  SAPC      H15A          -27.0809793713      -27.7866130136       21.6698172216  MEMB      84              0.0000000000
      9737        84  SAPC      H15B          -27.6192507432      -28.6854402698       20.2853643376  MEMB      84              0.0000000000
      9738        84  SAPC      H15C          -26.3625577624      -29.3628679250       21.3041497428  MEMB      84              0.0000000000
      9739        84  SAPC      C11           -24.2056688868      -29.8732779039       19.2012951005  MEMB      84              0.0000000000
      9740        84  SAPC      H11A          -23.2306279766      -29.3751913814       19.3991518213  MEMB      84              0.0000000000
      9741        84  SAPC      H11B          -24.0466284713      -30.4973626089       18.2887815483  MEMB      84              0.0000000000
      9742        84  SAPC      P             -25.5691510151      -31.8856432498       20.2813537190  MEMB      84              0.0000000000
      9743        84  SAPC      O13           -25.2291262770      -32.7476197841       21.4393911986  MEMB      84              0.0000000000
      9744        84  SAPC      O14           -26.9419888522      -31.3318116528       20.1890107065  MEMB      84              0.0000000000
      9745        84  SAPC      O12           -24.5753154213      -30.6490158460       20.3263100534  MEMB      84              0.0000000000
      9746        84  SAPC      O11           -25.2009821798      -32.5837386142       18.9240678287  MEMB      84              0.0000000000
      9747        84  SAPC      C1            -25.1349084074      -34.0150103248       18.8949136635  MEMB      84              0.0000000000
      9748        84  SAPC      HA            -24.1216374685      -34.3361542180       19.2215959184  MEMB      84              0.0000000000
      9749        84  SAPC      HB            -25.9057087792      -34.5215412652       19.5278236623  MEMB      84              0.0000000000
      9750        84  SAPC      C2            -25.3559296695      -34.5249325151       17.4694356153  MEMB      84              0.0000000000
      9751        84  SAPC      HS            -25.2956285171      -35.6389203080       17.4889250843  MEMB      84              0.0000000000
      9752        84  SAPC      O21           -24.3111583486      -33.9733589668       16.6796762399  MEMB      84              0.0000000000
      9753        84  SAPC      C21           -24.2028389351      -34.5183027814       15.5155205723  MEMB      84              0.0000000000
      9754        84  SAPC      O22           -24.6937621849      -35.5615485931       15.1177385373  MEMB      84              0.0000000000
      9755        84  SAPC      C22           -23.2104674285      -33.6461698691       14.7936742590  MEMB      84              0.0000000000
      9756        84  SAPC      H2R           -23.2665061969      -32.5725623622       15.0620333882  MEMB      84              0.0000000000
      9757        84  SAPC      H2S           -22.3682206777      -34.0516776190       15.3493246522  MEMB      84              0.0000000000
      9758        84  SAPC      C3            -26.7458592152      -34.1177845132       16.9024176964  MEMB      84              0.0000000000
      9759        84  SAPC      HX            -27.4937026281      -34.3696208014       17.6905263517  MEMB      84              0.0000000000
      9760        84  SAPC      HY            -26.9554087294      -34.7331870861       15.9964662608  MEMB      84              0.0000000000
      9761        84  SAPC      O31           -26.7826345636      -32.7059517662       16.6059692560  MEMB      84              0.0000000000
      9762        84  SAPC      C31           -27.8569871954      -32.3022433907       15.9548854332  MEMB      84              0.0000000000
      9763        84  SAPC      O32           -28.7044492418      -33.0075104278       15.4491761132  MEMB      84              0.0000000000
      9764        84  SAPC      C32           -27.8537686043      -30.7629303035       15.9308004983  MEMB      84              0.0000000000
      9765        84  SAPC      H2X           -27.8341483050      -30.4189168540       16.9854430469  MEMB      84              0.0000000000
      9766        84  SAPC      H2Y           -28.8093677349      -30.4294359290       15.4815248395  MEMB      84              0.0000000000
      9767        84  SAPC      C23           -23.1844131676      -33.9023501913       13.2806445923  MEMB      84              0.0000000000
      9768        84  SAPC      H3R           -23.2752051800      -34.9921191880       13.0599350613  MEMB      84              0.0000000000
      9769        84  SAPC      H3S           -22.2446267274      -33.5439595690       12.7973919407  MEMB      84              0.0000000000
      9770        84  SAPC      C24           -24.2117915977      -33.0816515194       12.5324877651  MEMB      84              0.0000000000
      9771        84  SAPC      H4R           -24.0337381635      -33.3536759721       11.4642778002  MEMB      84              0.0000000000
      9772        84  SAPC      H4S           -23.9616119149      -32.0066319315       12.6767797417  MEMB      84              0.0000000000
      9773        84  SAPC      C25           -25.5926213283      -33.3594153551       13.0632864844  MEMB      84              0.0000000000
      9774        84  SAPC      H5R           -25.7875415310      -32.9862552177       14.0713887253  MEMB      84              0.0000000000
      9775        84  SAPC      C26           -26.6003405714      -33.9714243776       12.4564867154  MEMB      84              0.0000000000
      9776        84  SAPC      H6R           -27.5324610887      -34.1753236519       12.9933486200  MEMB      84              0.0000000000
      9777        84  SAPC      C27           -26.5137506325      -34.4983770432       11.0916746070  MEMB      84              0.0000000000
      9778        84  SAPC      H7R           -25.8004689863      -35.3375633185       11.1292771273  MEMB      84              0.0000000000
      9779        84  SAPC      H7S           -26.0526419906      -33.7636066931       10.3900117476  MEMB      84              0.0000000000
      9780        84  SAPC      C28           -27.7777664717      -35.0890281078       10.5871152726  MEMB      84              0.0000000000
      9781        84  SAPC      H8R           -28.6561444024      -35.3523795999       11.2030265647  MEMB      84              0.0000000000
      9782        84  SAPC      C29           -27.9422842521      -35.0600572431        9.3010345246  MEMB      84              0.0000000000
      9783        84  SAPC      H9R           -28.6454379236      -35.7992718865        8.9803920805  MEMB      84              0.0000000000
      9784        84  SAPC      C210          -27.0166778633      -34.4797833561        8.2905291084  MEMB      84              0.0000000000
      9785        84  SAPC      H10R          -26.0292427995      -34.7515492391        8.5414391666  MEMB      84              0.0000000000
      9786        84  SAPC      H10S          -27.0466361021      -33.3695412716        8.2896212913  MEMB      84              0.0000000000
      9787        84  SAPC      C211          -26.8627596096      -34.8109965130        6.9216399171  MEMB      84              0.0000000000
      9788        84  SAPC      H11R          -26.7277139953      -35.8716984723        6.6251775330  MEMB      84              0.0000000000
      9789        84  SAPC      C212          -27.4865028831      -34.0936894676        6.0628865014  MEMB      84              0.0000000000
      9790        84  SAPC      H12R          -27.6110521134      -34.9388741879        5.3927636642  MEMB      84              0.0000000000
      9791        84  SAPC      C213          -28.4922034385      -32.8690284646        6.1873912256  MEMB      84              0.0000000000
      9792        84  SAPC      H13R          -28.9618075386      -32.6051973722        7.1612791600  MEMB      84              0.0000000000
      9793        84  SAPC      H13S          -29.4415973307      -32.8091007176        5.5654485297  MEMB      84              0.0000000000
      9794        84  SAPC      C214          -27.8126094551      -31.7624995231        5.6543430487  MEMB      84              0.0000000000
      9795        84  SAPC      H14R          -27.5265774673      -31.1589561960        6.4860137871  MEMB      84              0.0000000000
      9796        84  SAPC      C215          -27.5467441597      -31.5256767931        4.3846060612  MEMB      84              0.0000000000
      9797        84  SAPC      H15R          -26.8344387577      -30.7663824571        4.1845481900  MEMB      84              0.0000000000
      9798        84  SAPC      C216          -27.9008396026      -32.3347528168        3.2081826302  MEMB      84              0.0000000000
      9799        84  SAPC      H16R          -28.9539130089      -32.4230741350        3.4685857822  MEMB      84              0.0000000000
      9800        84  SAPC      H16S          -27.4018730707      -33.3190978249        2.9615385658  MEMB      84              0.0000000000
      9801        84  SAPC      C217          -28.0977244290      -31.5327297719        1.9965350333  MEMB      84              0.0000000000
      9802        84  SAPC      H17R          -28.8934695301      -30.7871217946        2.2364424985  MEMB      84              0.0000000000
      9803        84  SAPC      H17S          -28.5104122394      -32.0917255960        1.1494556657  MEMB      84              0.0000000000
      9804        84  SAPC      C218          -26.7037613504      -31.1083931202        1.7044682587  MEMB      84              0.0000000000
      9805        84  SAPC      H18R          -26.0287602087      -31.9844267358        1.5646198974  MEMB      84              0.0000000000
      9806        84  SAPC      H18S          -26.4743666153      -30.2990140476        2.4107822559  MEMB      84              0.0000000000
      9807        84  SAPC      C219          -26.7117091621      -30.4664847466        0.4725550611  MEMB      84              0.0000000000
      9808        84  SAPC      H19R          -27.3440926584      -29.5268932464        0.6462342288  MEMB      84              0.0000000000
      9809        84  SAPC      H19S          -27.1093502115      -31.3473095667       -0.1238530570  MEMB      84              0.0000000000
      9810        84  SAPC      C220          -25.6486843907      -30.0565853882       -0.3754006847  MEMB      84              0.0000000000
      9811        84  SAPC      H20R          -25.7527101224      -30.4483910909       -1.4078414093  MEMB      84              0.0000000000
      9812        84  SAPC      H20S          -24.6671004482      -30.1847619270        0.0625209363  MEMB      84              0.0000000000
      9813        84  SAPC      H20T          -25.9699830694      -29.0042041436       -0.4729594980  MEMB      84              0.0000000000
      9814        84  SAPC      C33           -26.6445050606      -30.2445972825       15.1088163397  MEMB      84              0.0000000000
      9815        84  SAPC      H3X           -26.7462836037      -30.6334308131       14.0723282444  MEMB      84              0.0000000000
      9816        84  SAPC      H3Y           -25.7092616901      -30.6889731862       15.5224087323  MEMB      84              0.0000000000
      9817        84  SAPC      C34           -26.4129582081      -28.7204144462       15.0605500057  MEMB      84              0.0000000000
      9818        84  SAPC      H4X           -25.3047328330      -28.5833572190       15.0070000538  MEMB      84              0.0000000000
      9819        84  SAPC      H4Y           -26.7800271153      -28.2258321313       15.9836674149  MEMB      84              0.0000000000
      9820        84  SAPC      C35           -26.9886623043      -28.0392072591       13.8136009228  MEMB      84              0.0000000000
      9821        84  SAPC      H5X           -26.8220814354      -26.9413312835       13.8808081005  MEMB      84              0.0000000000
      9822        84  SAPC      H5Y           -28.0876524426      -28.2089060625       13.7948863633  MEMB      84              0.0000000000
      9823        84  SAPC      C36           -26.3306936956      -28.5624878758       12.5270303545  MEMB      84              0.0000000000
      9824        84  SAPC      H6X           -26.7323028111      -29.5737034212       12.3046143364  MEMB      84              0.0000000000
      9825        84  SAPC      H6Y           -25.2341034059      -28.6988732872       12.6657533674  MEMB      84              0.0000000000
      9826        84  SAPC      C37           -26.5168152289      -27.6824600326       11.2891548377  MEMB      84              0.0000000000
      9827        84  SAPC      H7X           -26.2243046668      -26.6315889762       11.4873794377  MEMB      84              0.0000000000
      9828        84  SAPC      H7Y           -27.5880964357      -27.6802501120       10.9827728860  MEMB      84              0.0000000000
      9829        84  SAPC      C38           -25.6683173348      -28.2449507511       10.1471993233  MEMB      84              0.0000000000
      9830        84  SAPC      H8X           -24.6720535527      -28.5584681220       10.5272987415  MEMB      84              0.0000000000
      9831        84  SAPC      H8Y           -25.4712552179      -27.4411024459        9.4116876484  MEMB      84              0.0000000000
      9832        84  SAPC      C39           -26.3878100564      -29.4508363369        9.5305690727  MEMB      84              0.0000000000
      9833        84  SAPC      H9X           -27.3871646147      -29.1125053650        9.1709283920  MEMB      84              0.0000000000
      9834        84  SAPC      H9Y           -26.5988467424      -30.1876406146       10.3406777719  MEMB      84              0.0000000000
      9835        84  SAPC      C310          -25.6354013896      -30.1319185365        8.3712878958  MEMB      84              0.0000000000
      9836        84  SAPC      H10X          -25.5580495858      -29.4211915531        7.5215719052  MEMB      84              0.0000000000
      9837        84  SAPC      H10Y          -26.2321077637      -31.0186930116        8.0613540191  MEMB      84              0.0000000000
      9838        84  SAPC      C311          -24.2251466711      -30.6478838046        8.6874094545  MEMB      84              0.0000000000
      9839        84  SAPC      H11X          -24.3080712063      -31.3257296043        9.5650227755  MEMB      84              0.0000000000
      9840        84  SAPC      H11Y          -23.5781062978      -29.7975194096        9.0067672666  MEMB      84              0.0000000000
      9841        84  SAPC      C312          -23.5371970156      -31.4300521095        7.5330052003  MEMB      84              0.0000000000
      9842        84  SAPC      H12X          -22.6585246038      -31.9314451039        7.9953979171  MEMB      84              0.0000000000
      9843        84  SAPC      H12Y          -23.1372905726      -30.7459547651        6.7558916247  MEMB      84              0.0000000000
      9844        84  SAPC      C313          -24.3170052224      -32.5442602614        6.7979850110  MEMB      84              0.0000000000
      9845        84  SAPC      H13X          -25.2470966776      -32.1810311520        6.3065983043  MEMB      84              0.0000000000
      9846        84  SAPC      H13Y          -24.6145465351      -33.3048177131        7.5504356861  MEMB      84              0.0000000000
      9847        84  SAPC      C314          -23.4411596714      -33.1972299591        5.7047081212  MEMB      84              0.0000000000
      9848        84  SAPC      H14X          -22.4809959282      -33.5516036988        6.1254998645  MEMB      84              0.0000000000
      9849        84  SAPC      H14Y          -23.2010393097      -32.4451176040        4.9168871875  MEMB      84              0.0000000000
      9850        84  SAPC      C315          -24.0881259320      -34.3806288792        4.9957544213  MEMB      84              0.0000000000
      9851        84  SAPC      H15X          -25.0288563001      -34.5800873728        5.4969249883  MEMB      84              0.0000000000
      9852        84  SAPC      H15Y          -23.4844246501      -35.3044927404        5.1549755127  MEMB      84              0.0000000000
      9853        84  SAPC      C316          -24.3778861649      -33.9820718258        3.5307691823  MEMB      84              0.0000000000
      9854        84  SAPC      H16X          -23.4202797852      -33.9139438922        2.9661537278  MEMB      84              0.0000000000
      9855        84  SAPC      H16Y          -25.0341962684      -33.1018214885        3.5279924828  MEMB      84              0.0000000000
      9856        84  SAPC      C317          -25.1848305878      -34.8652766053        2.6868270093  MEMB      84              0.0000000000
      9857        84  SAPC      H17X          -25.4818206259      -34.6886405442        1.6331983884  MEMB      84              0.0000000000
      9858        84  SAPC      H17Y          -26.1548492400      -35.0175930730        3.2372143171  MEMB      84              0.0000000000
      9859        84  SAPC      C318          -24.2632707079      -35.9934679182        2.5856825266  MEMB      84              0.0000000000
      9860        84  SAPC      H18X          -24.1948489935      -36.3535786833        3.6491514769  MEMB      84              0.0000000000
      9861        84  SAPC      H18Y          -23.2601063948      -36.1468077206        2.2281072359  MEMB      84              0.0000000000
      9862        84  SAPC      H18Z          -24.8451365086      -36.5961060815        1.8531165886  MEMB      84              0.0000000000
      9863        85  CHL1      C3            -25.0593777375       30.6440704590       17.4044274329  MEMB      85              0.0000000000
      9864        85  CHL1      H3            -26.1472962272       30.6066991192       17.1524246349  MEMB      85              0.0000000000
      9865        85  CHL1      O3            -24.8154423615       30.0488724763       18.6546229980  MEMB      85              0.0000000000
      9866        85  CHL1      H3'           -23.8534521564       30.1472874724       18.7373597357  MEMB      85              0.0000000000
      9867        85  CHL1      C4            -24.2400804553       29.8842959812       16.3387312877  MEMB      85              0.0000000000
      9868        85  CHL1      H4A           -23.1774771511       29.9216885014       16.6522070445  MEMB      85              0.0000000000
      9869        85  CHL1      H4B           -24.5529299843       28.8183231286       16.3516708061  MEMB      85              0.0000000000
      9870        85  CHL1      C5            -24.4008894573       30.4504536686       14.9457028337  MEMB      85              0.0000000000
      9871        85  CHL1      C6            -24.8712567120       29.6967738725       13.9376934726  MEMB      85              0.0000000000
      9872        85  CHL1      H6            -25.0385053547       28.6256337151       14.1201706066  MEMB      85              0.0000000000
      9873        85  CHL1      C7            -25.1640911172       30.2188972659       12.5525249346  MEMB      85              0.0000000000
      9874        85  CHL1      H7A           -24.6812371542       29.5871907774       11.7810736832  MEMB      85              0.0000000000
      9875        85  CHL1      H7B           -26.2612307005       30.1512840518       12.3839596006  MEMB      85              0.0000000000
      9876        85  CHL1      C8            -24.6728889558       31.6843207007       12.3217908550  MEMB      85              0.0000000000
      9877        85  CHL1      H8            -23.5740360749       31.6714255205       12.2102898425  MEMB      85              0.0000000000
      9878        85  CHL1      C14           -25.2879226436       32.3313434990       11.0689018110  MEMB      85              0.0000000000
      9879        85  CHL1      H14           -26.3274656790       32.5113654977       11.2733608739  MEMB      85              0.0000000000
      9880        85  CHL1      C15           -25.3964107663       31.5736374475        9.7233472891  MEMB      85              0.0000000000
      9881        85  CHL1      H15A          -24.4252357390       31.1191663907        9.4583633852  MEMB      85              0.0000000000
      9882        85  CHL1      H15B          -26.1927654847       30.7965548563        9.7377318574  MEMB      85              0.0000000000
      9883        85  CHL1      C16           -25.7815042250       32.6697667943        8.7219307951  MEMB      85              0.0000000000
      9884        85  CHL1      H16A          -25.0373002278       32.7103548625        7.8994669101  MEMB      85              0.0000000000
      9885        85  CHL1      H16B          -26.7640483743       32.4790075939        8.2410742807  MEMB      85              0.0000000000
      9886        85  CHL1      C17           -25.7912846602       34.0178737188        9.5143457566  MEMB      85              0.0000000000
      9887        85  CHL1      H17           -26.8516626770       34.1805272969        9.8451743111  MEMB      85              0.0000000000
      9888        85  CHL1      C13           -24.9766266744       33.7858374889       10.8128659157  MEMB      85              0.0000000000
      9889        85  CHL1      C18           -23.4741807475       33.9216536145       10.6288802191  MEMB      85              0.0000000000
      9890        85  CHL1      H18A          -23.2661672423       34.9521345717       10.3068492995  MEMB      85              0.0000000000
      9891        85  CHL1      H18B          -22.9410864589       33.7806056503       11.5910982447  MEMB      85              0.0000000000
      9892        85  CHL1      H18C          -23.1134376876       33.1811444074        9.8911790711  MEMB      85              0.0000000000
      9893        85  CHL1      C12           -25.4492234668       34.6074409987       12.0204829765  MEMB      85              0.0000000000
      9894        85  CHL1      H12A          -25.1549963774       35.6694828561       11.9278600193  MEMB      85              0.0000000000
      9895        85  CHL1      H12B          -26.5560654702       34.5964203357       11.9768157955  MEMB      85              0.0000000000
      9896        85  CHL1      C11           -24.8618658069       34.0670716608       13.3515441273  MEMB      85              0.0000000000
      9897        85  CHL1      H11A          -23.7949496958       34.3501020538       13.3814095824  MEMB      85              0.0000000000
      9898        85  CHL1      H11B          -25.3711971772       34.6060949542       14.1790958169  MEMB      85              0.0000000000
      9899        85  CHL1      C9            -24.9308062783       32.5174414168       13.5752305643  MEMB      85              0.0000000000
      9900        85  CHL1      H9            -25.9711932799       32.2636672382       13.8075817458  MEMB      85              0.0000000000
      9901        85  CHL1      C10           -24.1967770274       31.9677971143       14.8362671156  MEMB      85              0.0000000000
      9902        85  CHL1      C19           -22.7291765991       32.3561551355       14.8603854187  MEMB      85              0.0000000000
      9903        85  CHL1      H19A          -22.6278052196       33.4593131164       14.9546101199  MEMB      85              0.0000000000
      9904        85  CHL1      H19B          -22.2717488830       31.9010922573       15.7623407404  MEMB      85              0.0000000000
      9905        85  CHL1      H19C          -22.2401876914       31.9941197489       13.9431165105  MEMB      85              0.0000000000
      9906        85  CHL1      C1            -24.7865776986       32.6267678105       16.0596882093  MEMB      85              0.0000000000
      9907        85  CHL1      H1A           -24.6138841307       33.7323774940       16.0590259853  MEMB      85              0.0000000000
      9908        85  CHL1      H1B           -25.8464275432       32.3442353975       15.8551199682  MEMB      85              0.0000000000
      9909        85  CHL1      C2            -24.6053853418       32.0930002008       17.4701005294  MEMB      85              0.0000000000
      9910        85  CHL1      H2A           -25.2306184218       32.6938472552       18.1803749582  MEMB      85              0.0000000000
      9911        85  CHL1      H2B           -23.5547374738       32.1846803241       17.7929284115  MEMB      85              0.0000000000
      9912        85  CHL1      C20           -25.4027250455       35.1499584164        8.5776029340  MEMB      85              0.0000000000
      9913        85  CHL1      H20           -24.4139809207       34.9253277531        8.1344118044  MEMB      85              0.0000000000
      9914        85  CHL1      C21           -25.2014784886       36.4856446865        9.2698770692  MEMB      85              0.0000000000
      9915        85  CHL1      H21A          -24.4586138559       36.5029708987       10.0767699720  MEMB      85              0.0000000000
      9916        85  CHL1      H21B          -26.1646254040       36.7557140159        9.7078399952  MEMB      85              0.0000000000
      9917        85  CHL1      H21C          -24.8502463988       37.2592584319        8.5598064396  MEMB      85              0.0000000000
      9918        85  CHL1      C22           -26.4057428649       35.2528377111        7.4139583238  MEMB      85              0.0000000000
      9919        85  CHL1      H22A          -27.1105158947       34.4027218649        7.3877596768  MEMB      85              0.0000000000
      9920        85  CHL1      H22B          -27.1185519774       36.0703421870        7.6093407236  MEMB      85              0.0000000000
      9921        85  CHL1      C23           -25.6977872278       35.3249017564        6.0538636485  MEMB      85              0.0000000000
      9922        85  CHL1      H23A          -24.9961052916       36.1981214513        6.0127234108  MEMB      85              0.0000000000
      9923        85  CHL1      H23B          -25.0505501784       34.4310361917        5.9213775139  MEMB      85              0.0000000000
      9924        85  CHL1      C24           -26.7477634483       35.3005486533        4.9276675321  MEMB      85              0.0000000000
      9925        85  CHL1      H24A          -27.0280992986       34.2885660803        4.6107585452  MEMB      85              0.0000000000
      9926        85  CHL1      H24B          -27.6090318300       35.9533375766        5.2226006296  MEMB      85              0.0000000000
      9927        85  CHL1      C25           -26.1967181436       35.7501369965        3.6152725247  MEMB      85              0.0000000000
      9928        85  CHL1      H25           -25.9522160789       36.7247922335        4.1308329855  MEMB      85              0.0000000000
      9929        85  CHL1      C26           -24.8922462500       34.8547098020        3.1591708741  MEMB      85              0.0000000000
      9930        85  CHL1      H26A          -25.0047677809       33.7804135022        3.1770878557  MEMB      85              0.0000000000
      9931        85  CHL1      H26B          -24.4963334693       35.0309729960        2.1292403533  MEMB      85              0.0000000000
      9932        85  CHL1      H26C          -23.9179677873       35.1484651237        3.6459739649  MEMB      85              0.0000000000
      9933        85  CHL1      C27           -27.2147614062       36.2754849989        2.5086215860  MEMB      85              0.0000000000
      9934        85  CHL1      H27A          -27.6485075397       35.4806212157        1.9277896906  MEMB      85              0.0000000000
      9935        85  CHL1      H27B          -28.0260862252       36.9052033526        2.8832363512  MEMB      85              0.0000000000
      9936        85  CHL1      H27C          -26.8115748050       36.9666432229        1.7378583606  MEMB      85              0.0000000000
      9937        86  SLPC      N              21.2314996833      -37.7227221182       15.6179519028  MEMB      86              0.0000000000
      9938        86  SLPC      C13            21.8890129755      -36.6648686857       16.1851229708  MEMB      86              0.0000000000
      9939        86  SLPC      H13A           21.8446873908      -36.0157823752       15.3469800372  MEMB      86              0.0000000000
      9940        86  SLPC      H13B           21.3599912399      -36.1374700227       16.9988181164  MEMB      86              0.0000000000
      9941        86  SLPC      H13C           22.9636515162      -36.5435842723       16.3541602141  MEMB      86              0.0000000000
      9942        86  SLPC      C14            21.3960547406      -38.6146054289       16.7745201644  MEMB      86              0.0000000000
      9943        86  SLPC      H14A           22.4379636848      -38.7247193694       16.9907986250  MEMB      86              0.0000000000
      9944        86  SLPC      H14B           20.9642827199      -38.1895936450       17.6903506356  MEMB      86              0.0000000000
      9945        86  SLPC      H14C           21.0916651686      -39.6067386074       16.6478337153  MEMB      86              0.0000000000
      9946        86  SLPC      C15            21.8807890666      -37.8955136128       14.3112612019  MEMB      86              0.0000000000
      9947        86  SLPC      H15A           21.4967226881      -38.7875609921       13.9103954534  MEMB      86              0.0000000000
      9948        86  SLPC      H15B           21.9142371174      -37.0142471860       13.6800336141  MEMB      86              0.0000000000
      9949        86  SLPC      H15C           22.9068284262      -38.1912188301       14.4026195232  MEMB      86              0.0000000000
      9950        86  SLPC      C12            19.8400212640      -37.3972594315       15.2895016934  MEMB      86              0.0000000000
      9951        86  SLPC      H12A           19.4481316355      -38.2668215707       14.7967986028  MEMB      86              0.0000000000
      9952        86  SLPC      H12B           19.7409617511      -36.5414072625       14.6345889740  MEMB      86              0.0000000000
      9953        86  SLPC      C11            19.0633483127      -37.1370199160       16.4981808024  MEMB      86              0.0000000000
      9954        86  SLPC      H11A           19.1642946257      -38.0559730269       17.1191244297  MEMB      86              0.0000000000
      9955        86  SLPC      H11B           18.0024472853      -37.0120645816       16.1489960051  MEMB      86              0.0000000000
      9956        86  SLPC      P              18.7542029680      -35.3197406915       18.2046116976  MEMB      86              0.0000000000
      9957        86  SLPC      O13            17.4610273479      -35.7252207655       17.8181293146  MEMB      86              0.0000000000
      9958        86  SLPC      O14            19.2773782149      -35.4580528008       19.5784942929  MEMB      86              0.0000000000
      9959        86  SLPC      O12            19.6061726341      -36.0077684304       17.1686521953  MEMB      86              0.0000000000
      9960        86  SLPC      O11            18.5664754348      -33.8564621546       17.8416137188  MEMB      86              0.0000000000
      9961        86  SLPC      C1             19.5465763392      -32.9840961328       17.4852616010  MEMB      86              0.0000000000
      9962        86  SLPC      HA             19.6807426864      -32.1726950129       18.1988568402  MEMB      86              0.0000000000
      9963        86  SLPC      HB             20.4491535761      -33.4477729211       17.5695295034  MEMB      86              0.0000000000
      9964        86  SLPC      C2             19.3046275767      -32.5455448692       16.1034886263  MEMB      86              0.0000000000
      9965        86  SLPC      HS             18.3660506403      -31.9802806391       16.1430173324  MEMB      86              0.0000000000
      9966        86  SLPC      O21            19.3877945289      -33.7188387249       15.2358503771  MEMB      86              0.0000000000
      9967        86  SLPC      C21            18.4246983538      -33.6770273925       14.3849825650  MEMB      86              0.0000000000
      9968        86  SLPC      O22            17.6675095157      -32.7539476400       14.3311800574  MEMB      86              0.0000000000
      9969        86  SLPC      C22            18.4197570321      -34.7910313034       13.3551412063  MEMB      86              0.0000000000
      9970        86  SLPC      H2R            19.4256484975      -35.2091088715       13.3044490193  MEMB      86              0.0000000000
      9971        86  SLPC      H2S            17.6555798523      -35.5421516188       13.6485603915  MEMB      86              0.0000000000
      9972        86  SLPC      C3             20.3469738191      -31.5374238838       15.7483659390  MEMB      86              0.0000000000
      9973        86  SLPC      HX             21.1817696128      -32.1011432907       16.0614073763  MEMB      86              0.0000000000
      9974        86  SLPC      HY             20.4092966839      -30.6487998631       16.3939787682  MEMB      86              0.0000000000
      9975        86  SLPC      O31            20.2266295447      -31.3033471997       14.3626515107  MEMB      86              0.0000000000
      9976        86  SLPC      C31            21.1148631661      -31.7007964019       13.4865932410  MEMB      86              0.0000000000
      9977        86  SLPC      O32            22.2945927697      -31.9326465497       13.6550072144  MEMB      86              0.0000000000
      9978        86  SLPC      C32            20.5002921287      -31.4190242866       12.1768411901  MEMB      86              0.0000000000
      9979        86  SLPC      H2X            20.1007022887      -30.4088260012       12.3068232045  MEMB      86              0.0000000000
      9980        86  SLPC      H2Y            19.5909359660      -31.8755687272       11.8028166409  MEMB      86              0.0000000000
      9981        86  SLPC      C23            18.1077748807      -34.2938536734       11.9300945299  MEMB      86              0.0000000000
      9982        86  SLPC      H3R            18.9092017903      -33.6801708565       11.4937807042  MEMB      86              0.0000000000
      9983        86  SLPC      H3S            17.4373205531      -33.4881114134       11.9874028190  MEMB      86              0.0000000000
      9984        86  SLPC      C24            17.5021465757      -35.3850425583       11.0356115756  MEMB      86              0.0000000000
      9985        86  SLPC      H4R            16.7850346559      -35.1123370530       10.2373759007  MEMB      86              0.0000000000
      9986        86  SLPC      H4S            16.8885423059      -36.0989619571       11.6183090085  MEMB      86              0.0000000000
      9987        86  SLPC      C25            18.6989240972      -35.8570201457       10.2559121752  MEMB      86              0.0000000000
      9988        86  SLPC      H5R            19.3413682720      -36.3918732409       10.9835765912  MEMB      86              0.0000000000
      9989        86  SLPC      H5S            19.1982171956      -34.9299812150        9.8901808997  MEMB      86              0.0000000000
      9990        86  SLPC      C26            18.4195275080      -36.5777367065        8.9482031424  MEMB      86              0.0000000000
      9991        86  SLPC      H6R            19.3644605303      -36.8904907725        8.4707337190  MEMB      86              0.0000000000
      9992        86  SLPC      H6S            17.8584962911      -35.9462242283        8.2564154487  MEMB      86              0.0000000000
      9993        86  SLPC      C27            17.5772743279      -37.7630861556        9.1545574765  MEMB      86              0.0000000000
      9994        86  SLPC      H7R            16.5956532763      -37.5513029634        9.5814710824  MEMB      86              0.0000000000
      9995        86  SLPC      H7S            18.1151515285      -38.1068207710       10.0298158526  MEMB      86              0.0000000000
      9996        86  SLPC      C28            17.5679007527      -38.8426292016        8.0602587320  MEMB      86              0.0000000000
      9997        86  SLPC      H8R            16.9874046641      -39.7517593951        8.2799285780  MEMB      86              0.0000000000
      9998        86  SLPC      H8S            18.6309305137      -39.1268263303        7.9723899705  MEMB      86              0.0000000000
      9999        86  SLPC      C29            16.9161521822      -38.9037024951        6.7856792627  MEMB      86              0.0000000000
     10000        86  SLPC      H9R            15.8699261691      -38.9229397170        6.7710287056  MEMB      86              0.0000000000
     10001        86  SLPC      C210           17.4375283912      -38.4492740732        5.7075746005  MEMB      86              0.0000000000
     10002        86  SLPC      H10R           16.9414517916      -38.2913940227        4.7421870686  MEMB      86              0.0000000000
     10003        86  SLPC      C211           18.6543051939      -37.8418040417        5.6520028497  MEMB      86              0.0000000000
     10004        86  SLPC      H11R           18.5583993978      -38.7708861215        5.0860778584  MEMB      86              0.0000000000
     10005        86  SLPC      H11S           19.1882811348      -37.9638928169        6.5856731196  MEMB      86              0.0000000000
     10006        86  SLPC      C212           19.1207816375      -36.7076339803        4.8320161196  MEMB      86              0.0000000000
     10007        86  SLPC      H12R           18.2817296664      -36.2182089822        4.3626203338  MEMB      86              0.0000000000
     10008        86  SLPC      C213           20.3412975031      -36.3976024349        4.3829741297  MEMB      86              0.0000000000
     10009        86  SLPC      H13R           20.3092393681      -35.6651432850        3.5778017296  MEMB      86              0.0000000000
     10010        86  SLPC      C214           21.7000229799      -37.0795256313        4.5144791234  MEMB      86              0.0000000000
     10011        86  SLPC      H14R           21.8425869985      -38.0978786116        4.8162846038  MEMB      86              0.0000000000
     10012        86  SLPC      H14S           22.5130134810      -36.6491199861        5.0918345442  MEMB      86              0.0000000000
     10013        86  SLPC      C215           22.0317453753      -37.4060705373        3.1222759659  MEMB      86              0.0000000000
     10014        86  SLPC      H15R           21.4863897260      -37.9985822015        2.3674942487  MEMB      86              0.0000000000
     10015        86  SLPC      H15S           22.7061426331      -38.2135967182        3.2249791677  MEMB      86              0.0000000000
     10016        86  SLPC      C216           22.1630291084      -36.1824217111        2.4123244650  MEMB      86              0.0000000000
     10017        86  SLPC      H16R           22.3654629398      -35.3593740747        2.9713797377  MEMB      86              0.0000000000
     10018        86  SLPC      H16S           21.1931234001      -36.0079699023        1.9298632354  MEMB      86              0.0000000000
     10019        86  SLPC      C217           23.2558221484      -36.2815484044        1.5918651527  MEMB      86              0.0000000000
     10020        86  SLPC      H17R           22.8066574565      -37.1797078241        1.2279932825  MEMB      86              0.0000000000
     10021        86  SLPC      H17S           24.2981509086      -36.4589602701        1.7394218432  MEMB      86              0.0000000000
     10022        86  SLPC      C218           23.5342469372      -35.3473096927        0.7072853999  MEMB      86              0.0000000000
     10023        86  SLPC      H18R           23.5663546577      -34.4445575682        0.9962749185  MEMB      86              0.0000000000
     10024        86  SLPC      H18S           22.7425214888      -34.7158334838        0.2934342225  MEMB      86              0.0000000000
     10025        86  SLPC      H18T           24.2465249221      -35.7679753043       -0.0958371985  MEMB      86              0.0000000000
     10026        86  SLPC      C33            21.5651856022      -31.6325231853       11.1477214764  MEMB      86              0.0000000000
     10027        86  SLPC      H3X            22.6508408242      -31.4029541835       11.3939757293  MEMB      86              0.0000000000
     10028        86  SLPC      H3Y            21.3747386892      -31.0512841736       10.2524405668  MEMB      86              0.0000000000
     10029        86  SLPC      C34            21.0498309127      -32.6725957083       10.2533450536  MEMB      86              0.0000000000
     10030        86  SLPC      H4X            20.0506202484      -32.7594588037        9.9184164849  MEMB      86              0.0000000000
     10031        86  SLPC      H4Y            21.3022904796      -33.2648193632       11.1255247158  MEMB      86              0.0000000000
     10032        86  SLPC      C35            21.6469659105      -32.6060450944        8.9038945587  MEMB      86              0.0000000000
     10033        86  SLPC      H5X            22.4581767001      -32.4504394338        9.5496103411  MEMB      86              0.0000000000
     10034        86  SLPC      H5Y            21.7931677907      -31.6251877276        8.4524345328  MEMB      86              0.0000000000
     10035        86  SLPC      C36            21.7900127050      -33.7844706764        7.9550239975  MEMB      86              0.0000000000
     10036        86  SLPC      H6X            22.0013591970      -34.8810398139        8.0004348097  MEMB      86              0.0000000000
     10037        86  SLPC      H6Y            22.8152121864      -33.9467450608        8.0198967679  MEMB      86              0.0000000000
     10038        86  SLPC      C37            21.1692661605      -33.4212328414        6.7430415004  MEMB      86              0.0000000000
     10039        86  SLPC      H7X            20.1787699989      -33.4131955887        7.2285765989  MEMB      86              0.0000000000
     10040        86  SLPC      H7Y            21.3534260001      -34.2967238123        6.0674241318  MEMB      86              0.0000000000
     10041        86  SLPC      C38            21.5782591299      -32.0613834751        6.1344079612  MEMB      86              0.0000000000
     10042        86  SLPC      H8X            22.6191489602      -31.8420019057        5.8840645424  MEMB      86              0.0000000000
     10043        86  SLPC      H8Y            21.4041954203      -31.1740672073        6.7475189450  MEMB      86              0.0000000000
     10044        86  SLPC      C39            20.9964990473      -32.1125986146        4.7865719347  MEMB      86              0.0000000000
     10045        86  SLPC      H9X            21.3797208751      -32.8837707898        4.1116437143  MEMB      86              0.0000000000
     10046        86  SLPC      H9Y            21.2365350633      -31.2145434571        4.2674213620  MEMB      86              0.0000000000
     10047        86  SLPC      C310           19.5495357639      -32.3039885003        4.9769870586  MEMB      86              0.0000000000
     10048        86  SLPC      H10X           19.2474370423      -31.5702548637        5.7627601590  MEMB      86              0.0000000000
     10049        86  SLPC      H10Y           19.3094382212      -33.3342314081        5.3108671364  MEMB      86              0.0000000000
     10050        86  SLPC      C311           18.8665895950      -32.0833729042        3.6823867607  MEMB      86              0.0000000000
     10051        86  SLPC      H11X           19.4141334068      -31.4808290907        2.9351774499  MEMB      86              0.0000000000
     10052        86  SLPC      H11Y           17.9258059653      -31.6176778663        3.9991488805  MEMB      86              0.0000000000
     10053        86  SLPC      C312           18.7733229766      -33.2860107797        2.8408794894  MEMB      86              0.0000000000
     10054        86  SLPC      H12X           17.9799254389      -33.9355189036        3.2783354570  MEMB      86              0.0000000000
     10055        86  SLPC      H12Y           19.7512343880      -33.7993272412        2.9662639196  MEMB      86              0.0000000000
     10056        86  SLPC      C313           18.6468086326      -32.8984442520        1.3491968493  MEMB      86              0.0000000000
     10057        86  SLPC      H13X           19.5806144667      -32.5520989499        0.8959537471  MEMB      86              0.0000000000
     10058        86  SLPC      H13Y           18.0501616157      -32.0626441716        0.9769044372  MEMB      86              0.0000000000
     10059        86  SLPC      C314           17.9809547081      -34.0362288274        0.7263109003  MEMB      86              0.0000000000
     10060        86  SLPC      H14X           17.8523992923      -33.6823826738       -0.3315909660  MEMB      86              0.0000000000
     10061        86  SLPC      H14Y           16.9741504717      -34.4909385779        0.9482594634  MEMB      86              0.0000000000
     10062        86  SLPC      C315           18.9808570396      -35.0076823731        1.0876602662  MEMB      86              0.0000000000
     10063        86  SLPC      H15X           18.8769513131      -35.7054645440        1.9860583270  MEMB      86              0.0000000000
     10064        86  SLPC      H15Y           20.0385280260      -34.6596288937        1.0232137457  MEMB      86              0.0000000000
     10065        86  SLPC      C316           18.5235764245      -35.5320071089       -0.1420031442  MEMB      86              0.0000000000
     10066        86  SLPC      H16X           17.9545610683      -36.4732499707        0.0801013175  MEMB      86              0.0000000000
     10067        86  SLPC      H16Y           18.9613905261      -36.4738797494        0.3442970926  MEMB      86              0.0000000000
     10068        86  SLPC      C317           19.2431377867      -34.6684861541       -1.7478611589  MEMB      86              0.0000000000
     10069        86  SLPC      H17X           20.0702112427      -33.9655735707       -1.5743027304  MEMB      86              0.0000000000
     10070        86  SLPC      H17Y           18.5644201173      -34.0129731475       -2.1351267773  MEMB      86              0.0000000000
     10071        86  SLPC      C318           20.3371928278      -35.2034876441       -3.0471745850  MEMB      86              0.0000000000
     10072        86  SLPC      H18X           19.4907900681      -35.5665359882       -3.4096793427  MEMB      86              0.0000000000
     10073        86  SLPC      H18Y           20.4487542483      -36.2685115661       -3.3791577237  MEMB      86              0.0000000000
     10074        86  SLPC      H18Z           21.0854076002      -36.1259692748       -3.0388716600  MEMB      86              0.0000000000
     10075        87  CHL1      C3             35.6115916629      -23.2794418638       17.3771496553  MEMB      87              0.0000000000
     10076        87  CHL1      H3             36.2344050183      -24.1700676830       17.5961682559  MEMB      87              0.0000000000
     10077        87  CHL1      O3             35.3304355138      -22.6558064317       18.6150368288  MEMB      87              0.0000000000
     10078        87  CHL1      H3'            35.1744067888      -23.3313180477       19.2885188739  MEMB      87              0.0000000000
     10079        87  CHL1      C4             36.3812041699      -22.3206160436       16.4495949913  MEMB      87              0.0000000000
     10080        87  CHL1      H4A            35.8831682272      -21.3252763905       16.4693665514  MEMB      87              0.0000000000
     10081        87  CHL1      H4B            37.3909618930      -22.1185561455       16.8813356774  MEMB      87              0.0000000000
     10082        87  CHL1      C5             36.4500409602      -22.8313524343       15.0150654761  MEMB      87              0.0000000000
     10083        87  CHL1      C6             37.6149119474      -22.8442069810       14.4171843385  MEMB      87              0.0000000000
     10084        87  CHL1      H6             38.3908188606      -22.5511214383       15.0716445813  MEMB      87              0.0000000000
     10085        87  CHL1      C7             37.9216994210      -23.1515798867       12.9886487343  MEMB      87              0.0000000000
     10086        87  CHL1      H7A            38.3633231347      -22.2461608121       12.5012639334  MEMB      87              0.0000000000
     10087        87  CHL1      H7B            38.6468287676      -23.9919757793       12.9110417885  MEMB      87              0.0000000000
     10088        87  CHL1      C8             36.6261991187      -23.3926260649       12.2032744901  MEMB      87              0.0000000000
     10089        87  CHL1      H8             36.2480318909      -22.3689020328       11.9835767305  MEMB      87              0.0000000000
     10090        87  CHL1      C14            36.9142317398      -24.1322964630       10.9203650418  MEMB      87              0.0000000000
     10091        87  CHL1      H14            37.2069057704      -25.1721353374       11.2157610640  MEMB      87              0.0000000000
     10092        87  CHL1      C15            38.1102120527      -23.6310675208       10.1009992733  MEMB      87              0.0000000000
     10093        87  CHL1      H15A           38.1564339467      -22.5232213404       10.0920133208  MEMB      87              0.0000000000
     10094        87  CHL1      H15B           39.0401418845      -24.0398645348       10.5462577097  MEMB      87              0.0000000000
     10095        87  CHL1      C16            37.8425785360      -24.1677290950        8.7024590176  MEMB      87              0.0000000000
     10096        87  CHL1      H16A           37.6808994470      -23.3029576310        8.0219794386  MEMB      87              0.0000000000
     10097        87  CHL1      H16B           38.6664374954      -24.8074519378        8.3282672652  MEMB      87              0.0000000000
     10098        87  CHL1      C17            36.4954513887      -24.9112577546        8.7620671757  MEMB      87              0.0000000000
     10099        87  CHL1      H17            36.7140602205      -25.9821293036        9.0205815755  MEMB      87              0.0000000000
     10100        87  CHL1      C13            35.7303248393      -24.3281835436        9.9887289156  MEMB      87              0.0000000000
     10101        87  CHL1      C18            35.1006387355      -22.9618405372        9.6128132572  MEMB      87              0.0000000000
     10102        87  CHL1      H18A           35.8760407642      -22.3086495493        9.1680511257  MEMB      87              0.0000000000
     10103        87  CHL1      H18B           34.2387910023      -23.0310650055        8.9156270374  MEMB      87              0.0000000000
     10104        87  CHL1      H18C           34.7119988965      -22.4812523791       10.5283600118  MEMB      87              0.0000000000
     10105        87  CHL1      C12            34.7186473210      -25.2031018201       10.7750795347  MEMB      87              0.0000000000
     10106        87  CHL1      H12A           33.7778864549      -25.2847997523       10.1934369518  MEMB      87              0.0000000000
     10107        87  CHL1      H12B           35.1253300073      -26.2197581208       10.9632158441  MEMB      87              0.0000000000
     10108        87  CHL1      C11            34.3712855974      -24.6086130918       12.1609607937  MEMB      87              0.0000000000
     10109        87  CHL1      H11A           33.6876086723      -23.7575867425       11.9851717618  MEMB      87              0.0000000000
     10110        87  CHL1      H11B           33.8176477904      -25.3743642058       12.7402865522  MEMB      87              0.0000000000
     10111        87  CHL1      C9             35.5922242594      -24.1676017989       13.0195734893  MEMB      87              0.0000000000
     10112        87  CHL1      H9             36.1065903678      -25.1243971867       13.2983785413  MEMB      87              0.0000000000
     10113        87  CHL1      C10            35.2153717232      -23.3983733145       14.3306278887  MEMB      87              0.0000000000
     10114        87  CHL1      C19            34.2971436241      -22.2018680234       13.9839006681  MEMB      87              0.0000000000
     10115        87  CHL1      H19A           34.4958824512      -21.3099978428       14.6110925869  MEMB      87              0.0000000000
     10116        87  CHL1      H19B           34.3747565283      -21.9084361742       12.9203050557  MEMB      87              0.0000000000
     10117        87  CHL1      H19C           33.2483681435      -22.4895945039       14.1756192563  MEMB      87              0.0000000000
     10118        87  CHL1      C1             34.4715026938      -24.3093789428       15.3456394011  MEMB      87              0.0000000000
     10119        87  CHL1      H1A            33.4912699832      -24.5512151399       14.8829143370  MEMB      87              0.0000000000
     10120        87  CHL1      H1B            35.0061349052      -25.2713709459       15.4869236994  MEMB      87              0.0000000000
     10121        87  CHL1      C2             34.2745041072      -23.6427619224       16.7263878780  MEMB      87              0.0000000000
     10122        87  CHL1      H2A            33.6786801257      -24.2842090428       17.4023463325  MEMB      87              0.0000000000
     10123        87  CHL1      H2B            33.7183278068      -22.6803675080       16.6193853342  MEMB      87              0.0000000000
     10124        87  CHL1      C20            35.8295788362      -24.8514604938        7.3976138077  MEMB      87              0.0000000000
     10125        87  CHL1      H20            35.1805087498      -23.9571722164        7.2392902785  MEMB      87              0.0000000000
     10126        87  CHL1      C21            34.9579963043      -25.9662962540        7.5133779568  MEMB      87              0.0000000000
     10127        87  CHL1      H21A           34.3465955198      -25.8419120739        8.4091654335  MEMB      87              0.0000000000
     10128        87  CHL1      H21B           35.3577989533      -27.0058693176        7.5253416522  MEMB      87              0.0000000000
     10129        87  CHL1      H21C           34.3769894650      -25.8065598725        6.5931247099  MEMB      87              0.0000000000
     10130        87  CHL1      C22            36.6714299524      -25.1359205446        6.1296577161  MEMB      87              0.0000000000
     10131        87  CHL1      H22A           37.2823667073      -24.2245122755        6.0167032298  MEMB      87              0.0000000000
     10132        87  CHL1      H22B           37.2920844836      -26.0219653543        6.3796522780  MEMB      87              0.0000000000
     10133        87  CHL1      C23            36.0221859302      -25.3962253464        4.7260525527  MEMB      87              0.0000000000
     10134        87  CHL1      H23A           35.3770216539      -26.3033250442        4.7080420327  MEMB      87              0.0000000000
     10135        87  CHL1      H23B           35.3792332305      -24.5276895106        4.4716301175  MEMB      87              0.0000000000
     10136        87  CHL1      C24            37.1440501158      -25.5756183359        3.6609942797  MEMB      87              0.0000000000
     10137        87  CHL1      H24A           37.9624750185      -24.8758146859        3.9471828644  MEMB      87              0.0000000000
     10138        87  CHL1      H24B           37.5608332984      -26.6038970879        3.7410014843  MEMB      87              0.0000000000
     10139        87  CHL1      C25            36.8443951688      -25.2614390648        2.1675425719  MEMB      87              0.0000000000
     10140        87  CHL1      H25            36.3007048765      -26.1077007827        1.6857613874  MEMB      87              0.0000000000
     10141        87  CHL1      C26            35.9878227246      -24.0054125050        1.9965084472  MEMB      87              0.0000000000
     10142        87  CHL1      H26A           36.1302323287      -23.6083568747        0.9715844308  MEMB      87              0.0000000000
     10143        87  CHL1      H26B           34.9139080589      -24.2315483990        2.1482519987  MEMB      87              0.0000000000
     10144        87  CHL1      H26C           36.3058295090      -23.2251963997        2.7197354781  MEMB      87              0.0000000000
     10145        87  CHL1      C27            38.1538297893      -24.9923480261        1.3944220657  MEMB      87              0.0000000000
     10146        87  CHL1      H27A           37.9381131342      -24.7155124725        0.3392224327  MEMB      87              0.0000000000
     10147        87  CHL1      H27B           38.6529451021      -24.1197630402        1.8655228718  MEMB      87              0.0000000000
     10148        87  CHL1      H27C           38.8658865749      -25.8416761586        1.4058790207  MEMB      87              0.0000000000
     10149        88  CHL1      C3            -20.0515811857      -36.4909144024       17.3845840621  MEMB      88              0.0000000000
     10150        88  CHL1      H3            -19.3130810859      -37.3118772149       17.5428663262  MEMB      88              0.0000000000
     10151        88  CHL1      O3            -20.8743428249      -36.4139411215       18.5120957766  MEMB      88              0.0000000000
     10152        88  CHL1      H3'           -20.2841532787      -36.5918086639       19.2453081377  MEMB      88              0.0000000000
     10153        88  CHL1      C4            -19.3746357678      -35.1294820942       17.2238863358  MEMB      88              0.0000000000
     10154        88  CHL1      H4A           -20.2020895881      -34.3933504645       17.1494709115  MEMB      88              0.0000000000
     10155        88  CHL1      H4B           -18.7882947489      -34.8753385153       18.1282387220  MEMB      88              0.0000000000
     10156        88  CHL1      C5            -18.5326061352      -35.0095381646       15.9901338381  MEMB      88              0.0000000000
     10157        88  CHL1      C6            -17.2609281700      -34.5974287595       15.9985376305  MEMB      88              0.0000000000
     10158        88  CHL1      H6            -16.7815067370      -34.2758557279       16.9400651149  MEMB      88              0.0000000000
     10159        88  CHL1      C7            -16.5035688544      -34.4271990878       14.7119814437  MEMB      88              0.0000000000
     10160        88  CHL1      H7A           -15.9163300267      -33.4828188287       14.7223416812  MEMB      88              0.0000000000
     10161        88  CHL1      H7B           -15.7684057226      -35.2536789950       14.6796558526  MEMB      88              0.0000000000
     10162        88  CHL1      C8            -17.3755245693      -34.5623112294       13.4033712169  MEMB      88              0.0000000000
     10163        88  CHL1      H8            -18.0666815453      -33.7875309303       13.0917283811  MEMB      88              0.0000000000
     10164        88  CHL1      C14           -16.5319835221      -34.6879695141       12.1955088417  MEMB      88              0.0000000000
     10165        88  CHL1      H14           -15.9314933184      -35.6025016561       12.4114888506  MEMB      88              0.0000000000
     10166        88  CHL1      C15           -15.5084628047      -33.6240964679       11.9374285993  MEMB      88              0.0000000000
     10167        88  CHL1      H15A          -15.6444011319      -32.5887223318       12.2200467778  MEMB      88              0.0000000000
     10168        88  CHL1      H15B          -14.7369081346      -33.9591056932       12.6152745363  MEMB      88              0.0000000000
     10169        88  CHL1      C16           -15.2370709573      -33.8248176920       10.4645765305  MEMB      88              0.0000000000
     10170        88  CHL1      H16A          -15.3444815531      -32.8797657778        9.8734582240  MEMB      88              0.0000000000
     10171        88  CHL1      H16B          -14.2663643688      -34.2936271380       10.3527246996  MEMB      88              0.0000000000
     10172        88  CHL1      C17           -16.0065539601      -35.0140414931        9.9549111302  MEMB      88              0.0000000000
     10173        88  CHL1      H17           -15.4218138894      -35.9093166205       10.2827571803  MEMB      88              0.0000000000
     10174        88  CHL1      C13           -17.2091408070      -34.9600273711       10.8710461583  MEMB      88              0.0000000000
     10175        88  CHL1      C18           -18.0537786103      -33.8453108683       10.3879662320  MEMB      88              0.0000000000
     10176        88  CHL1      H18A          -18.4794165051      -34.0646877224        9.3900325954  MEMB      88              0.0000000000
     10177        88  CHL1      H18B          -18.9252834494      -33.6315583517       11.0416087697  MEMB      88              0.0000000000
     10178        88  CHL1      H18C          -17.4512878531      -32.9181959207       10.2903398874  MEMB      88              0.0000000000
     10179        88  CHL1      C12           -18.0553407416      -36.1711603578       11.0456193150  MEMB      88              0.0000000000
     10180        88  CHL1      H12A          -18.6081542053      -36.3771517748       10.1147010171  MEMB      88              0.0000000000
     10181        88  CHL1      H12B          -17.3429028735      -36.9793415642       11.2991490965  MEMB      88              0.0000000000
     10182        88  CHL1      C11           -19.0466857227      -35.9878821314       12.1969552923  MEMB      88              0.0000000000
     10183        88  CHL1      H11A          -19.8128271506      -35.2240241739       11.9310740371  MEMB      88              0.0000000000
     10184        88  CHL1      H11B          -19.5501672574      -36.9611084048       12.2976640444  MEMB      88              0.0000000000
     10185        88  CHL1      C9            -18.3330712511      -35.6823028723       13.5375721101  MEMB      88              0.0000000000
     10186        88  CHL1      H9            -17.6779038106      -36.5426472405       13.7794998450  MEMB      88              0.0000000000
     10187        88  CHL1      C10           -19.2667198299      -35.4461392982       14.7267395580  MEMB      88              0.0000000000
     10188        88  CHL1      C19           -20.2246626699      -34.3171298878       14.3853535301  MEMB      88              0.0000000000
     10189        88  CHL1      H19A          -20.9677924508      -34.6502575161       13.6567437926  MEMB      88              0.0000000000
     10190        88  CHL1      H19B          -20.6145152835      -33.7683514129       15.2605878216  MEMB      88              0.0000000000
     10191        88  CHL1      H19C          -19.8064634551      -33.5231728210       13.8261250488  MEMB      88              0.0000000000
     10192        88  CHL1      C1            -20.0575904091      -36.7473695160       14.9358974113  MEMB      88              0.0000000000
     10193        88  CHL1      H1A           -20.7331055554      -36.9038248614       14.0687096335  MEMB      88              0.0000000000
     10194        88  CHL1      H1B           -19.3040878092      -37.5591110200       14.9942299450  MEMB      88              0.0000000000
     10195        88  CHL1      C2            -20.9245558905      -36.7940829814       16.1802080136  MEMB      88              0.0000000000
     10196        88  CHL1      H2A           -21.3975739275      -37.7958419953       16.2705898702  MEMB      88              0.0000000000
     10197        88  CHL1      H2B           -21.7312224135      -36.0399152965       16.0548322700  MEMB      88              0.0000000000
     10198        88  CHL1      C20           -16.0714811777      -34.9351823230        8.4254360110  MEMB      88              0.0000000000
     10199        88  CHL1      H20           -16.6013054935      -33.9915584584        8.1538637885  MEMB      88              0.0000000000
     10200        88  CHL1      C21           -16.8481989933      -36.1145231972        7.8708704130  MEMB      88              0.0000000000
     10201        88  CHL1      H21A          -16.9886200018      -36.0402943633        6.7742564701  MEMB      88              0.0000000000
     10202        88  CHL1      H21B          -17.8533368410      -36.1058586611        8.3191451323  MEMB      88              0.0000000000
     10203        88  CHL1      H21C          -16.3072913174      -37.0516225820        8.1085505588  MEMB      88              0.0000000000
     10204        88  CHL1      C22           -14.6972585302      -34.8104322200        7.7262220416  MEMB      88              0.0000000000
     10205        88  CHL1      H22A          -14.3426900839      -33.8146593810        8.0326112429  MEMB      88              0.0000000000
     10206        88  CHL1      H22B          -13.9518219534      -35.5870023987        7.9973993478  MEMB      88              0.0000000000
     10207        88  CHL1      C23           -14.7904310704      -34.6408938036        6.2217306664  MEMB      88              0.0000000000
     10208        88  CHL1      H23A          -15.1941658163      -35.5234198760        5.6913258460  MEMB      88              0.0000000000
     10209        88  CHL1      H23B          -15.4341480637      -33.7404561283        6.0333424748  MEMB      88              0.0000000000
     10210        88  CHL1      C24           -13.4794354770      -34.3609780104        5.5456636490  MEMB      88              0.0000000000
     10211        88  CHL1      H24A          -12.8184623587      -33.7925051206        6.2174627638  MEMB      88              0.0000000000
     10212        88  CHL1      H24B          -12.8561798753      -35.2480163737        5.3380780741  MEMB      88              0.0000000000
     10213        88  CHL1      C25           -13.8731002839      -33.6328663695        4.2643191146  MEMB      88              0.0000000000
     10214        88  CHL1      H25           -14.3710505463      -32.6418998493        4.4908389486  MEMB      88              0.0000000000
     10215        88  CHL1      C26           -12.6819323235      -33.3681029379        3.5496444097  MEMB      88              0.0000000000
     10216        88  CHL1      H26A          -11.8766711111      -34.1367004613        3.5762819498  MEMB      88              0.0000000000
     10217        88  CHL1      H26B          -12.8051276723      -32.9861450524        2.5557336119  MEMB      88              0.0000000000
     10218        88  CHL1      H26C          -12.4944754685      -32.5132367012        4.1579885914  MEMB      88              0.0000000000
     10219        88  CHL1      C27           -14.5241771498      -34.3621832396        3.1357625132  MEMB      88              0.0000000000
     10220        88  CHL1      H27A          -14.9303754508      -33.5688878640        2.4631798487  MEMB      88              0.0000000000
     10221        88  CHL1      H27B          -13.7543734227      -34.9275293917        2.5462111104  MEMB      88              0.0000000000
     10222        88  CHL1      H27C          -15.2711323793      -35.0432960342        3.5395316415  MEMB      88              0.0000000000
     10223        89  SAPE      N              34.7853718133      -28.7978840755       19.2929994184  MEMB      89              0.0000000000
     10224        89  SAPE      HN1            35.3739023769      -29.1134519801       18.4975210683  MEMB      89              0.0000000000
     10225        89  SAPE      HN2            35.0039087261      -27.8194092180       19.5729390959  MEMB      89              0.0000000000
     10226        89  SAPE      HN3            35.0506260547      -29.4434513915       20.0709150564  MEMB      89              0.0000000000
     10227        89  SAPE      C12            33.3434680169      -28.9020198213       18.8674070696  MEMB      89              0.0000000000
     10228        89  SAPE      H12A           33.2008825760      -29.8648718732       18.3396571172  MEMB      89              0.0000000000
     10229        89  SAPE      H12B           33.1249361179      -28.0637309737       18.1734758716  MEMB      89              0.0000000000
     10230        89  SAPE      C11            32.4440861246      -28.8059829840       20.0864722928  MEMB      89              0.0000000000
     10231        89  SAPE      H11A           32.5593807531      -27.8035869612       20.5460532783  MEMB      89              0.0000000000
     10232        89  SAPE      H11B           32.7749926833      -29.5838755028       20.8170436972  MEMB      89              0.0000000000
     10233        89  SAPE      P              30.1773100217      -30.0596082402       20.4268207966  MEMB      89              0.0000000000
     10234        89  SAPE      O13            30.7251166333      -30.2445337805       21.7880163133  MEMB      89              0.0000000000
     10235        89  SAPE      O14            28.7794291997      -29.6414537006       20.2443638249  MEMB      89              0.0000000000
     10236        89  SAPE      O12            31.0849124712      -28.9406805429       19.7127062674  MEMB      89              0.0000000000
     10237        89  SAPE      O11            30.5341481289      -31.3522192717       19.5924092897  MEMB      89              0.0000000000
     10238        89  SAPE      C1             29.7994402390      -31.6415680565       18.3989568623  MEMB      89              0.0000000000
     10239        89  SAPE      HA             28.7932824613      -32.0601725098       18.6348684216  MEMB      89              0.0000000000
     10240        89  SAPE      HB             29.6513655965      -30.7147398311       17.7906469805  MEMB      89              0.0000000000
     10241        89  SAPE      C2             30.5791975381      -32.6781874289       17.5573708781  MEMB      89              0.0000000000
     10242        89  SAPE      HS             30.7814645311      -33.5596123850       18.2048423729  MEMB      89              0.0000000000
     10243        89  SAPE      O21            31.7457951656      -31.9892605330       17.1370890564  MEMB      89              0.0000000000
     10244        89  SAPE      C21            32.8188286325      -32.6564878669       16.9644466506  MEMB      89              0.0000000000
     10245        89  SAPE      O22            33.0422854601      -33.8206766855       17.2461012566  MEMB      89              0.0000000000
     10246        89  SAPE      C22            33.7847122823      -31.7051856625       16.3149847445  MEMB      89              0.0000000000
     10247        89  SAPE      H2R            33.2968323222      -30.7529672577       16.0464190589  MEMB      89              0.0000000000
     10248        89  SAPE      H2S            34.6692235301      -31.5636169531       16.9709008205  MEMB      89              0.0000000000
     10249        89  SAPE      C3             29.8654139461      -33.1899631211       16.2917861884  MEMB      89              0.0000000000
     10250        89  SAPE      HX             28.9515259230      -33.7796483384       16.5917122424  MEMB      89              0.0000000000
     10251        89  SAPE      HY             30.4504305152      -33.9134991949       15.7238848910  MEMB      89              0.0000000000
     10252        89  SAPE      O31            29.7317042533      -32.0953643263       15.3666413965  MEMB      89              0.0000000000
     10253        89  SAPE      C31            28.5897484930      -31.5809177448       15.5556612041  MEMB      89              0.0000000000
     10254        89  SAPE      O32            27.7329796561      -32.0788101444       16.2698511635  MEMB      89              0.0000000000
     10255        89  SAPE      C32            28.5588795436      -30.2632076896       14.7889452200  MEMB      89              0.0000000000
     10256        89  SAPE      H2X            28.4017678569      -29.3710752331       15.3842156998  MEMB      89              0.0000000000
     10257        89  SAPE      H2Y            27.6080946094      -30.1119821678       14.5167952838  MEMB      89              0.0000000000
     10258        89  SAPE      C23            34.1716037522      -32.3321112990       15.0124329222  MEMB      89              0.0000000000
     10259        89  SAPE      H3R            33.3952426750      -32.8985088532       14.4564386392  MEMB      89              0.0000000000
     10260        89  SAPE      H3S            34.8044198792      -33.0967183821       15.4057691152  MEMB      89              0.0000000000
     10261        89  SAPE      C24            34.9540907472      -31.4292399121       14.0898194991  MEMB      89              0.0000000000
     10262        89  SAPE      H4R            34.8340699565      -31.9941262195       13.1379654893  MEMB      89              0.0000000000
     10263        89  SAPE      H4S            36.0300728981      -31.3545368668       14.4134322224  MEMB      89              0.0000000000
     10264        89  SAPE      C25            34.5711175492      -30.0902780184       13.8184208387  MEMB      89              0.0000000000
     10265        89  SAPE      H5R            34.6847751617      -29.5087441700       14.7263795355  MEMB      89              0.0000000000
     10266        89  SAPE      C26            34.3216483214      -29.6138232853       12.6029934410  MEMB      89              0.0000000000
     10267        89  SAPE      H6R            33.8720436907      -28.6276958391       12.6046373173  MEMB      89              0.0000000000
     10268        89  SAPE      C27            34.3909130835      -30.3767843847       11.2895315734  MEMB      89              0.0000000000
     10269        89  SAPE      H7R            35.1540615473      -31.1603817437       11.3356051419  MEMB      89              0.0000000000
     10270        89  SAPE      H7S            34.8583634238      -29.7516333324       10.5013154615  MEMB      89              0.0000000000
     10271        89  SAPE      C28            33.1134986761      -31.0328669247       10.8200474996  MEMB      89              0.0000000000
     10272        89  SAPE      H8R            32.6109112480      -31.7546811574       11.4773877969  MEMB      89              0.0000000000
     10273        89  SAPE      C29            32.5461005918      -30.7729014375        9.6434031582  MEMB      89              0.0000000000
     10274        89  SAPE      H9R            31.6700653391      -31.3331359446        9.3019296853  MEMB      89              0.0000000000
     10275        89  SAPE      C210           33.0660972846      -29.8198924395        8.6409149708  MEMB      89              0.0000000000
     10276        89  SAPE      H10R           32.5639584881      -30.0643605181        7.6911906149  MEMB      89              0.0000000000
     10277        89  SAPE      H10S           34.1565720842      -29.8892426266        8.4422953839  MEMB      89              0.0000000000
     10278        89  SAPE      C211           32.7613964576      -28.4422442571        9.0811825399  MEMB      89              0.0000000000
     10279        89  SAPE      H11R           32.7212718264      -28.1337148658       10.1457711247  MEMB      89              0.0000000000
     10280        89  SAPE      C212           32.7141450346      -27.5393950521        8.1469861211  MEMB      89              0.0000000000
     10281        89  SAPE      H12R           32.6697765390      -26.5295307016        8.5208559017  MEMB      89              0.0000000000
     10282        89  SAPE      C213           32.9187509732      -27.6207790796        6.6448204535  MEMB      89              0.0000000000
     10283        89  SAPE      H13R           33.9379314245      -27.8479304280        6.3320693316  MEMB      89              0.0000000000
     10284        89  SAPE      H13S           32.8289177096      -26.6125502692        6.1754118733  MEMB      89              0.0000000000
     10285        89  SAPE      C214           31.9923212222      -28.5071459782        5.9759893088  MEMB      89              0.0000000000
     10286        89  SAPE      H14R           31.0039234492      -28.5314023096        6.3949573270  MEMB      89              0.0000000000
     10287        89  SAPE      C215           32.1703562498      -29.1847118158        4.8806397914  MEMB      89              0.0000000000
     10288        89  SAPE      H15R           31.3018127487      -29.7378427078        4.5323732535  MEMB      89              0.0000000000
     10289        89  SAPE      C216           33.3934392828      -29.2014609857        4.0675603422  MEMB      89              0.0000000000
     10290        89  SAPE      H16R           33.9917559174      -28.2546400907        4.0516496637  MEMB      89              0.0000000000
     10291        89  SAPE      H16S           33.1729285647      -29.5524938614        3.0448964695  MEMB      89              0.0000000000
     10292        89  SAPE      C217           34.1843935850      -30.2453754365        4.7864430190  MEMB      89              0.0000000000
     10293        89  SAPE      H17R           34.5499434827      -29.8810112055        5.7834823937  MEMB      89              0.0000000000
     10294        89  SAPE      H17S           35.0060096272      -30.3715296507        4.0656978534  MEMB      89              0.0000000000
     10295        89  SAPE      C218           33.5341881607      -31.5992688669        5.0470933354  MEMB      89              0.0000000000
     10296        89  SAPE      H18R           32.6623474810      -31.5219338435        5.7372414845  MEMB      89              0.0000000000
     10297        89  SAPE      H18S           34.3758858716      -32.1085839948        5.5397864709  MEMB      89              0.0000000000
     10298        89  SAPE      C219           33.1483105488      -32.4683507088        3.8637830858  MEMB      89              0.0000000000
     10299        89  SAPE      H19R           32.3481408984      -32.0015764835        3.2987910625  MEMB      89              0.0000000000
     10300        89  SAPE      H19S           32.7086975231      -33.3959453720        4.3135875748  MEMB      89              0.0000000000
     10301        89  SAPE      C220           34.2774650185      -32.8248767138        2.8951830565  MEMB      89              0.0000000000
     10302        89  SAPE      H20R           35.2121270303      -33.0289593872        3.4637592668  MEMB      89              0.0000000000
     10303        89  SAPE      H20S           34.4933975160      -32.0258584176        2.1652872418  MEMB      89              0.0000000000
     10304        89  SAPE      H20T           33.9793303042      -33.7526637692        2.3609456665  MEMB      89              0.0000000000
     10305        89  SAPE      C33            29.2512626048      -30.1628074107       13.4297600829  MEMB      89              0.0000000000
     10306        89  SAPE      H3X            29.0654217936      -30.9564536599       12.6620502682  MEMB      89              0.0000000000
     10307        89  SAPE      H3Y            30.3038466543      -30.3021112462       13.6910116609  MEMB      89              0.0000000000
     10308        89  SAPE      C34            29.0547837840      -28.8179945374       12.7521843230  MEMB      89              0.0000000000
     10309        89  SAPE      H4X            29.4165379054      -28.0073822156       13.4068980399  MEMB      89              0.0000000000
     10310        89  SAPE      H4Y            28.0720055124      -28.3380242737       12.5301010422  MEMB      89              0.0000000000
     10311        89  SAPE      C35            29.8163788323      -29.0240645784       11.4624241734  MEMB      89              0.0000000000
     10312        89  SAPE      H5X            30.9019591814      -29.1491893531       11.4490511280  MEMB      89              0.0000000000
     10313        89  SAPE      H5Y            29.7201387226      -28.0783111630       11.1438452314  MEMB      89              0.0000000000
     10314        89  SAPE      C36            29.1970345507      -29.5226792542       10.2166590657  MEMB      89              0.0000000000
     10315        89  SAPE      H6X            29.0045545409      -30.6099987468       10.3833153878  MEMB      89              0.0000000000
     10316        89  SAPE      H6Y            29.9622167085      -29.4066670273        9.3977620315  MEMB      89              0.0000000000
     10317        89  SAPE      C37            28.0628632681      -28.7673416120        9.5622540138  MEMB      89              0.0000000000
     10318        89  SAPE      H7X            27.9080108003      -27.7223563249        9.3322850429  MEMB      89              0.0000000000
     10319        89  SAPE      H7Y            27.1118547806      -28.4790946150       10.0233818188  MEMB      89              0.0000000000
     10320        89  SAPE      C38            28.0462940123      -29.8360408616        8.5392372334  MEMB      89              0.0000000000
     10321        89  SAPE      H8X            27.0642516219      -29.9972677536        8.8830707176  MEMB      89              0.0000000000
     10322        89  SAPE      H8Y            27.9560302652      -30.8975410151        8.8196859961  MEMB      89              0.0000000000
     10323        89  SAPE      C39            28.4418937896      -29.3832357883        7.0373913055  MEMB      89              0.0000000000
     10324        89  SAPE      H9X            29.4710956298      -29.6841012574        7.1447892020  MEMB      89              0.0000000000
     10325        89  SAPE      H9Y            28.0414502648      -28.3200053772        7.1171443032  MEMB      89              0.0000000000
     10326        89  SAPE      C310           27.7940296931      -29.8479607079        5.6214910103  MEMB      89              0.0000000000
     10327        89  SAPE      H10X           26.8081612651      -29.3502417789        5.3197251829  MEMB      89              0.0000000000
     10328        89  SAPE      H10Y           27.7742882900      -30.9410325936        5.5680213497  MEMB      89              0.0000000000
     10329        89  SAPE      C311           28.1985706216      -29.9143545560        4.3168628189  MEMB      89              0.0000000000
     10330        89  SAPE      H11X           29.2184680304      -30.1721802636        4.5569002317  MEMB      89              0.0000000000
     10331        89  SAPE      H11Y           27.9412576032      -28.9921983404        4.0523817090  MEMB      89              0.0000000000
     10332        89  SAPE      C312           27.2385570652      -30.3416432901        3.2439356257  MEMB      89              0.0000000000
     10333        89  SAPE      H12X           26.3719721348      -29.6924601968        3.0884274679  MEMB      89              0.0000000000
     10334        89  SAPE      H12Y           26.7956242641      -31.3181212054        3.5044785710  MEMB      89              0.0000000000
     10335        89  SAPE      C313           28.0334566155      -30.1252397062        2.0001785555  MEMB      89              0.0000000000
     10336        89  SAPE      H13X           29.1191152113      -30.2226920127        2.0627201170  MEMB      89              0.0000000000
     10337        89  SAPE      H13Y           27.9644444845      -29.0744661813        1.7048336179  MEMB      89              0.0000000000
     10338        89  SAPE      C314           27.7524613208      -31.2327216816        1.0779692066  MEMB      89              0.0000000000
     10339        89  SAPE      H14X           26.7582760221      -31.0418163917        1.0651329623  MEMB      89              0.0000000000
     10340        89  SAPE      H14Y           27.4862545291      -32.2475006324        1.4579417511  MEMB      89              0.0000000000
     10341        89  SAPE      C315           28.7956054056      -31.2740481941       -0.0021988625  MEMB      89              0.0000000000
     10342        89  SAPE      H15X           29.6778787523      -31.8552390617        0.3831037636  MEMB      89              0.0000000000
     10343        89  SAPE      H15Y           29.0327379515      -30.2331030357       -0.2354152957  MEMB      89              0.0000000000
     10344        89  SAPE      C316           28.3860860273      -31.8730954343       -1.2875700550  MEMB      89              0.0000000000
     10345        89  SAPE      H16X           27.4098173097      -31.6400740642       -1.6814231339  MEMB      89              0.0000000000
     10346        89  SAPE      H16Y           28.4961046401      -32.9463677285       -1.0523699937  MEMB      89              0.0000000000
     10347        89  SAPE      C317           29.1653466616      -31.6293232805       -2.4597166198  MEMB      89              0.0000000000
     10348        89  SAPE      H17X           29.1996791449      -30.5680603633       -2.6634642327  MEMB      89              0.0000000000
     10349        89  SAPE      H17Y           28.7196939257      -32.0073869402       -3.4304168368  MEMB      89              0.0000000000
     10350        89  SAPE      C318           30.3276435357      -32.4193424165       -1.9687066071  MEMB      89              0.0000000000
     10351        89  SAPE      H18X           30.1123367722      -32.9609072179       -2.8589566877  MEMB      89              0.0000000000
     10352        89  SAPE      H18Y           30.4156695953      -33.4879653894       -1.6605121418  MEMB      89              0.0000000000
     10353        89  SAPE      H18Z           31.2409673821      -31.8225619341       -1.9399170048  MEMB      89              0.0000000000
     10354        90  SAPS      N             -35.2101270968       23.9673080703       20.4156987132  MEMB      90              0.0000000000
     10355        90  SAPS      HN1           -35.0618586085       23.2824547514       19.6394389744  MEMB      90              0.0000000000
     10356        90  SAPS      HN2           -35.0348352592       24.9144388389       20.0377309675  MEMB      90              0.0000000000
     10357        90  SAPS      HN3           -34.4104387450       23.7794625749       21.0697957357  MEMB      90              0.0000000000
     10358        90  SAPS      C12           -36.5411691636       23.8746035396       21.0795629825  MEMB      90              0.0000000000
     10359        90  SAPS      H12A          -36.4923647181       22.9608615540       21.6591155512  MEMB      90              0.0000000000
     10360        90  SAPS      C13           -37.1034260061       25.0723853057       21.9354376851  MEMB      90              0.0000000000
     10361        90  SAPS      O13A          -36.4455703517       26.1385153838       21.9154598195  MEMB      90              0.0000000000
     10362        90  SAPS      O13B          -37.6359749479       24.6877880680       23.0056686327  MEMB      90              0.0000000000
     10363        90  SAPS      C11           -37.6097587107       23.8442346858       20.0241983289  MEMB      90              0.0000000000
     10364        90  SAPS      H11A          -37.4319614063       24.6694507360       19.2893943716  MEMB      90              0.0000000000
     10365        90  SAPS      H11B          -38.6091053372       24.0018174330       20.4911569844  MEMB      90              0.0000000000
     10366        90  SAPS      P             -36.8256280417       22.1875847374       18.1939859461  MEMB      90              0.0000000000
     10367        90  SAPS      O13           -35.8417191638       21.1411265042       18.5531521976  MEMB      90              0.0000000000
     10368        90  SAPS      O14           -37.7667420772       22.0318176600       17.1174570674  MEMB      90              0.0000000000
     10369        90  SAPS      O12           -37.6232273000       22.5622573802       19.4680969172  MEMB      90              0.0000000000
     10370        90  SAPS      O11           -36.0658894799       23.5038614077       17.8548914012  MEMB      90              0.0000000000
     10371        90  SAPS      C1            -34.7524180685       23.4655523513       17.3538910392  MEMB      90              0.0000000000
     10372        90  SAPS      HA            -34.0844218001       23.2743536792       18.2178743364  MEMB      90              0.0000000000
     10373        90  SAPS      HB            -34.5592427999       22.6475778862       16.6134155895  MEMB      90              0.0000000000
     10374        90  SAPS      C2            -34.4410247657       24.8500205136       16.7421373160  MEMB      90              0.0000000000
     10375        90  SAPS      HS            -34.6584284802       25.6276849675       17.5123004702  MEMB      90              0.0000000000
     10376        90  SAPS      O21           -35.0913147383       25.0385387616       15.4856468689  MEMB      90              0.0000000000
     10377        90  SAPS      C21           -36.1825425103       25.6838298532       15.5641673054  MEMB      90              0.0000000000
     10378        90  SAPS      O22           -36.6553166053       26.2109864553       16.5608952781  MEMB      90              0.0000000000
     10379        90  SAPS      C22           -36.7183960259       25.8440347138       14.1828586686  MEMB      90              0.0000000000
     10380        90  SAPS      H2R           -35.9126883973       26.1118203165       13.4661364694  MEMB      90              0.0000000000
     10381        90  SAPS      H2S           -37.2493932760       24.9370222614       13.8376654874  MEMB      90              0.0000000000
     10382        90  SAPS      C3            -32.9897375367       24.9383991279       16.4691085034  MEMB      90              0.0000000000
     10383        90  SAPS      HX            -32.5956128460       24.4819388109       17.4099697631  MEMB      90              0.0000000000
     10384        90  SAPS      HY            -32.5042584440       25.9312120980       16.3819013001  MEMB      90              0.0000000000
     10385        90  SAPS      O31           -32.7504027402       24.1115475636       15.3247589029  MEMB      90              0.0000000000
     10386        90  SAPS      C31           -32.7044430077       24.7555192906       14.1850956018  MEMB      90              0.0000000000
     10387        90  SAPS      O32           -32.8514011545       25.9489527495       14.0003434910  MEMB      90              0.0000000000
     10388        90  SAPS      C32           -32.1207172568       23.8784254717       13.1577999936  MEMB      90              0.0000000000
     10389        90  SAPS      H2X           -31.1230611730       23.4821167021       13.2361493368  MEMB      90              0.0000000000
     10390        90  SAPS      H2Y           -31.8477767415       24.6199433344       12.3949125707  MEMB      90              0.0000000000
     10391        90  SAPS      C23           -37.7301973098       26.9363846592       14.2596982293  MEMB      90              0.0000000000
     10392        90  SAPS      H3R           -37.3973640205       27.8805570317       14.7662851280  MEMB      90              0.0000000000
     10393        90  SAPS      H3S           -38.6531399333       26.6135131981       14.7995485786  MEMB      90              0.0000000000
     10394        90  SAPS      C24           -38.1309068867       27.2044198744       12.8715075010  MEMB      90              0.0000000000
     10395        90  SAPS      H4R           -39.0282666132       27.7212959382       13.2449723104  MEMB      90              0.0000000000
     10396        90  SAPS      H4S           -38.4656012305       26.4574773080       12.1497069392  MEMB      90              0.0000000000
     10397        90  SAPS      C25           -37.1477859339       28.0529176618       12.2206653122  MEMB      90              0.0000000000
     10398        90  SAPS      H5R           -37.3101975871       29.0666476786       12.3609764016  MEMB      90              0.0000000000
     10399        90  SAPS      C26           -36.5608874971       27.9770722689       11.0860921898  MEMB      90              0.0000000000
     10400        90  SAPS      H6R           -35.8523382742       28.7345837929       10.8488420500  MEMB      90              0.0000000000
     10401        90  SAPS      C27           -36.6175018072       27.0596387134       10.0162991608  MEMB      90              0.0000000000
     10402        90  SAPS      H7R           -36.4952573350       27.6959416706        9.1123468147  MEMB      90              0.0000000000
     10403        90  SAPS      H7S           -37.5877741578       26.5783783727       10.1098284849  MEMB      90              0.0000000000
     10404        90  SAPS      C28           -35.4464867705       26.3625369927       10.5957163318  MEMB      90              0.0000000000
     10405        90  SAPS      H8R           -35.5964658684       25.8069674491       11.5203903551  MEMB      90              0.0000000000
     10406        90  SAPS      C29           -34.2561122718       26.4853015271       10.1034304115  MEMB      90              0.0000000000
     10407        90  SAPS      H9R           -33.4664847351       25.9627366297       10.6714598166  MEMB      90              0.0000000000
     10408        90  SAPS      C210          -33.9269503375       27.2287161948        8.9042797481  MEMB      90              0.0000000000
     10409        90  SAPS      H10R          -32.9124212677       27.6725962331        9.1761834169  MEMB      90              0.0000000000
     10410        90  SAPS      H10S          -34.5684163490       28.0276621900        8.4989968971  MEMB      90              0.0000000000
     10411        90  SAPS      C211          -33.5861880182       26.5059174204        7.6920879085  MEMB      90              0.0000000000
     10412        90  SAPS      H11R          -32.7210489315       26.1766702005        8.2270996391  MEMB      90              0.0000000000
     10413        90  SAPS      C212          -34.0620849263       25.6528306048        6.7784906585  MEMB      90              0.0000000000
     10414        90  SAPS      H12R          -33.4957714906       24.8400629324        6.3619913038  MEMB      90              0.0000000000
     10415        90  SAPS      C213          -35.5384578465       25.7907181755        6.5237596003  MEMB      90              0.0000000000
     10416        90  SAPS      H13R          -35.9903018545       25.5328113255        7.5141730502  MEMB      90              0.0000000000
     10417        90  SAPS      H13S          -35.7643491855       24.9837536629        5.7924801630  MEMB      90              0.0000000000
     10418        90  SAPS      C214          -35.7451246666       27.1395924015        6.0288746794  MEMB      90              0.0000000000
     10419        90  SAPS      H14R          -35.9402202465       27.8603813946        6.8284392921  MEMB      90              0.0000000000
     10420        90  SAPS      C215          -35.4991323298       27.5947120723        4.7775418514  MEMB      90              0.0000000000
     10421        90  SAPS      H15R          -35.5620015211       28.6569291827        4.5889495920  MEMB      90              0.0000000000
     10422        90  SAPS      C216          -34.9910914843       26.8203103157        3.6177437696  MEMB      90              0.0000000000
     10423        90  SAPS      H16R          -35.7103054365       26.9661396196        2.7818002283  MEMB      90              0.0000000000
     10424        90  SAPS      H16S          -34.9640169051       25.7442242343        3.8540389106  MEMB      90              0.0000000000
     10425        90  SAPS      C217          -33.5589238404       27.2525618705        3.2516578489  MEMB      90              0.0000000000
     10426        90  SAPS      H17R          -32.8664272697       27.4290754133        4.0823957065  MEMB      90              0.0000000000
     10427        90  SAPS      H17S          -33.5895195238       28.2366874484        2.7697021499  MEMB      90              0.0000000000
     10428        90  SAPS      C218          -32.9087458612       26.3338041007        2.2529807875  MEMB      90              0.0000000000
     10429        90  SAPS      H18R          -32.8878874069       25.2421940360        2.4100990499  MEMB      90              0.0000000000
     10430        90  SAPS      H18S          -31.8812887238       26.7143945426        2.0007970545  MEMB      90              0.0000000000
     10431        90  SAPS      C219          -33.6675072889       26.4876132567        1.0318781343  MEMB      90              0.0000000000
     10432        90  SAPS      H19R          -33.9113326239       27.5655402832        1.0442119525  MEMB      90              0.0000000000
     10433        90  SAPS      H19S          -34.6610241973       25.9792365592        0.9154837782  MEMB      90              0.0000000000
     10434        90  SAPS      C220          -32.6780910373       26.1079667260       -0.0149406962  MEMB      90              0.0000000000
     10435        90  SAPS      H20R          -32.5864293382       25.0169127029       -0.1633732590  MEMB      90              0.0000000000
     10436        90  SAPS      H20S          -31.8473369679       26.7256205239       -0.3834506694  MEMB      90              0.0000000000
     10437        90  SAPS      H20T          -33.2787233739       26.4559569024       -0.8081511548  MEMB      90              0.0000000000
     10438        90  SAPS      C33           -32.7854048802       22.5499081288       12.9463212438  MEMB      90              0.0000000000
     10439        90  SAPS      H3X           -32.8835694848       21.9338213676       13.8408307957  MEMB      90              0.0000000000
     10440        90  SAPS      H3Y           -32.2495848464       21.8789087353       12.2851324487  MEMB      90              0.0000000000
     10441        90  SAPS      C34           -34.0777985799       22.7674779080       12.3514650402  MEMB      90              0.0000000000
     10442        90  SAPS      H4X           -34.1025574523       22.7814794048       11.2413408194  MEMB      90              0.0000000000
     10443        90  SAPS      H4Y           -34.5065974783       23.6865565011       12.8092818028  MEMB      90              0.0000000000
     10444        90  SAPS      C35           -34.8989026353       21.6400395282       12.6541326832  MEMB      90              0.0000000000
     10445        90  SAPS      H5X           -34.7498243217       21.2222511368       13.6762306686  MEMB      90              0.0000000000
     10446        90  SAPS      H5Y           -34.6150435927       20.8167486410       11.9437352910  MEMB      90              0.0000000000
     10447        90  SAPS      C36           -36.2469723331       22.3475936677       12.5567042165  MEMB      90              0.0000000000
     10448        90  SAPS      H6X           -36.6839316553       22.8563946545       13.4081365405  MEMB      90              0.0000000000
     10449        90  SAPS      H6Y           -36.6890312451       21.4489814756       12.8813565371  MEMB      90              0.0000000000
     10450        90  SAPS      C37           -36.6683886239       23.0318848783       11.1909345825  MEMB      90              0.0000000000
     10451        90  SAPS      H7X           -36.1700023555       22.4941331891       10.3436711529  MEMB      90              0.0000000000
     10452        90  SAPS      H7Y           -36.1639827596       23.9911311465       11.1129709103  MEMB      90              0.0000000000
     10453        90  SAPS      C38           -38.2175554895       23.2980764841       10.9560806390  MEMB      90              0.0000000000
     10454        90  SAPS      H8X           -38.7173547342       23.6545626437       11.8659697209  MEMB      90              0.0000000000
     10455        90  SAPS      H8Y           -38.9277536849       22.4744216224       10.9249593815  MEMB      90              0.0000000000
     10456        90  SAPS      C39           -38.6202311472       23.9330854875        9.5944285031  MEMB      90              0.0000000000
     10457        90  SAPS      H9X           -37.7618211386       24.4934417119        9.1760957239  MEMB      90              0.0000000000
     10458        90  SAPS      H9Y           -39.4286864280       24.6280711892        9.9034660327  MEMB      90              0.0000000000
     10459        90  SAPS      C310          -39.2464348803       23.0300191980        8.4756931269  MEMB      90              0.0000000000
     10460        90  SAPS      H10X          -40.2149584722       22.5986464934        8.8091644524  MEMB      90              0.0000000000
     10461        90  SAPS      H10Y          -38.6144129267       22.2143113343        8.1091891480  MEMB      90              0.0000000000
     10462        90  SAPS      C311          -39.3255191473       23.6759240155        7.1075455552  MEMB      90              0.0000000000
     10463        90  SAPS      H11X          -39.4411696303       22.9248908192        6.2852635539  MEMB      90              0.0000000000
     10464        90  SAPS      H11Y          -38.3274768564       24.1369565056        6.9172026037  MEMB      90              0.0000000000
     10465        90  SAPS      C312          -40.4651092291       24.6620406224        7.1467955471  MEMB      90              0.0000000000
     10466        90  SAPS      H12X          -40.4115599539       25.2299814816        8.0986434663  MEMB      90              0.0000000000
     10467        90  SAPS      H12Y          -41.4464069777       24.1311970439        7.1585456418  MEMB      90              0.0000000000
     10468        90  SAPS      C313          -40.3138178321       25.6601746549        6.0201101756  MEMB      90              0.0000000000
     10469        90  SAPS      H13X          -39.2686856254       26.0274066337        6.0036672195  MEMB      90              0.0000000000
     10470        90  SAPS      H13Y          -41.0091209295       26.5085123174        6.2187809428  MEMB      90              0.0000000000
     10471        90  SAPS      C314          -40.6753782637       25.0265142187        4.6952490611  MEMB      90              0.0000000000
     10472        90  SAPS      H14X          -41.6896373732       24.6656021094        4.9676324693  MEMB      90              0.0000000000
     10473        90  SAPS      H14Y          -40.1507964369       24.0959711570        4.4166225892  MEMB      90              0.0000000000
     10474        90  SAPS      C315          -40.6002329369       25.9933729796        3.4964672852  MEMB      90              0.0000000000
     10475        90  SAPS      H15X          -41.1736584725       26.9299050786        3.7022893017  MEMB      90              0.0000000000
     10476        90  SAPS      H15Y          -41.0681788131       25.4551981365        2.6456751718  MEMB      90              0.0000000000
     10477        90  SAPS      C316          -39.2188668418       26.2620407261        2.9117592950  MEMB      90              0.0000000000
     10478        90  SAPS      H16X          -38.6637144017       25.3012924826        2.8939914687  MEMB      90              0.0000000000
     10479        90  SAPS      H16Y          -38.6884971984       26.9433541123        3.6075694220  MEMB      90              0.0000000000
     10480        90  SAPS      C317          -39.2715743721       26.9032468842        1.5017298713  MEMB      90              0.0000000000
     10481        90  SAPS      H17X          -38.3679747673       27.5480775077        1.4152202246  MEMB      90              0.0000000000
     10482        90  SAPS      H17Y          -40.1455224691       27.5920162474        1.4443241943  MEMB      90              0.0000000000
     10483        90  SAPS      C318          -39.3261929061       25.9646611551        0.2788132195  MEMB      90              0.0000000000
     10484        90  SAPS      H18X          -40.1549823461       25.2271286297        0.3532003511  MEMB      90              0.0000000000
     10485        90  SAPS      H18Y          -38.3698591507       25.4257201115        0.1149138813  MEMB      90              0.0000000000
     10486        90  SAPS      H18Z          -39.5049707810       26.5683661381       -0.6380034558  MEMB      90              0.0000000000
     10487        91  SAPS      N              33.2640310996       29.9788968798       22.3875335273  MEMB      91              0.0000000000
     10488        91  SAPS      HN1            32.3984701004       29.4493543661       22.5522905598  MEMB      91              0.0000000000
     10489        91  SAPS      HN2            34.0336316578       29.3374164476       22.1348318823  MEMB      91              0.0000000000
     10490        91  SAPS      HN3            33.6158840156       30.5273750143       23.2103047278  MEMB      91              0.0000000000
     10491        91  SAPS      C12            33.0475360573       30.9360597587       21.2677499438  MEMB      91              0.0000000000
     10492        91  SAPS      H12A           32.2908171826       31.6379650534       21.5562936299  MEMB      91              0.0000000000
     10493        91  SAPS      C13            34.2957514554       31.7286439200       20.9925647064  MEMB      91              0.0000000000
     10494        91  SAPS      O13A           35.3693240794       31.3958515704       21.5535118324  MEMB      91              0.0000000000
     10495        91  SAPS      O13B           34.1598375167       32.6737469109       20.2011339178  MEMB      91              0.0000000000
     10496        91  SAPS      C11            32.6700633241       30.2124848591       19.9501803315  MEMB      91              0.0000000000
     10497        91  SAPS      H11A           33.5225922683       29.5506457010       19.6720940265  MEMB      91              0.0000000000
     10498        91  SAPS      H11B           32.5600666020       30.9620516297       19.1205247121  MEMB      91              0.0000000000
     10499        91  SAPS      P              30.7380958878       28.8741514629       18.8619740402  MEMB      91              0.0000000000
     10500        91  SAPS      O13            31.7269151980       28.2051163916       17.9946039651  MEMB      91              0.0000000000
     10501        91  SAPS      O14            29.5275901568       28.1382610455       19.2772672730  MEMB      91              0.0000000000
     10502        91  SAPS      O12            31.4725831198       29.4613496904       20.1469506626  MEMB      91              0.0000000000
     10503        91  SAPS      O11            30.3517133978       30.1666711705       18.0552845723  MEMB      91              0.0000000000
     10504        91  SAPS      C1             29.6262532878       31.2486993823       18.5985066450  MEMB      91              0.0000000000
     10505        91  SAPS      HA             28.6106873538       30.8902091066       18.8918059238  MEMB      91              0.0000000000
     10506        91  SAPS      HB             30.1516484545       31.6453180569       19.4909266921  MEMB      91              0.0000000000
     10507        91  SAPS      C2             29.5060459832       32.3917184789       17.5563035368  MEMB      91              0.0000000000
     10508        91  SAPS      HS             28.7057316173       33.0838432300       17.8844431787  MEMB      91              0.0000000000
     10509        91  SAPS      O21            29.1535703028       31.7901767362       16.2990004578  MEMB      91              0.0000000000
     10510        91  SAPS      C21            28.8837831968       32.6509746664       15.3823652006  MEMB      91              0.0000000000
     10511        91  SAPS      O22            28.8800340849       33.8686469043       15.5424174491  MEMB      91              0.0000000000
     10512        91  SAPS      C22            28.5863608036       31.9149073946       14.0917800046  MEMB      91              0.0000000000
     10513        91  SAPS      H2R            28.3326260701       30.8646518009       14.2264262076  MEMB      91              0.0000000000
     10514        91  SAPS      H2S            27.5810407188       32.1960178150       13.9032416991  MEMB      91              0.0000000000
     10515        91  SAPS      C3             30.8219939835       33.2350641026       17.4484033223  MEMB      91              0.0000000000
     10516        91  SAPS      HX             31.1456093015       33.5343056895       18.4623658045  MEMB      91              0.0000000000
     10517        91  SAPS      HY             30.6673742437       34.1846421877       16.8879317972  MEMB      91              0.0000000000
     10518        91  SAPS      O31            31.8545829955       32.4376868782       16.9007111027  MEMB      91              0.0000000000
     10519        91  SAPS      C31            32.5265261595       32.9003106158       15.8988572168  MEMB      91              0.0000000000
     10520        91  SAPS      O32            32.3719566147       33.9576947472       15.3080156837  MEMB      91              0.0000000000
     10521        91  SAPS      C32            33.4832953690       31.8314072350       15.5329084218  MEMB      91              0.0000000000
     10522        91  SAPS      H2X            32.9973744211       30.8336625012       15.6040119362  MEMB      91              0.0000000000
     10523        91  SAPS      H2Y            34.3328058735       31.8625728695       16.2541711551  MEMB      91              0.0000000000
     10524        91  SAPS      C23            29.6866668544       32.2283704280       13.0441527385  MEMB      91              0.0000000000
     10525        91  SAPS      H3R            30.5370362001       31.6454152620       13.4443323569  MEMB      91              0.0000000000
     10526        91  SAPS      H3S            29.9790629806       33.3079957315       13.0524211776  MEMB      91              0.0000000000
     10527        91  SAPS      C24            29.6030503347       31.6323982561       11.6293711274  MEMB      91              0.0000000000
     10528        91  SAPS      H4R            29.1127981678       30.6650609146       11.6184528675  MEMB      91              0.0000000000
     10529        91  SAPS      H4S            30.4984220460       31.7158174304       11.0176137225  MEMB      91              0.0000000000
     10530        91  SAPS      C25            28.6260007788       32.1704335145       10.8021729724  MEMB      91              0.0000000000
     10531        91  SAPS      H5R            27.8359912512       32.3188128257       11.5063492634  MEMB      91              0.0000000000
     10532        91  SAPS      C26            28.6750991308       32.9297631146        9.7428238953  MEMB      91              0.0000000000
     10533        91  SAPS      H6R            27.7328161149       33.3327960647        9.5800023327  MEMB      91              0.0000000000
     10534        91  SAPS      C27            29.5948159350       33.6551309956        8.8888246587  MEMB      91              0.0000000000
     10535        91  SAPS      H7R            29.1071376418       33.7225905156        7.8867409179  MEMB      91              0.0000000000
     10536        91  SAPS      H7S            30.3677384139       33.0118663284        9.0302818914  MEMB      91              0.0000000000
     10537        91  SAPS      C28            30.0335569208       35.0134607729        9.2596819738  MEMB      91              0.0000000000
     10538        91  SAPS      H8R            29.2380590296       35.5733369840        8.9926338227  MEMB      91              0.0000000000
     10539        91  SAPS      C29            30.8866038375       35.6367051661       10.0595874931  MEMB      91              0.0000000000
     10540        91  SAPS      H9R            30.8280290512       36.7351667053       10.2214948218  MEMB      91              0.0000000000
     10541        91  SAPS      C210           31.7739157850       34.8475751854       10.9148762882  MEMB      91              0.0000000000
     10542        91  SAPS      H10R           31.5035745966       33.7833341198       10.7410963728  MEMB      91              0.0000000000
     10543        91  SAPS      H10S           31.6312821127       35.0578619535       11.9885935035  MEMB      91              0.0000000000
     10544        91  SAPS      C211           33.1048524072       35.2836813861       10.3904238314  MEMB      91              0.0000000000
     10545        91  SAPS      H11R           33.2852368323       36.3616636307       10.3172754618  MEMB      91              0.0000000000
     10546        91  SAPS      C212           34.0874261719       34.4352201824       10.1601138576  MEMB      91              0.0000000000
     10547        91  SAPS      H12R           34.9790010254       34.7503717069        9.5866946311  MEMB      91              0.0000000000
     10548        91  SAPS      C213           33.8775828870       32.9875273765       10.4370801861  MEMB      91              0.0000000000
     10549        91  SAPS      H13R           32.9118588414       32.6063599855       10.7597350982  MEMB      91              0.0000000000
     10550        91  SAPS      H13S           34.6323612025       32.6778320513       11.1838265314  MEMB      91              0.0000000000
     10551        91  SAPS      C214           34.1178350866       32.2441889089        9.2366124391  MEMB      91              0.0000000000
     10552        91  SAPS      H14R           35.1039117155       31.9798488330        9.4774522211  MEMB      91              0.0000000000
     10553        91  SAPS      C215           33.5542786391       31.8000474742        8.1029540345  MEMB      91              0.0000000000
     10554        91  SAPS      H15R           34.0596385012       31.2622538344        7.2962906345  MEMB      91              0.0000000000
     10555        91  SAPS      C216           32.2721854162       31.9094106069        7.5697326252  MEMB      91              0.0000000000
     10556        91  SAPS      H16R           31.6978734188       32.2381557137        8.3803668961  MEMB      91              0.0000000000
     10557        91  SAPS      H16S           31.9790075752       30.9550043487        7.1334241935  MEMB      91              0.0000000000
     10558        91  SAPS      C217           32.2452320701       32.8503663203        6.4867306631  MEMB      91              0.0000000000
     10559        91  SAPS      H17R           32.6619112097       33.8546016251        6.7916465691  MEMB      91              0.0000000000
     10560        91  SAPS      H17S           31.1681599279       32.6592697640        6.1857226628  MEMB      91              0.0000000000
     10561        91  SAPS      C218           32.8001700096       32.6410925606        5.1481811269  MEMB      91              0.0000000000
     10562        91  SAPS      H18R           32.6743136915       31.6978812678        4.6134459318  MEMB      91              0.0000000000
     10563        91  SAPS      H18S           33.8831684845       32.9498392496        5.1072331752  MEMB      91              0.0000000000
     10564        91  SAPS      C219           31.8511459717       33.5673530648        4.4502473512  MEMB      91              0.0000000000
     10565        91  SAPS      H19R           31.7786381146       34.4016010694        5.2385634912  MEMB      91              0.0000000000
     10566        91  SAPS      H19S           30.8650280504       33.8904981922        4.2404170688  MEMB      91              0.0000000000
     10567        91  SAPS      C220           31.9953522311       33.2998838380        2.9545536092  MEMB      91              0.0000000000
     10568        91  SAPS      H20R           31.4610016395       32.4828012085        2.4957937563  MEMB      91              0.0000000000
     10569        91  SAPS      H20S           32.9877261403       32.8333191747        2.8610018298  MEMB      91              0.0000000000
     10570        91  SAPS      H20T           31.9512508241       34.1706905309        2.2781013152  MEMB      91              0.0000000000
     10571        91  SAPS      C33            33.8053469205       32.2046496545       14.1064973641  MEMB      91              0.0000000000
     10572        91  SAPS      H3X            34.2697428436       33.2041996462       13.9822313805  MEMB      91              0.0000000000
     10573        91  SAPS      H3Y            32.9356737851       32.0616724600       13.4260649147  MEMB      91              0.0000000000
     10574        91  SAPS      C34            34.8325258624       31.3323361012       13.6384511231  MEMB      91              0.0000000000
     10575        91  SAPS      H4X            35.6267136183       31.2756790389       14.4185249207  MEMB      91              0.0000000000
     10576        91  SAPS      H4Y            35.2567308889       31.7330083422       12.7060183127  MEMB      91              0.0000000000
     10577        91  SAPS      C35            34.2706750424       30.0091197408       13.3586751555  MEMB      91              0.0000000000
     10578        91  SAPS      H5X            33.5940043703       29.5672578281       14.0952345266  MEMB      91              0.0000000000
     10579        91  SAPS      H5Y            35.1263601291       29.4592320903       13.7517481229  MEMB      91              0.0000000000
     10580        91  SAPS      C36            33.7917413462       29.8629928323       11.8921292592  MEMB      91              0.0000000000
     10581        91  SAPS      H6X            34.5558611747       29.8809515763       11.0931771317  MEMB      91              0.0000000000
     10582        91  SAPS      H6Y            33.1650895984       30.7539592608       11.6996638521  MEMB      91              0.0000000000
     10583        91  SAPS      C37            32.9365439847       28.6264108047       11.7154309686  MEMB      91              0.0000000000
     10584        91  SAPS      H7X            32.2817599844       28.5896022059       12.6043289675  MEMB      91              0.0000000000
     10585        91  SAPS      H7Y            33.4241184583       27.6537531276       11.7322205297  MEMB      91              0.0000000000
     10586        91  SAPS      C38            32.4316299991       28.3109456897       10.3405252145  MEMB      91              0.0000000000
     10587        91  SAPS      H8X            32.1424484282       27.2205242202       10.3573936891  MEMB      91              0.0000000000
     10588        91  SAPS      H8Y            33.2476531798       28.4147301284        9.5899811340  MEMB      91              0.0000000000
     10589        91  SAPS      C39            31.2521312861       29.1806102287       10.0358772337  MEMB      91              0.0000000000
     10590        91  SAPS      H9X            31.5640627024       30.2386590048        9.9985505779  MEMB      91              0.0000000000
     10591        91  SAPS      H9Y            30.5339506108       29.1698185725       10.8736516474  MEMB      91              0.0000000000
     10592        91  SAPS      C310           30.6290038068       28.6669939490        8.7580867937  MEMB      91              0.0000000000
     10593        91  SAPS      H10X           30.2442687263       27.6326424626        8.9648907611  MEMB      91              0.0000000000
     10594        91  SAPS      H10Y           31.4212763715       28.5666722279        7.9874508686  MEMB      91              0.0000000000
     10595        91  SAPS      C311           29.5530519992       29.6141721751        8.1919776284  MEMB      91              0.0000000000
     10596        91  SAPS      H11X           29.7485698603       30.6687834076        8.3508118315  MEMB      91              0.0000000000
     10597        91  SAPS      H11Y           28.6903044550       29.3512692854        8.8607285511  MEMB      91              0.0000000000
     10598        91  SAPS      C312           29.3976838541       29.4845082457        6.6221785457  MEMB      91              0.0000000000
     10599        91  SAPS      H12X           29.4282793170       28.4315403007        6.8468880903  MEMB      91              0.0000000000
     10600        91  SAPS      H12Y           30.2796299383       29.4261624125        5.9832160117  MEMB      91              0.0000000000
     10601        91  SAPS      C313           28.1546390327       30.0801053351        5.7390872350  MEMB      91              0.0000000000
     10602        91  SAPS      H13X           27.2020095330       30.2983979917        6.2911377487  MEMB      91              0.0000000000
     10603        91  SAPS      H13Y           27.7579366974       29.5452562060        4.8507777566  MEMB      91              0.0000000000
     10604        91  SAPS      C314           27.8473248175       31.4316234996        5.7097559536  MEMB      91              0.0000000000
     10605        91  SAPS      H14X           28.0889367967       31.7368034374        6.7919031867  MEMB      91              0.0000000000
     10606        91  SAPS      H14Y           26.7715419592       31.6794769735        5.3198141468  MEMB      91              0.0000000000
     10607        91  SAPS      C315           28.9497462942       31.7780235806        4.8786373298  MEMB      91              0.0000000000
     10608        91  SAPS      H15X           28.8855773087       31.0384557431        3.9896041876  MEMB      91              0.0000000000
     10609        91  SAPS      H15Y           29.8092065952       31.4910123704        5.4855170326  MEMB      91              0.0000000000
     10610        91  SAPS      C316           28.8678450668       33.2686989601        4.5463328590  MEMB      91              0.0000000000
     10611        91  SAPS      H16X           28.4165636670       32.6476469853        3.9292750961  MEMB      91              0.0000000000
     10612        91  SAPS      H16Y           28.4368469753       33.8378483687        5.3883816959  MEMB      91              0.0000000000
     10613        91  SAPS      C317           28.0901808066       33.6625255300        3.2231802144  MEMB      91              0.0000000000
     10614        91  SAPS      H17X           27.0938415511       33.0866704642        3.0189375221  MEMB      91              0.0000000000
     10615        91  SAPS      H17Y           28.6500228262       33.4358579659        2.2939906812  MEMB      91              0.0000000000
     10616        91  SAPS      C318           27.9700615986       35.1276503997        3.1040423320  MEMB      91              0.0000000000
     10617        91  SAPS      H18X           28.1694159389       35.7731596515        3.9697108297  MEMB      91              0.0000000000
     10618        91  SAPS      H18Y           27.0201463172       35.4116341824        3.4120810322  MEMB      91              0.0000000000
     10619        91  SAPS      H18Z           27.5589960188       35.3955898814        2.1234596293  MEMB      91              0.0000000000
     10620        92  CHL1      C3            -33.8107985544       29.9599101123       17.3567347830  MEMB      92              0.0000000000
     10621        92  CHL1      H3            -33.5910528122       28.8764300541       17.2860048213  MEMB      92              0.0000000000
     10622        92  CHL1      O3            -33.5986121979       30.4292375579       18.6799765864  MEMB      92              0.0000000000
     10623        92  CHL1      H3'           -34.3774132912       30.1299324167       19.1948391769  MEMB      92              0.0000000000
     10624        92  CHL1      C4            -32.7834961359       30.6292851799       16.4257890405  MEMB      92              0.0000000000
     10625        92  CHL1      H4A           -32.7679570325       31.7376292282       16.6730176641  MEMB      92              0.0000000000
     10626        92  CHL1      H4B           -31.7517413034       30.3858820446       16.6837294158  MEMB      92              0.0000000000
     10627        92  CHL1      C5            -33.0776454227       30.1502472375       14.9883311419  MEMB      92              0.0000000000
     10628        92  CHL1      C6            -32.1912795024       29.7017712945       14.1007403148  MEMB      92              0.0000000000
     10629        92  CHL1      H6            -31.1733086013       29.5540629181       14.4405379121  MEMB      92              0.0000000000
     10630        92  CHL1      C7            -32.4565715285       29.5015362250       12.6250925069  MEMB      92              0.0000000000
     10631        92  CHL1      H7A           -31.5305464069       29.6291977736       12.0363218058  MEMB      92              0.0000000000
     10632        92  CHL1      H7B           -32.8427798110       28.4673891936       12.5028074270  MEMB      92              0.0000000000
     10633        92  CHL1      C8            -33.5504556336       30.4436458290       12.0755157488  MEMB      92              0.0000000000
     10634        92  CHL1      H8            -33.2039462521       31.4715148335       12.1596422694  MEMB      92              0.0000000000
     10635        92  CHL1      C14           -33.9915663046       30.1798555300       10.6147335807  MEMB      92              0.0000000000
     10636        92  CHL1      H14           -34.1556437696       29.1006669627       10.6395668945  MEMB      92              0.0000000000
     10637        92  CHL1      C15           -32.9654445038       30.1761823476        9.5023690592  MEMB      92              0.0000000000
     10638        92  CHL1      H15A          -32.4239082306       31.0081905807        9.8471404788  MEMB      92              0.0000000000
     10639        92  CHL1      H15B          -32.2416417772       29.3690631837        9.4175235876  MEMB      92              0.0000000000
     10640        92  CHL1      C16           -33.6954622017       30.4077730387        8.1982512953  MEMB      92              0.0000000000
     10641        92  CHL1      H16A          -33.3857731530       31.3862436798        7.7660600327  MEMB      92              0.0000000000
     10642        92  CHL1      H16B          -33.5449963261       29.6020842200        7.4548400264  MEMB      92              0.0000000000
     10643        92  CHL1      C17           -35.1697525884       30.4900209276        8.5664483579  MEMB      92              0.0000000000
     10644        92  CHL1      H17           -35.6272533319       29.4958054246        8.6851363703  MEMB      92              0.0000000000
     10645        92  CHL1      C13           -35.1831979197       30.9990189793       10.0022259736  MEMB      92              0.0000000000
     10646        92  CHL1      C18           -34.9303268079       32.4637175280        9.9782165017  MEMB      92              0.0000000000
     10647        92  CHL1      H18A          -35.7535762511       33.0860575186        9.5863319749  MEMB      92              0.0000000000
     10648        92  CHL1      H18B          -34.9002486283       32.6816547597       11.0401265409  MEMB      92              0.0000000000
     10649        92  CHL1      H18C          -33.9546625130       32.6945883358        9.5290893826  MEMB      92              0.0000000000
     10650        92  CHL1      C12           -36.3983533826       30.8419576154       10.8581723837  MEMB      92              0.0000000000
     10651        92  CHL1      H12A          -37.3252143337       31.3719098422       10.7951188438  MEMB      92              0.0000000000
     10652        92  CHL1      H12B          -36.9817769327       30.0930989398       10.3382167691  MEMB      92              0.0000000000
     10653        92  CHL1      C11           -35.9507320816       30.8118054845       12.3473399184  MEMB      92              0.0000000000
     10654        92  CHL1      H11A          -36.1652025416       31.7688177820       12.5397812596  MEMB      92              0.0000000000
     10655        92  CHL1      H11B          -36.5816306212       30.4376144414       13.1060468139  MEMB      92              0.0000000000
     10656        92  CHL1      C9            -34.7106782873       30.2096554590       12.9823167167  MEMB      92              0.0000000000
     10657        92  CHL1      H9            -34.9081298690       29.1113076671       12.9488795326  MEMB      92              0.0000000000
     10658        92  CHL1      C10           -34.4808132523       30.3931109818       14.5611701938  MEMB      92              0.0000000000
     10659        92  CHL1      C19           -34.4330483119       31.7294985963       15.1177511744  MEMB      92              0.0000000000
     10660        92  CHL1      H19A          -33.5282058067       32.3514523169       14.8218366551  MEMB      92              0.0000000000
     10661        92  CHL1      H19B          -35.4391488517       32.0154644262       14.8018501398  MEMB      92              0.0000000000
     10662        92  CHL1      H19C          -34.6571769913       32.2140505395       16.0774932004  MEMB      92              0.0000000000
     10663        92  CHL1      C1            -35.5317541330       29.7539627459       15.4625517693  MEMB      92              0.0000000000
     10664        92  CHL1      H1A           -36.5746838783       30.0251983813       15.2209799669  MEMB      92              0.0000000000
     10665        92  CHL1      H1B           -35.3970824904       28.6866378534       15.2526656548  MEMB      92              0.0000000000
     10666        92  CHL1      C2            -35.3046438408       30.1339081600       16.9488698562  MEMB      92              0.0000000000
     10667        92  CHL1      H2A           -35.9330700340       29.4657689986       17.5518228876  MEMB      92              0.0000000000
     10668        92  CHL1      H2B           -35.7019700871       31.1585490501       17.1811008966  MEMB      92              0.0000000000
     10669        92  CHL1      C20           -35.8104133336       31.1699315048        7.3927297601  MEMB      92              0.0000000000
     10670        92  CHL1      H20           -35.3788301549       32.1582188598        7.1374169823  MEMB      92              0.0000000000
     10671        92  CHL1      C21           -37.0993651026       31.4779597588        7.7444708062  MEMB      92              0.0000000000
     10672        92  CHL1      H21A          -37.0659585687       32.4297525601        8.2947580062  MEMB      92              0.0000000000
     10673        92  CHL1      H21B          -37.6429257490       30.6183943211        8.2565371786  MEMB      92              0.0000000000
     10674        92  CHL1      H21C          -37.6970806942       31.8795048660        6.9231464412  MEMB      92              0.0000000000
     10675        92  CHL1      C22           -36.1046374589       30.2904029450        6.2077157337  MEMB      92              0.0000000000
     10676        92  CHL1      H22A          -35.1465624903       29.7867120636        6.0319413918  MEMB      92              0.0000000000
     10677        92  CHL1      H22B          -36.8736133122       29.5278095924        6.5042519512  MEMB      92              0.0000000000
     10678        92  CHL1      C23           -36.6246216160       31.0125591869        4.9520455912  MEMB      92              0.0000000000
     10679        92  CHL1      H23A          -36.9519659454       30.2471168590        4.2206636344  MEMB      92              0.0000000000
     10680        92  CHL1      H23B          -37.5227744222       31.6373030157        5.1234223884  MEMB      92              0.0000000000
     10681        92  CHL1      C24           -35.5787007322       31.8982596385        4.3011014534  MEMB      92              0.0000000000
     10682        92  CHL1      H24A          -36.0584612326       32.4304405954        3.4515461582  MEMB      92              0.0000000000
     10683        92  CHL1      H24B          -35.2092094487       32.6918072110        4.9879993428  MEMB      92              0.0000000000
     10684        92  CHL1      C25           -34.4198641602       31.0723705465        3.7470279428  MEMB      92              0.0000000000
     10685        92  CHL1      H25           -33.9995433441       30.3894400858        4.5319379931  MEMB      92              0.0000000000
     10686        92  CHL1      C26           -34.8540213491       30.2511940055        2.5421050216  MEMB      92              0.0000000000
     10687        92  CHL1      H26A          -33.9472032239       29.9365696896        1.9872298198  MEMB      92              0.0000000000
     10688        92  CHL1      H26B          -35.4118831628       29.3467674487        2.8419965947  MEMB      92              0.0000000000
     10689        92  CHL1      H26C          -35.4940794603       30.8220552293        1.8558736111  MEMB      92              0.0000000000
     10690        92  CHL1      C27           -33.3228512740       32.0113052762        3.3147392832  MEMB      92              0.0000000000
     10691        92  CHL1      H27A          -33.6347534446       32.7002233339        2.5121286425  MEMB      92              0.0000000000
     10692        92  CHL1      H27B          -33.0887328323       32.6408319322        4.1961766384  MEMB      92              0.0000000000
     10693        92  CHL1      H27C          -32.4372511599       31.4236072495        2.9768848419  MEMB      92              0.0000000000
     10694        93  CHL1      C3            -33.8221763191      -29.8593866200       17.3396194854  MEMB      93              0.0000000000
     10695        93  CHL1      H3            -34.8743878551      -30.2324449231       17.3211687217  MEMB      93              0.0000000000
     10696        93  CHL1      O3            -33.4552808081      -29.5937959236       18.6757333791  MEMB      93              0.0000000000
     10697        93  CHL1      H3'           -33.3673702893      -28.6247019479       18.6974129773  MEMB      93              0.0000000000
     10698        93  CHL1      C4            -32.9688633225      -30.9819528231       16.7618394343  MEMB      93              0.0000000000
     10699        93  CHL1      H4A           -31.8891225870      -30.8564428837       16.9766658743  MEMB      93              0.0000000000
     10700        93  CHL1      H4B           -33.2946108763      -31.8955686279       17.3185617379  MEMB      93              0.0000000000
     10701        93  CHL1      C5            -33.1585161864      -31.1364601693       15.2707878985  MEMB      93              0.0000000000
     10702        93  CHL1      C6            -33.2427987011      -32.3587177991       14.7740501278  MEMB      93              0.0000000000
     10703        93  CHL1      H6            -33.1716016929      -33.2253934065       15.4559243071  MEMB      93              0.0000000000
     10704        93  CHL1      C7            -33.3080362954      -32.5864979626       13.2956994236  MEMB      93              0.0000000000
     10705        93  CHL1      H7A           -32.4463047078      -33.2381463493       13.0504449208  MEMB      93              0.0000000000
     10706        93  CHL1      H7B           -34.1466407189      -33.1874627355       13.0057974497  MEMB      93              0.0000000000
     10707        93  CHL1      C8            -33.4327057617      -31.3382247360       12.3782722563  MEMB      93              0.0000000000
     10708        93  CHL1      H8            -32.3702653488      -31.1268364364       12.1582517621  MEMB      93              0.0000000000
     10709        93  CHL1      C14           -34.2845106245      -31.4163061354       11.0870054993  MEMB      93              0.0000000000
     10710        93  CHL1      H14           -35.3278972555      -31.7213150882       11.2802442222  MEMB      93              0.0000000000
     10711        93  CHL1      C15           -33.8998760819      -32.3663917891       10.2373992227  MEMB      93              0.0000000000
     10712        93  CHL1      H15A          -32.7884272674      -32.2811026853       10.4759675322  MEMB      93              0.0000000000
     10713        93  CHL1      H15B          -34.2889729500      -33.2872622619       10.6489135423  MEMB      93              0.0000000000
     10714        93  CHL1      C16           -34.1691447544      -32.3632422532        8.7282824765  MEMB      93              0.0000000000
     10715        93  CHL1      H16A          -33.2254103382      -32.3447720373        8.1246084740  MEMB      93              0.0000000000
     10716        93  CHL1      H16B          -34.7240113677      -33.2466500644        8.3438198267  MEMB      93              0.0000000000
     10717        93  CHL1      C17           -34.8704235406      -31.0612251169        8.8022143928  MEMB      93              0.0000000000
     10718        93  CHL1      H17           -35.9114244787      -31.3263516830        9.1189662480  MEMB      93              0.0000000000
     10719        93  CHL1      C13           -34.1734335956      -30.3952716362       10.0206209194  MEMB      93              0.0000000000
     10720        93  CHL1      C18           -32.6685197331      -30.1136680429        9.6504732359  MEMB      93              0.0000000000
     10721        93  CHL1      H18A          -32.6067360298      -29.2758813038        8.9521724751  MEMB      93              0.0000000000
     10722        93  CHL1      H18B          -32.0744361242      -29.9180300245       10.5599842179  MEMB      93              0.0000000000
     10723        93  CHL1      H18C          -32.1296953680      -30.9518104593        9.1530741713  MEMB      93              0.0000000000
     10724        93  CHL1      C12           -34.9411533010      -29.3345774059       10.7090183615  MEMB      93              0.0000000000
     10725        93  CHL1      H12A          -34.8831207912      -28.4552266233       10.0636543313  MEMB      93              0.0000000000
     10726        93  CHL1      H12B          -35.9957498414      -29.6941450564       10.8061792324  MEMB      93              0.0000000000
     10727        93  CHL1      C11           -34.3150697445      -29.0218210891       12.0794752044  MEMB      93              0.0000000000
     10728        93  CHL1      H11A          -33.3225110750      -28.5995934924       11.8293190176  MEMB      93              0.0000000000
     10729        93  CHL1      H11B          -34.9743785150      -28.2564704073       12.5203344873  MEMB      93              0.0000000000
     10730        93  CHL1      C9            -34.0899728762      -30.2031550386       13.0779517586  MEMB      93              0.0000000000
     10731        93  CHL1      H9            -35.1142938513      -30.5370331959       13.3800624431  MEMB      93              0.0000000000
     10732        93  CHL1      C10           -33.3651754382      -29.8743183543       14.3924874297  MEMB      93              0.0000000000
     10733        93  CHL1      C19           -31.9580172129      -29.2835947077       14.1050123441  MEMB      93              0.0000000000
     10734        93  CHL1      H19A          -32.0411068244      -28.2857095259       13.6355645642  MEMB      93              0.0000000000
     10735        93  CHL1      H19B          -31.3913208264      -29.1816094343       15.0515863911  MEMB      93              0.0000000000
     10736        93  CHL1      H19C          -31.3409807225      -29.9144332463       13.4346035375  MEMB      93              0.0000000000
     10737        93  CHL1      C1            -34.2668744307      -28.8699734672       15.1422966893  MEMB      93              0.0000000000
     10738        93  CHL1      H1A           -34.4400058732      -27.9451109007       14.5536156854  MEMB      93              0.0000000000
     10739        93  CHL1      H1B           -35.2607062590      -29.3548784006       15.2897969306  MEMB      93              0.0000000000
     10740        93  CHL1      C2            -33.7376595649      -28.5649646164       16.5342803119  MEMB      93              0.0000000000
     10741        93  CHL1      H2A           -34.3918344532      -27.8063636224       17.0050805000  MEMB      93              0.0000000000
     10742        93  CHL1      H2B           -32.6982528649      -28.1713122752       16.4848385039  MEMB      93              0.0000000000
     10743        93  CHL1      C20           -34.9246243965      -30.4124640158        7.4543251018  MEMB      93              0.0000000000
     10744        93  CHL1      H20           -33.9630749164      -30.5878989355        6.9124519045  MEMB      93              0.0000000000
     10745        93  CHL1      C21           -35.1799665299      -28.9053494668        7.5323810284  MEMB      93              0.0000000000
     10746        93  CHL1      H21A          -36.1718922001      -28.7278407466        8.0003085149  MEMB      93              0.0000000000
     10747        93  CHL1      H21B          -35.1729827976      -28.4785921989        6.5115372966  MEMB      93              0.0000000000
     10748        93  CHL1      H21C          -34.3950860457      -28.3763397964        8.1022094680  MEMB      93              0.0000000000
     10749        93  CHL1      C22           -36.0808964852      -31.0631199791        6.6919586197  MEMB      93              0.0000000000
     10750        93  CHL1      H22A          -36.0741035429      -32.1717469946        6.7887727851  MEMB      93              0.0000000000
     10751        93  CHL1      H22B          -37.0483425508      -30.6796999245        7.0917381763  MEMB      93              0.0000000000
     10752        93  CHL1      C23           -36.0402746993      -30.7508306470        5.2322485826  MEMB      93              0.0000000000
     10753        93  CHL1      H23A          -36.9726759215      -31.1312718440        4.8065126660  MEMB      93              0.0000000000
     10754        93  CHL1      H23B          -35.8772946719      -29.6778652143        5.0072387203  MEMB      93              0.0000000000
     10755        93  CHL1      C24           -35.0592019150      -31.5731792337        4.5030890259  MEMB      93              0.0000000000
     10756        93  CHL1      H24A          -34.0344259734      -31.4895254399        4.9097564750  MEMB      93              0.0000000000
     10757        93  CHL1      H24B          -35.3807789423      -32.6488721558        4.5812942424  MEMB      93              0.0000000000
     10758        93  CHL1      C25           -35.0658248348      -31.1122518059        3.0683294601  MEMB      93              0.0000000000
     10759        93  CHL1      H25           -36.0569709004      -31.3601855028        2.5802047494  MEMB      93              0.0000000000
     10760        93  CHL1      C26           -34.5630642866      -29.7515867093        2.6796820234  MEMB      93              0.0000000000
     10761        93  CHL1      H26A          -35.0367036943      -28.9939557178        3.3017967471  MEMB      93              0.0000000000
     10762        93  CHL1      H26B          -33.4576188963      -29.7777644904        2.8416486547  MEMB      93              0.0000000000
     10763        93  CHL1      H26C          -34.7433061098      -29.5397816322        1.6007196255  MEMB      93              0.0000000000
     10764        93  CHL1      C27           -33.9448335723      -31.8656766411        2.5421967707  MEMB      93              0.0000000000
     10765        93  CHL1      H27A          -32.8849219295      -31.7456430190        2.6615858792  MEMB      93              0.0000000000
     10766        93  CHL1      H27B          -34.1535368968      -32.8892379791        2.9547575402  MEMB      93              0.0000000000
     10767        93  CHL1      H27C          -34.1034921642      -31.6615344820        1.4480331333  MEMB      93              0.0000000000
     10768        94  SOPE      N              27.9797055110      -37.8072486147       20.2286816667  MEMB      94              0.0000000000
     10769        94  SOPE      HN1            27.7245619732      -37.7072886222       21.2424255335  MEMB      94              0.0000000000
     10770        94  SOPE      HN2            28.0098148665      -38.8224460949       20.0136280041  MEMB      94              0.0000000000
     10771        94  SOPE      HN3            28.8994406473      -37.3782466048       20.0060917035  MEMB      94              0.0000000000
     10772        94  SOPE      C12            27.0967645414      -37.1433337126       19.2862967326  MEMB      94              0.0000000000
     10773        94  SOPE      H12A           26.2244017215      -37.8078967693       19.1640616742  MEMB      94              0.0000000000
     10774        94  SOPE      H12B           27.6568813427      -37.0171918412       18.3293517140  MEMB      94              0.0000000000
     10775        94  SOPE      C11            26.8043433645      -35.8373935797       19.9738904678  MEMB      94              0.0000000000
     10776        94  SOPE      H11A           26.0253599689      -35.3121066415       19.3761345472  MEMB      94              0.0000000000
     10777        94  SOPE      H11B           27.7311698328      -35.2144684150       19.9681641065  MEMB      94              0.0000000000
     10778        94  SOPE      P              25.0814833172      -36.6862344868       21.7691256947  MEMB      94              0.0000000000
     10779        94  SOPE      O13            24.5637926149      -35.9461656284       22.9331578003  MEMB      94              0.0000000000
     10780        94  SOPE      O14            25.2443958131      -38.1377274207       21.8534765065  MEMB      94              0.0000000000
     10781        94  SOPE      O12            26.4531338648      -36.0445553578       21.3491413980  MEMB      94              0.0000000000
     10782        94  SOPE      O11            24.2798902637      -36.3531696822       20.5420128258  MEMB      94              0.0000000000
     10783        94  SOPE      C1             22.9970310752      -36.9096198321       20.4705226101  MEMB      94              0.0000000000
     10784        94  SOPE      HA             22.3952239706      -36.3982695447       21.1937829552  MEMB      94              0.0000000000
     10785        94  SOPE      HB             22.9172003621      -38.0007563940       20.7152539107  MEMB      94              0.0000000000
     10786        94  SOPE      C2             22.5804928050      -36.5239643111       19.0913305564  MEMB      94              0.0000000000
     10787        94  SOPE      HS             21.5648943911      -36.9607369416       18.8907284773  MEMB      94              0.0000000000
     10788        94  SOPE      O21            23.6346237451      -36.9149838979       18.1583712314  MEMB      94              0.0000000000
     10789        94  SOPE      C21            23.9204643003      -38.2154881257       18.1674699255  MEMB      94              0.0000000000
     10790        94  SOPE      O22            23.2703300765      -39.0506464118       18.7517144475  MEMB      94              0.0000000000
     10791        94  SOPE      C22            24.8388999975      -38.6080944070       16.9808584758  MEMB      94              0.0000000000
     10792        94  SOPE      H2R            24.5984313067      -39.6964475943       16.8198039613  MEMB      94              0.0000000000
     10793        94  SOPE      H2S            25.8689204118      -38.4134830303       17.2325590000  MEMB      94              0.0000000000
     10794        94  SOPE      C3             22.4409505443      -34.9851011856       19.0444865078  MEMB      94              0.0000000000
     10795        94  SOPE      HX             23.4093527198      -34.5151654852       19.2993338190  MEMB      94              0.0000000000
     10796        94  SOPE      HY             21.6875853842      -34.6918992229       19.8159095065  MEMB      94              0.0000000000
     10797        94  SOPE      O31            21.9985143206      -34.5574744088       17.7684350017  MEMB      94              0.0000000000
     10798        94  SOPE      C31            22.8392668710      -34.1426693282       16.8196784211  MEMB      94              0.0000000000
     10799        94  SOPE      O32            24.0333728102      -34.1136087821       17.0428514065  MEMB      94              0.0000000000
     10800        94  SOPE      C32            22.1519450071      -34.1677773556       15.3939260205  MEMB      94              0.0000000000
     10801        94  SOPE      H2X            21.6339646839      -33.3879606530       14.9995851853  MEMB      94              0.0000000000
     10802        94  SOPE      H2Y            21.1932510714      -34.7042359079       15.3875872316  MEMB      94              0.0000000000
     10803        94  SOPE      C23            24.5718316463      -37.9281012869       15.6324715270  MEMB      94              0.0000000000
     10804        94  SOPE      H3R            24.6815406296      -36.8293480740       15.5910503337  MEMB      94              0.0000000000
     10805        94  SOPE      H3S            23.5708410030      -38.2459370655       15.7238334507  MEMB      94              0.0000000000
     10806        94  SOPE      C24            25.0163837764      -38.5362526270       14.3255293315  MEMB      94              0.0000000000
     10807        94  SOPE      H4R            24.5765384423      -39.5309357399       14.0727425040  MEMB      94              0.0000000000
     10808        94  SOPE      H4S            24.6759610837      -37.8625178064       13.5139271134  MEMB      94              0.0000000000
     10809        94  SOPE      C25            26.5081024897      -38.5442793392       14.4327104869  MEMB      94              0.0000000000
     10810        94  SOPE      H5R            26.9337826990      -37.5435207672       14.6350866690  MEMB      94              0.0000000000
     10811        94  SOPE      H5S            26.7332698083      -39.2625485473       15.2448374773  MEMB      94              0.0000000000
     10812        94  SOPE      C26            27.1377900038      -38.8878828859       13.1554805993  MEMB      94              0.0000000000
     10813        94  SOPE      H6R            28.2453402457      -38.9802845227       13.1803128315  MEMB      94              0.0000000000
     10814        94  SOPE      H6S            26.7892396059      -39.9106199930       13.0577682440  MEMB      94              0.0000000000
     10815        94  SOPE      C27            26.5836706310      -37.9725450675       12.0522578700  MEMB      94              0.0000000000
     10816        94  SOPE      H7R            25.5371511428      -38.2256028808       11.7957579987  MEMB      94              0.0000000000
     10817        94  SOPE      H7S            26.5342719211      -36.9193854884       12.2596806464  MEMB      94              0.0000000000
     10818        94  SOPE      C28            27.4558147277      -38.0118898522       10.8699489340  MEMB      94              0.0000000000
     10819        94  SOPE      H8R            28.4961270727      -37.7930995272       10.9345785246  MEMB      94              0.0000000000
     10820        94  SOPE      H8S            27.7732976257      -39.0044148931       11.1575036308  MEMB      94              0.0000000000
     10821        94  SOPE      C29            26.7911078373      -37.8905095832        9.5299641379  MEMB      94              0.0000000000
     10822        94  SOPE      H91            26.5638910563      -38.8555072474        9.2213227301  MEMB      94              0.0000000000
     10823        94  SOPE      C210           27.0019197315      -37.1918372609        8.4407778011  MEMB      94              0.0000000000
     10824        94  SOPE      H101           26.4332666070      -37.3646119167        7.5115781622  MEMB      94              0.0000000000
     10825        94  SOPE      C211           28.0913661655      -36.2429446955        8.2991569650  MEMB      94              0.0000000000
     10826        94  SOPE      H11R           28.8094171405      -36.5529877901        7.4986363257  MEMB      94              0.0000000000
     10827        94  SOPE      H11S           28.6086830794      -36.1488919948        9.2848492477  MEMB      94              0.0000000000
     10828        94  SOPE      C212           27.3483705932      -35.0379597671        8.1086068522  MEMB      94              0.0000000000
     10829        94  SOPE      H12R           26.5392345193      -35.0079194082        8.8871447495  MEMB      94              0.0000000000
     10830        94  SOPE      H12S           26.9301943759      -35.0649574760        7.0793805039  MEMB      94              0.0000000000
     10831        94  SOPE      C213           28.2915420829      -33.9098169153        8.4025828183  MEMB      94              0.0000000000
     10832        94  SOPE      H13R           28.8221007500      -34.0803649935        9.3725851686  MEMB      94              0.0000000000
     10833        94  SOPE      H13S           27.6019460791      -33.0638341030        8.5230608671  MEMB      94              0.0000000000
     10834        94  SOPE      C214           29.3303115792      -33.6489083800        7.3226709580  MEMB      94              0.0000000000
     10835        94  SOPE      H14R           30.0761147636      -34.4737738041        7.2788125579  MEMB      94              0.0000000000
     10836        94  SOPE      H14S           29.8553087828      -32.7073504124        7.6052030563  MEMB      94              0.0000000000
     10837        94  SOPE      C215           28.8042410850      -33.5181219917        5.8992035920  MEMB      94              0.0000000000
     10838        94  SOPE      H15R           27.9200513776      -32.8781554306        5.8697455179  MEMB      94              0.0000000000
     10839        94  SOPE      H15S           28.4373286839      -34.4902985315        5.5197448488  MEMB      94              0.0000000000
     10840        94  SOPE      C216           29.9370726846      -32.9275866285        5.0653410489  MEMB      94              0.0000000000
     10841        94  SOPE      H16R           30.8852572686      -33.3917645793        5.3252468107  MEMB      94              0.0000000000
     10842        94  SOPE      H16S           30.0151248304      -31.8284021259        5.2876661827  MEMB      94              0.0000000000
     10843        94  SOPE      C217           29.9683467423      -33.2670136604        3.6114349664  MEMB      94              0.0000000000
     10844        94  SOPE      H17R           29.5322130284      -34.1718089539        3.1440391241  MEMB      94              0.0000000000
     10845        94  SOPE      H17S           30.7626002083      -32.7523845705        3.0069994810  MEMB      94              0.0000000000
     10846        94  SOPE      C218           29.0257591746      -32.4462080990        3.1693828003  MEMB      94              0.0000000000
     10847        94  SOPE      H18R           29.1782742775      -32.4999086237        2.1014352172  MEMB      94              0.0000000000
     10848        94  SOPE      H18S           29.4284621967      -31.4584709002        3.3798409649  MEMB      94              0.0000000000
     10849        94  SOPE      H18T           27.9670503914      -32.6630842945        3.4040024491  MEMB      94              0.0000000000
     10850        94  SOPE      C33            23.0848837999      -34.6972764819       14.3107772030  MEMB      94              0.0000000000
     10851        94  SOPE      H3X            23.5410197653      -35.6598662597       14.5406478538  MEMB      94              0.0000000000
     10852        94  SOPE      H3Y            23.8695405482      -33.9705224761       14.2227778691  MEMB      94              0.0000000000
     10853        94  SOPE      C34            22.6358105917      -34.7670468954       12.8807859442  MEMB      94              0.0000000000
     10854        94  SOPE      H4X            22.5189878944      -33.7472904882       12.5007666631  MEMB      94              0.0000000000
     10855        94  SOPE      H4Y            21.6611380387      -35.2719669120       12.8067005028  MEMB      94              0.0000000000
     10856        94  SOPE      C35            23.8195255642      -35.3542224932       12.0856713558  MEMB      94              0.0000000000
     10857        94  SOPE      H5X            24.0641434513      -36.3137072253       12.5041515693  MEMB      94              0.0000000000
     10858        94  SOPE      H5Y            24.6813291429      -34.6250616821       12.0828749292  MEMB      94              0.0000000000
     10859        94  SOPE      C36            23.5581424601      -35.7217486204       10.6798981586  MEMB      94              0.0000000000
     10860        94  SOPE      H6X            22.5134702062      -36.1945757461       10.5743858264  MEMB      94              0.0000000000
     10861        94  SOPE      H6Y            24.2666309217      -36.0724173237        9.9216206199  MEMB      94              0.0000000000
     10862        94  SOPE      C37            23.4917614253      -34.3858810895       10.1783934434  MEMB      94              0.0000000000
     10863        94  SOPE      H7X            22.5946373925      -34.1788609931       10.5832116501  MEMB      94              0.0000000000
     10864        94  SOPE      H7Y            22.7040828686      -34.6591348012        9.6196959352  MEMB      94              0.0000000000
     10865        94  SOPE      C38            24.5147770931      -33.2710951943        9.8364920302  MEMB      94              0.0000000000
     10866        94  SOPE      H8X            25.5005505495      -33.6635041964        9.5927981547  MEMB      94              0.0000000000
     10867        94  SOPE      H8Y            24.5107811975      -32.6443073804       10.7236010895  MEMB      94              0.0000000000
     10868        94  SOPE      C39            24.3216309004      -32.3053220219        8.6667472838  MEMB      94              0.0000000000
     10869        94  SOPE      H9X            25.0298664838      -31.5813763935        8.8388995866  MEMB      94              0.0000000000
     10870        94  SOPE      H9Y            23.6348785117      -31.3844702141        8.5901633334  MEMB      94              0.0000000000
     10871        94  SOPE      C310           24.6972559126      -33.1613431534        7.4815194625  MEMB      94              0.0000000000
     10872        94  SOPE      H10X           25.7494620747      -33.3165139758        7.4026342604  MEMB      94              0.0000000000
     10873        94  SOPE      H10Y           24.1256616266      -32.2802753809        7.1385961567  MEMB      94              0.0000000000
     10874        94  SOPE      C311           24.1319337558      -33.8502646212        6.3138594378  MEMB      94              0.0000000000
     10875        94  SOPE      H11X           23.2198248893      -33.4958738034        5.9695925397  MEMB      94              0.0000000000
     10876        94  SOPE      H11Y           23.9553340918      -34.8690259705        6.6355340795  MEMB      94              0.0000000000
     10877        94  SOPE      C312           24.7721762389      -33.7481774363        5.0439161481  MEMB      94              0.0000000000
     10878        94  SOPE      H12X           25.7043213642      -34.2957906727        5.2247776229  MEMB      94              0.0000000000
     10879        94  SOPE      H12Y           24.9373367392      -32.8507842040        4.4254140669  MEMB      94              0.0000000000
     10880        94  SOPE      C313           23.7532823614      -34.2509762668        4.1811611421  MEMB      94              0.0000000000
     10881        94  SOPE      H13X           23.0321919520      -33.5704770800        3.6820796957  MEMB      94              0.0000000000
     10882        94  SOPE      H13Y           23.0963583774      -34.9858937175        4.7026164263  MEMB      94              0.0000000000
     10883        94  SOPE      C314           24.7925001344      -34.6475919084        3.2639338521  MEMB      94              0.0000000000
     10884        94  SOPE      H14X           24.3722556983      -35.5588902844        3.1865658766  MEMB      94              0.0000000000
     10885        94  SOPE      H14Y           25.6118628440      -35.2924289136        3.5566351516  MEMB      94              0.0000000000
     10886        94  SOPE      C315           25.0721576864      -33.5974362761        2.2246066507  MEMB      94              0.0000000000
     10887        94  SOPE      H15X           25.6473843442      -32.7603943600        2.5557163845  MEMB      94              0.0000000000
     10888        94  SOPE      H15Y           24.1264897368      -33.0796417898        1.8288201295  MEMB      94              0.0000000000
     10889        94  SOPE      C316           25.8443365220      -34.2021807703        1.0952981180  MEMB      94              0.0000000000
     10890        94  SOPE      H16X           25.7719603995      -35.2862718887        0.9216075085  MEMB      94              0.0000000000
     10891        94  SOPE      H16Y           26.8795320670      -34.4534910978        1.2922852062  MEMB      94              0.0000000000
     10892        94  SOPE      C317           25.1831135438      -33.6242972507       -0.1926913509  MEMB      94              0.0000000000
     10893        94  SOPE      H17X           24.1492022189      -33.2817781199       -0.4670141657  MEMB      94              0.0000000000
     10894        94  SOPE      H17Y           25.1912567310      -34.4518235674       -0.8404302687  MEMB      94              0.0000000000
     10895        94  SOPE      C318           25.7802543491      -32.5373894035       -0.4004825778  MEMB      94              0.0000000000
     10896        94  SOPE      H18X           26.7918304746      -32.8806528669       -0.2162256684  MEMB      94              0.0000000000
     10897        94  SOPE      H18Y           25.4353557334      -32.0331059718        0.4592416882  MEMB      94              0.0000000000
     10898        94  SOPE      H18Z           25.5862294277      -32.0086191548       -1.3441498778  MEMB      94              0.0000000000
     10899        95  OSM       N             -30.0138279121       38.3622321645       22.5151882319  MEMB      95              0.0000000000
     10900        95  OSM       C15           -30.1241141597       38.2995384585       23.9893342385  MEMB      95              0.0000000000
     10901        95  OSM       H15A          -31.0850343437       37.8808569200       24.2794830540  MEMB      95              0.0000000000
     10902        95  OSM       H15B          -29.8362386678       39.1844245960       24.5358769802  MEMB      95              0.0000000000
     10903        95  OSM       H15C          -29.3575501528       37.6055194527       24.3624923736  MEMB      95              0.0000000000
     10904        95  OSM       C14           -30.8306600011       39.5618160544       22.2486147638  MEMB      95              0.0000000000
     10905        95  OSM       H14A          -31.8840269932       39.3333283758       22.4108630881  MEMB      95              0.0000000000
     10906        95  OSM       H14B          -30.6864894396       39.8923147267       21.2378785558  MEMB      95              0.0000000000
     10907        95  OSM       H14C          -30.5428014603       40.3294351045       22.9700836073  MEMB      95              0.0000000000
     10908        95  OSM       C13           -28.5567084866       38.5579429282       22.1791560653  MEMB      95              0.0000000000
     10909        95  OSM       H13A          -28.4159353790       38.2648227819       21.1399312421  MEMB      95              0.0000000000
     10910        95  OSM       H13B          -27.9012996130       37.9226552780       22.7746512872  MEMB      95              0.0000000000
     10911        95  OSM       H13C          -28.1850361434       39.5752203584       22.2927426194  MEMB      95              0.0000000000
     10912        95  OSM       C12           -30.5626018622       37.1588255232       21.6954563179  MEMB      95              0.0000000000
     10913        95  OSM       H12A          -31.4440572986       36.7231833073       22.1439328839  MEMB      95              0.0000000000
     10914        95  OSM       H12B          -29.8499777986       36.3162964008       21.7368532324  MEMB      95              0.0000000000
     10915        95  OSM       C11           -30.7018356419       37.2409968049       20.1667625213  MEMB      95              0.0000000000
     10916        95  OSM       H11A          -31.1482159635       38.1979522798       19.9067120151  MEMB      95              0.0000000000
     10917        95  OSM       H11B          -31.3739707134       36.3971324092       19.8312675744  MEMB      95              0.0000000000
     10918        95  OSM       P             -28.8662063606       35.7698952578       19.4724927597  MEMB      95              0.0000000000
     10919        95  OSM       O13           -28.2504941706       35.6702539462       20.8107205349  MEMB      95              0.0000000000
     10920        95  OSM       O14           -29.8900643449       34.7648048280       19.1762236119  MEMB      95              0.0000000000
     10921        95  OSM       O11           -27.8063333084       35.7816591972       18.2967567473  MEMB      95              0.0000000000
     10922        95  OSM       O12           -29.4365858151       37.2152464330       19.5152264895  MEMB      95              0.0000000000
     10923        95  OSM       C1S           -28.2509931865       36.2595808013       17.0076400670  MEMB      95              0.0000000000
     10924        95  OSM       H1S           -27.3525180798       36.6140392686       16.4426648725  MEMB      95              0.0000000000
     10925        95  OSM       H1T           -28.9427651542       37.1155090969       17.0815067860  MEMB      95              0.0000000000
     10926        95  OSM       NF            -30.2750421646       34.9083072384       16.1936881993  MEMB      95              0.0000000000
     10927        95  OSM       HNF           -30.4937228304       33.9405098118       16.2645962756  MEMB      95              0.0000000000
     10928        95  OSM       C2S           -28.8987773270       35.1914388919       16.0475561293  MEMB      95              0.0000000000
     10929        95  OSM       H2S           -28.7575117369       35.5921481137       15.0136387320  MEMB      95              0.0000000000
     10930        95  OSM       C3S           -28.1989203680       33.8904131455       16.1479259089  MEMB      95              0.0000000000
     10931        95  OSM       H3S           -28.5387852486       33.3086624386       17.0349659177  MEMB      95              0.0000000000
     10932        95  OSM       O3            -26.8497684897       34.1660749181       16.3415625354  MEMB      95              0.0000000000
     10933        95  OSM       HO3           -26.6862560254       35.0976794227       16.4609047540  MEMB      95              0.0000000000
     10934        95  OSM       C4S           -28.5557011740       33.0551489244       14.9282755946  MEMB      95              0.0000000000
     10935        95  OSM       H4S           -29.2916627203       32.2609546656       15.0685869829  MEMB      95              0.0000000000
     10936        95  OSM       C5S           -28.1050370794       33.2032520255       13.6886114085  MEMB      95              0.0000000000
     10937        95  OSM       H5S           -27.2535632266       33.8769293483       13.5613410846  MEMB      95              0.0000000000
     10938        95  OSM       C6S           -28.5260989696       32.3049495920       12.5587857703  MEMB      95              0.0000000000
     10939        95  OSM       H6S           -28.9460732939       31.3715960663       12.9592320875  MEMB      95              0.0000000000
     10940        95  OSM       H6T           -27.7392218691       31.7912382109       12.0132389123  MEMB      95              0.0000000000
     10941        95  OSM       C7S           -29.4326111462       33.0067042438       11.5500419718  MEMB      95              0.0000000000
     10942        95  OSM       H7S           -28.9444292935       33.9048049513       11.1020024894  MEMB      95              0.0000000000
     10943        95  OSM       H7T           -30.3298430715       33.3337585250       12.1157152964  MEMB      95              0.0000000000
     10944        95  OSM       C8S           -29.8439841356       32.0102884444       10.4631257334  MEMB      95              0.0000000000
     10945        95  OSM       H8S           -30.3262669730       31.1615671669       11.0130839652  MEMB      95              0.0000000000
     10946        95  OSM       H8T           -28.9669414452       31.6282017991        9.9140892304  MEMB      95              0.0000000000
     10947        95  OSM       C9S           -30.8163518813       32.5097961381        9.4041189421  MEMB      95              0.0000000000
     10948        95  OSM       H9S           -31.7173535495       32.7702641113        9.9925760434  MEMB      95              0.0000000000
     10949        95  OSM       H9T           -31.0988826663       31.6858895550        8.7218970307  MEMB      95              0.0000000000
     10950        95  OSM       C10S          -30.3806681583       33.5291055464        8.3624158918  MEMB      95              0.0000000000
     10951        95  OSM       H10S          -29.3974955019       33.2517705688        7.9728232576  MEMB      95              0.0000000000
     10952        95  OSM       H10T          -30.2025792788       34.4337213820        8.9675862362  MEMB      95              0.0000000000
     10953        95  OSM       C11S          -31.4301889713       33.6409464244        7.1902259382  MEMB      95              0.0000000000
     10954        95  OSM       H11S          -32.4090381719       34.0868933648        7.4718607138  MEMB      95              0.0000000000
     10955        95  OSM       H11T          -31.7809261057       32.6515293224        6.8826674746  MEMB      95              0.0000000000
     10956        95  OSM       C12S          -31.0783402702       34.5147088958        5.9808386769  MEMB      95              0.0000000000
     10957        95  OSM       H12S          -30.7658189498       35.5159797887        6.2947721278  MEMB      95              0.0000000000
     10958        95  OSM       H12T          -32.0446179722       34.6847992871        5.4455014414  MEMB      95              0.0000000000
     10959        95  OSM       C13S          -30.0443589216       33.9451637716        5.0176849886  MEMB      95              0.0000000000
     10960        95  OSM       H13S          -29.0188043562       34.0457443031        5.4120621328  MEMB      95              0.0000000000
     10961        95  OSM       H13T          -30.1288125145       34.5701857984        4.1019652014  MEMB      95              0.0000000000
     10962        95  OSM       C14S          -30.2642026955       32.4632290587        4.7211820772  MEMB      95              0.0000000000
     10963        95  OSM       H14S          -31.3278536811       32.3677483587        4.5748719766  MEMB      95              0.0000000000
     10964        95  OSM       H14T          -30.0696910975       31.8302679741        5.6096653083  MEMB      95              0.0000000000
     10965        95  OSM       C15S          -29.5880245623       31.9115999956        3.4619474324  MEMB      95              0.0000000000
     10966        95  OSM       H15S          -29.9361937176       30.8625173020        3.3178725783  MEMB      95              0.0000000000
     10967        95  OSM       H15T          -28.4892413784       31.8834596216        3.6123235506  MEMB      95              0.0000000000
     10968        95  OSM       C16S          -29.8758597178       32.7026776750        2.1758732306  MEMB      95              0.0000000000
     10969        95  OSM       H16S          -29.6852888195       33.7855128767        2.3194070775  MEMB      95              0.0000000000
     10970        95  OSM       H16T          -30.9441165267       32.5929526887        1.8839802054  MEMB      95              0.0000000000
     10971        95  OSM       C17S          -28.9688833016       32.2626124408        1.0224699646  MEMB      95              0.0000000000
     10972        95  OSM       H17S          -29.3646198797       32.7369881706        0.0966289409  MEMB      95              0.0000000000
     10973        95  OSM       H17T          -29.0553201444       31.1598201661        0.9021818199  MEMB      95              0.0000000000
     10974        95  OSM       C18S          -27.4959966962       32.6705367429        1.1871975250  MEMB      95              0.0000000000
     10975        95  OSM       H18S          -27.3973320848       33.6453850487        1.6867560478  MEMB      95              0.0000000000
     10976        95  OSM       H18T          -27.0082818680       32.7823857145        0.2023535744  MEMB      95              0.0000000000
     10977        95  OSM       H18U          -26.9183979662       31.9469309855        1.7965801326  MEMB      95              0.0000000000
     10978        95  OSM       C1F           -31.1881303087       35.8366252071       16.1106900257  MEMB      95              0.0000000000
     10979        95  OSM       OF            -30.9363117758       37.0069590232       15.8855265749  MEMB      95              0.0000000000
     10980        95  OSM       C2F           -32.5421460921       35.2946355082       16.1861248215  MEMB      95              0.0000000000
     10981        95  OSM       H2F           -32.7368658568       34.6971221189       17.0978799026  MEMB      95              0.0000000000
     10982        95  OSM       H2G           -32.6067715861       34.4954017650       15.4658161495  MEMB      95              0.0000000000
     10983        95  OSM       C3F           -33.6269592135       36.3247489392       15.9368161237  MEMB      95              0.0000000000
     10984        95  OSM       H3F           -33.6285292539       36.9868522101       16.8229769694  MEMB      95              0.0000000000
     10985        95  OSM       H3G           -34.5198053503       35.6727229415       15.9088307819  MEMB      95              0.0000000000
     10986        95  OSM       C4F           -33.7067404231       37.3103498098       14.7563700052  MEMB      95              0.0000000000
     10987        95  OSM       H4F           -32.9896783198       38.1368827403       14.8460140881  MEMB      95              0.0000000000
     10988        95  OSM       H4G           -34.7521465905       37.5551432678       14.6876874786  MEMB      95              0.0000000000
     10989        95  OSM       C5F           -33.6389400410       36.9327329281       13.3471997994  MEMB      95              0.0000000000
     10990        95  OSM       H5F           -34.5089632168       36.2570663543       13.0695619212  MEMB      95              0.0000000000
     10991        95  OSM       H5G           -32.6206699578       36.4763709991       13.3797885565  MEMB      95              0.0000000000
     10992        95  OSM       C6F           -33.8251749010       37.8455944590       12.2646948931  MEMB      95              0.0000000000
     10993        95  OSM       H6F           -33.3533926492       38.7611764784       12.3143425749  MEMB      95              0.0000000000
     10994        95  OSM       H6G           -34.7862458359       37.6861671971       11.8328833637  MEMB      95              0.0000000000
     10995        95  OSM       C7F           -33.1392502065       37.3620410366       11.1202883476  MEMB      95              0.0000000000
     10996        95  OSM       H7F           -33.8254228043       36.4652093889       11.0033379149  MEMB      95              0.0000000000
     10997        95  OSM       H7G           -32.0511248651       37.1722013945       11.3152449252  MEMB      95              0.0000000000
     10998        95  OSM       C8F           -33.4028587801       37.8894729045        9.7639996346  MEMB      95              0.0000000000
     10999        95  OSM       H8F           -34.3707195873       38.0765097038        9.5201057140  MEMB      95              0.0000000000
     11000        95  OSM       H8G           -33.8031478840       37.0087706243        9.3141771669  MEMB      95              0.0000000000
     11001        95  OSM       C9F           -32.2678591885       38.8713820946        9.9343766198  MEMB      95              0.0000000000
     11002        95  OSM       H9F           -32.7439142897       39.3110326071       10.7202428930  MEMB      95              0.0000000000
     11003        95  OSM       C10F          -31.2766868003       39.5926546690        9.1710692121  MEMB      95              0.0000000000
     11004        95  OSM       H10F          -31.1693423604       40.5420504987        9.2034260558  MEMB      95              0.0000000000
     11005        95  OSM       C11F          -30.4454953172       38.7690150776        8.2032499321  MEMB      95              0.0000000000
     11006        95  OSM       H11F          -30.2319492951       37.8340002144        8.3300726746  MEMB      95              0.0000000000
     11007        95  OSM       H11G          -29.6828558003       39.5268240623        8.4420152843  MEMB      95              0.0000000000
     11008        95  OSM       C12F          -30.7500688675       39.0654172065        6.6666979127  MEMB      95              0.0000000000
     11009        95  OSM       H12F          -30.8294809958       40.1592718413        6.7105276644  MEMB      95              0.0000000000
     11010        95  OSM       H12G          -31.6707840433       38.9163945179        6.1795656254  MEMB      95              0.0000000000
     11011        95  OSM       C13F          -29.8872828312       38.0688165003        5.8460393166  MEMB      95              0.0000000000
     11012        95  OSM       H13F          -29.7793874963       36.9987375422        5.9265913511  MEMB      95              0.0000000000
     11013        95  OSM       H13G          -29.1869121941       38.0013749302        6.6777651159  MEMB      95              0.0000000000
     11014        95  OSM       C14F          -29.4920355609       38.4771852172        4.3931802023  MEMB      95              0.0000000000
     11015        95  OSM       H14F          -28.5436057184       38.2594059243        3.8899212968  MEMB      95              0.0000000000
     11016        95  OSM       H14G          -28.9795062195       39.4016095544        4.3121713019  MEMB      95              0.0000000000
     11017        95  OSM       C15F          -30.6063807880       38.9396362042        3.6433844088  MEMB      95              0.0000000000
     11018        95  OSM       H15F          -31.0723772187       39.8339590356        4.1459750848  MEMB      95              0.0000000000
     11019        95  OSM       H15G          -31.1623759616       38.0074324502        3.7651078987  MEMB      95              0.0000000000
     11020        95  OSM       C16F          -30.1087751496       39.1837970340        2.2822218619  MEMB      95              0.0000000000
     11021        95  OSM       H16F          -29.4135892173       38.4819743814        1.7905723498  MEMB      95              0.0000000000
     11022        95  OSM       H16G          -29.4995830117       40.0248497941        2.1241501431  MEMB      95              0.0000000000
     11023        95  OSM       C17F          -31.0994271904       39.9241234841        1.5782440515  MEMB      95              0.0000000000
     11024        95  OSM       H17F          -31.2434306136       40.9675202878        1.9849612556  MEMB      95              0.0000000000
     11025        95  OSM       H17G          -31.9799310780       39.2748205782        1.6999581365  MEMB      95              0.0000000000
     11026        95  OSM       C18F          -30.4401971972       39.9419711559        0.2704310462  MEMB      95              0.0000000000
     11027        95  OSM       H18F          -29.4895152770       40.3713750909       -0.0018238312  MEMB      95              0.0000000000
     11028        95  OSM       H18G          -31.0160292960       40.7177386372       -0.1583538185  MEMB      95              0.0000000000
     11029        95  OSM       H18H          -30.4246742843       38.9473542491       -0.2084162414  MEMB      95              0.0000000000
     11030        96  OSM       N             -37.3709311679      -34.7048380116       22.1556221113  MEMB      96              0.0000000000
     11031        96  OSM       C15           -37.4982942031      -33.8580044830       23.2624583272  MEMB      96              0.0000000000
     11032        96  OSM       H15A          -37.7600988350      -34.4727014748       24.1197807200  MEMB      96              0.0000000000
     11033        96  OSM       H15B          -38.0407362703      -32.9353125058       23.1727845036  MEMB      96              0.0000000000
     11034        96  OSM       H15C          -36.4452145023      -33.5889405857       23.4019373999  MEMB      96              0.0000000000
     11035        96  OSM       C14           -36.5468972468      -34.0108557041       21.1075913769  MEMB      96              0.0000000000
     11036        96  OSM       H14A          -35.4693606854      -33.9907706004       21.2522434025  MEMB      96              0.0000000000
     11037        96  OSM       H14B          -36.8206042572      -32.9658835395       21.1318249414  MEMB      96              0.0000000000
     11038        96  OSM       H14C          -36.7422250986      -34.4607198555       20.1428364543  MEMB      96              0.0000000000
     11039        96  OSM       C13           -36.8096931320      -35.9241032563       22.6529736446  MEMB      96              0.0000000000
     11040        96  OSM       H13A          -37.3042394147      -36.5684051757       23.3962504337  MEMB      96              0.0000000000
     11041        96  OSM       H13B          -35.9811622847      -35.6693487490       23.2624004063  MEMB      96              0.0000000000
     11042        96  OSM       H13C          -36.5047725559      -36.5847409050       21.8245697885  MEMB      96              0.0000000000
     11043        96  OSM       C12           -38.7095512018      -35.0554157519       21.7696775797  MEMB      96              0.0000000000
     11044        96  OSM       H12A          -39.2966826211      -34.1609811187       21.6697932089  MEMB      96              0.0000000000
     11045        96  OSM       H12B          -39.1276586525      -35.6836899895       22.5667485353  MEMB      96              0.0000000000
     11046        96  OSM       C11           -38.7316680497      -35.8367301853       20.4953752020  MEMB      96              0.0000000000
     11047        96  OSM       H11A          -38.4274154932      -35.2679557689       19.6043987335  MEMB      96              0.0000000000
     11048        96  OSM       H11B          -39.8386507817      -35.9522524843       20.4567448000  MEMB      96              0.0000000000
     11049        96  OSM       P             -37.2520951496      -37.9792891915       19.7013505900  MEMB      96              0.0000000000
     11050        96  OSM       O13           -36.2719561966      -38.6480197219       20.5532367739  MEMB      96              0.0000000000
     11051        96  OSM       O14           -38.0896691197      -38.7244051610       18.7667266433  MEMB      96              0.0000000000
     11052        96  OSM       O11           -36.5865655345      -36.8339707544       18.9294727545  MEMB      96              0.0000000000
     11053        96  OSM       O12           -38.0291887159      -37.0642459729       20.6591917931  MEMB      96              0.0000000000
     11054        96  OSM       C1S           -36.0403314848      -37.2219432810       17.6992975000  MEMB      96              0.0000000000
     11055        96  OSM       H1S           -35.9382438118      -38.3174318078       17.4814413667  MEMB      96              0.0000000000
     11056        96  OSM       H1T           -35.0369030027      -36.8499932590       17.8865015501  MEMB      96              0.0000000000
     11057        96  OSM       NF            -36.7092409604      -37.1050313176       15.2413649478  MEMB      96              0.0000000000
     11058        96  OSM       HNF           -36.3182567920      -36.5306918491       14.5332417394  MEMB      96              0.0000000000
     11059        96  OSM       C2S           -36.7966753019      -36.5094144871       16.5604780106  MEMB      96              0.0000000000
     11060        96  OSM       H2S           -37.8859713207      -36.4954858595       16.7745359176  MEMB      96              0.0000000000
     11061        96  OSM       C3S           -36.2166726196      -35.0882217981       16.5824521837  MEMB      96              0.0000000000
     11062        96  OSM       H3S           -35.1078220634      -35.0769115498       16.5222634920  MEMB      96              0.0000000000
     11063        96  OSM       O3            -36.6195209830      -34.3082187134       17.6935959327  MEMB      96              0.0000000000
     11064        96  OSM       HO3           -37.0463876244      -34.9920331501       18.2237900435  MEMB      96              0.0000000000
     11065        96  OSM       C4S           -36.7061069919      -34.4503242357       15.3952981778  MEMB      96              0.0000000000
     11066        96  OSM       H4S           -37.7714145218      -34.5917805820       15.3232892401  MEMB      96              0.0000000000
     11067        96  OSM       C5S           -36.0119142765      -33.9551516457       14.3640191166  MEMB      96              0.0000000000
     11068        96  OSM       H5S           -34.9476893461      -34.0882348942       14.3949174374  MEMB      96              0.0000000000
     11069        96  OSM       C6S           -36.4526859727      -33.2928238108       13.1194528223  MEMB      96              0.0000000000
     11070        96  OSM       H6S           -35.9656808150      -32.3131348652       12.9618253601  MEMB      96              0.0000000000
     11071        96  OSM       H6T           -37.2305453085      -33.0669073831       13.6876929348  MEMB      96              0.0000000000
     11072        96  OSM       C7S           -37.4365360136      -33.7384957228       12.0204985074  MEMB      96              0.0000000000
     11073        96  OSM       H7S           -37.7941238384      -32.9209784527       11.3881739105  MEMB      96              0.0000000000
     11074        96  OSM       H7T           -38.2863403764      -34.3025601039       12.4337844793  MEMB      96              0.0000000000
     11075        96  OSM       C8S           -36.5980418866      -34.5638135308       11.2123723790  MEMB      96              0.0000000000
     11076        96  OSM       H8S           -36.3869525721      -35.2553802806       12.0364415324  MEMB      96              0.0000000000
     11077        96  OSM       H8T           -35.8748653745      -33.8124410526       10.9712377914  MEMB      96              0.0000000000
     11078        96  OSM       C9S           -37.0459713199      -35.2731864945       10.0064776875  MEMB      96              0.0000000000
     11079        96  OSM       H9S           -37.4472757931      -36.2426122682       10.3452772688  MEMB      96              0.0000000000
     11080        96  OSM       H9T           -36.1685654529      -35.5227043078        9.3990175564  MEMB      96              0.0000000000
     11081        96  OSM       C10S          -37.9882649334      -34.4443057344        9.1723581099  MEMB      96              0.0000000000
     11082        96  OSM       H10S          -37.5990178575      -33.4099127848        8.9984089432  MEMB      96              0.0000000000
     11083        96  OSM       H10T          -38.9322634736      -34.3853831271        9.7493503353  MEMB      96              0.0000000000
     11084        96  OSM       C11S          -38.1449461905      -35.1458025394        7.8422845371  MEMB      96              0.0000000000
     11085        96  OSM       H11S          -38.5622510171      -36.1626676419        7.9851407172  MEMB      96              0.0000000000
     11086        96  OSM       H11T          -37.1156253846      -35.2488097650        7.4137302145  MEMB      96              0.0000000000
     11087        96  OSM       C12S          -39.0363993818      -34.4466364162        6.8419577285  MEMB      96              0.0000000000
     11088        96  OSM       H12S          -38.8867382638      -33.3618619678        6.8797422499  MEMB      96              0.0000000000
     11089        96  OSM       H12T          -40.1188370325      -34.6668612036        6.9906145126  MEMB      96              0.0000000000
     11090        96  OSM       C13S          -38.6326481422      -34.9004542476        5.4807950104  MEMB      96              0.0000000000
     11091        96  OSM       H13S          -37.5435422143      -34.8482078590        5.2584802144  MEMB      96              0.0000000000
     11092        96  OSM       H13T          -39.1304283985      -34.3461367389        4.7098513324  MEMB      96              0.0000000000
     11093        96  OSM       C14S          -39.1630434840      -36.2349023566        5.1935193693  MEMB      96              0.0000000000
     11094        96  OSM       H14S          -39.2348810282      -36.9114263253        6.0699965324  MEMB      96              0.0000000000
     11095        96  OSM       H14T          -38.2305312260      -36.5220566160        4.6490533474  MEMB      96              0.0000000000
     11096        96  OSM       C15S          -40.4636975821      -36.1146861737        4.3649338541  MEMB      96              0.0000000000
     11097        96  OSM       H15S          -40.4419548651      -35.5669169875        3.4000450903  MEMB      96              0.0000000000
     11098        96  OSM       H15T          -41.3430435333      -35.7510353405        4.9588325914  MEMB      96              0.0000000000
     11099        96  OSM       C16S          -40.7347006608      -37.4500771725        3.8641210944  MEMB      96              0.0000000000
     11100        96  OSM       H16S          -41.4265486357      -37.5233853864        3.0003237115  MEMB      96              0.0000000000
     11101        96  OSM       H16T          -41.6543611381      -37.5135644710        4.4654680362  MEMB      96              0.0000000000
     11102        96  OSM       C17S          -39.2986114127      -38.1683710619        3.7944947484  MEMB      96              0.0000000000
     11103        96  OSM       H17S          -39.5233234334      -39.1957714341        3.6527827177  MEMB      96              0.0000000000
     11104        96  OSM       H17T          -38.4728683333      -38.9357310640        3.7397834334  MEMB      96              0.0000000000
     11105        96  OSM       C18S          -38.9042469683      -37.4962636982        2.5599596282  MEMB      96              0.0000000000
     11106        96  OSM       H18S          -38.3649596464      -36.5697096160        2.5973379915  MEMB      96              0.0000000000
     11107        96  OSM       H18T          -39.8556663607      -37.4318183594        1.9743632471  MEMB      96              0.0000000000
     11108        96  OSM       H18U          -38.1085378235      -38.0794870692        2.0939114065  MEMB      96              0.0000000000
     11109        96  OSM       C1F           -37.1728460689      -38.2590784470       14.8817686695  MEMB      96              0.0000000000
     11110        96  OSM       OF            -37.6516361214      -39.0584637662       15.6610346286  MEMB      96              0.0000000000
     11111        96  OSM       C2F           -37.0317941201      -38.5105141864       13.4391222656  MEMB      96              0.0000000000
     11112        96  OSM       H2F           -36.4991560817      -37.7422018038       12.8563390915  MEMB      96              0.0000000000
     11113        96  OSM       H2G           -37.9567203344      -38.8840373438       12.9615590345  MEMB      96              0.0000000000
     11114        96  OSM       C3F           -36.1326123389      -39.6281067874       13.3087395299  MEMB      96              0.0000000000
     11115        96  OSM       H3F           -35.9889932432      -39.8735042618       12.2595783159  MEMB      96              0.0000000000
     11116        96  OSM       H3G           -36.6914642576      -40.4541172800       13.8452047445  MEMB      96              0.0000000000
     11117        96  OSM       C4F           -34.7585466555      -39.4940296348       13.8180477490  MEMB      96              0.0000000000
     11118        96  OSM       H4F           -34.4339126732      -40.4678880119       13.2952226511  MEMB      96              0.0000000000
     11119        96  OSM       H4G           -34.7979704176      -39.4577895240       14.9467208093  MEMB      96              0.0000000000
     11120        96  OSM       C5F           -33.4178940656      -39.2279725279       13.2624971718  MEMB      96              0.0000000000
     11121        96  OSM       H5F           -32.3995562326      -39.2581143319       13.6515599101  MEMB      96              0.0000000000
     11122        96  OSM       H5G           -33.6424121357      -38.4773928145       13.9625980452  MEMB      96              0.0000000000
     11123        96  OSM       C6F           -33.4079582069      -39.2082902728       11.7931249948  MEMB      96              0.0000000000
     11124        96  OSM       H6F           -34.4162907363      -38.8380997379       11.4389254831  MEMB      96              0.0000000000
     11125        96  OSM       H6G           -33.1689283165      -40.2203162364       11.5079968692  MEMB      96              0.0000000000
     11126        96  OSM       C7F           -32.2057513820      -38.5861634322       11.1409556079  MEMB      96              0.0000000000
     11127        96  OSM       H7F           -31.3163268014      -38.1572894588       11.6080297527  MEMB      96              0.0000000000
     11128        96  OSM       H7G           -32.6007340075      -37.9492264486       11.8648601156  MEMB      96              0.0000000000
     11129        96  OSM       C8F           -32.5372383826      -38.2604035025        9.6379356749  MEMB      96              0.0000000000
     11130        96  OSM       H8F           -33.6430483282      -38.2255026330        9.4878776059  MEMB      96              0.0000000000
     11131        96  OSM       H8G           -32.4810682316      -39.2118922119        9.2718151782  MEMB      96              0.0000000000
     11132        96  OSM       C9F           -31.7909269152      -37.3612387054        8.6298436027  MEMB      96              0.0000000000
     11133        96  OSM       H9F           -31.1302199887      -36.7900336137        9.3368239991  MEMB      96              0.0000000000
     11134        96  OSM       C10F          -32.3788573841      -36.5673001865        7.6379485661  MEMB      96              0.0000000000
     11135        96  OSM       H10F          -32.2929677267      -35.5110307360        7.6194390533  MEMB      96              0.0000000000
     11136        96  OSM       C11F          -33.7682826075      -36.2197759370        7.2063481520  MEMB      96              0.0000000000
     11137        96  OSM       H11F          -34.1713975068      -35.1700848220        7.4999854520  MEMB      96              0.0000000000
     11138        96  OSM       H11G          -34.5395300485      -36.8797338079        7.6221412998  MEMB      96              0.0000000000
     11139        96  OSM       C12F          -33.5303863025      -36.1443030622        5.8522412055  MEMB      96              0.0000000000
     11140        96  OSM       H12F          -32.6194376626      -36.5901606671        5.3847715938  MEMB      96              0.0000000000
     11141        96  OSM       H12G          -33.5514066107      -35.0496606804        5.5619162653  MEMB      96              0.0000000000
     11142        96  OSM       C13F          -34.7450995086      -36.9901562532        5.4420392895  MEMB      96              0.0000000000
     11143        96  OSM       H13F          -35.7007700987      -36.5511639643        5.8577435326  MEMB      96              0.0000000000
     11144        96  OSM       H13G          -34.6244048730      -38.0039293551        5.8761706646  MEMB      96              0.0000000000
     11145        96  OSM       C14F          -34.6811824958      -37.0116066238        3.9244994218  MEMB      96              0.0000000000
     11146        96  OSM       H14F          -34.7149907801      -36.0271618238        4.3727280033  MEMB      96              0.0000000000
     11147        96  OSM       H14G          -33.6689153899      -37.4919860377        3.7889229961  MEMB      96              0.0000000000
     11148        96  OSM       C15F          -34.7112225624      -35.7530675304        3.0055853512  MEMB      96              0.0000000000
     11149        96  OSM       H15F          -33.8611137895      -35.0166631279        3.1870723034  MEMB      96              0.0000000000
     11150        96  OSM       H15G          -35.6900409035      -35.1982539269        3.1857814623  MEMB      96              0.0000000000
     11151        96  OSM       C16F          -34.6782229423      -36.1565041334        1.5795717194  MEMB      96              0.0000000000
     11152        96  OSM       H16F          -35.3640444418      -36.9999884832        1.3743123380  MEMB      96              0.0000000000
     11153        96  OSM       H16G          -33.6336752437      -36.3880113998        1.2616578201  MEMB      96              0.0000000000
     11154        96  OSM       C17F          -35.3842711276      -35.1068820462        0.7999758099  MEMB      96              0.0000000000
     11155        96  OSM       H17F          -36.4037979262      -34.9113996065        1.1432256684  MEMB      96              0.0000000000
     11156        96  OSM       H17G          -35.4247426206      -35.4186355323       -0.2426908678  MEMB      96              0.0000000000
     11157        96  OSM       C18F          -34.8667861543      -33.7803102579        0.9704059839  MEMB      96              0.0000000000
     11158        96  OSM       H18F          -35.5786114352      -33.1609609628        1.5140978794  MEMB      96              0.0000000000
     11159        96  OSM       H18G          -34.7711727539      -33.0838869773        0.1376636866  MEMB      96              0.0000000000
     11160        96  OSM       H18H          -33.7990749230      -33.8202233247        1.3356811632  MEMB      96              0.0000000000
     11161        97  OSM       N              -0.0768228692        3.4562266920      -20.8493468901  MEMB      97              0.0000000000
     11162        97  OSM       C15            -0.2216262873        2.1690527698      -21.6045199551  MEMB      97              0.0000000000
     11163        97  OSM       H15A            0.6777100747        1.5651160994      -21.5433577321  MEMB      97              0.0000000000
     11164        97  OSM       H15B           -0.4155329029        2.4439614315      -22.6354359801  MEMB      97              0.0000000000
     11165        97  OSM       H15C           -1.0512005518        1.5601627098      -21.2557561764  MEMB      97              0.0000000000
     11166        97  OSM       C14            -0.1031444070        3.2410833437      -19.3735486395  MEMB      97              0.0000000000
     11167        97  OSM       H14A           -1.0862113856        2.9144275249      -19.0346405540  MEMB      97              0.0000000000
     11168        97  OSM       H14B            0.1405669194        4.1670643173      -18.8649794844  MEMB      97              0.0000000000
     11169        97  OSM       H14C            0.6340533299        2.5003271702      -19.0771234151  MEMB      97              0.0000000000
     11170        97  OSM       C13             1.2775150538        3.9468214500      -21.2023135656  MEMB      97              0.0000000000
     11171        97  OSM       H13A            1.3804004801        3.9699115267      -22.2802609617  MEMB      97              0.0000000000
     11172        97  OSM       H13B            2.0105939288        3.2500192384      -20.8248844492  MEMB      97              0.0000000000
     11173        97  OSM       H13C            1.4427888331        4.9256703050      -20.7667107369  MEMB      97              0.0000000000
     11174        97  OSM       C12            -1.0782275074        4.5143606404      -21.3077065105  MEMB      97              0.0000000000
     11175        97  OSM       H12A           -1.1049185292        4.4692615120      -22.3895257041  MEMB      97              0.0000000000
     11176        97  OSM       H12B           -0.7048906502        5.4981657475      -21.0411048220  MEMB      97              0.0000000000
     11177        97  OSM       C11            -2.5566712126        4.4665829755      -20.8697212185  MEMB      97              0.0000000000
     11178        97  OSM       H11A           -3.0616732664        5.2676988070      -21.4716651216  MEMB      97              0.0000000000
     11179        97  OSM       H11B           -2.6993596100        4.7293258254      -19.7947152520  MEMB      97              0.0000000000
     11180        97  OSM       P              -4.6519246795        2.9371627702      -21.2225275142  MEMB      97              0.0000000000
     11181        97  OSM       O13            -5.1572090967        3.9970950053      -22.1284796901  MEMB      97              0.0000000000
     11182        97  OSM       O14            -4.8156477503        1.5006260492      -21.5875825461  MEMB      97              0.0000000000
     11183        97  OSM       O11            -5.0052966167        3.2334908925      -19.6966213606  MEMB      97              0.0000000000
     11184        97  OSM       O12            -3.0755617623        3.1774416802      -21.1751744750  MEMB      97              0.0000000000
     11185        97  OSM       C1S            -4.9003707281        2.1838109716      -18.7296740627  MEMB      97              0.0000000000
     11186        97  OSM       H1S            -4.1330488887        1.4275440127      -19.0194979195  MEMB      97              0.0000000000
     11187        97  OSM       H1T            -5.8786080236        1.6567239261      -18.6269167338  MEMB      97              0.0000000000
     11188        97  OSM       NF             -4.4908231689        1.5526418688      -16.3889194245  MEMB      97              0.0000000000
     11189        97  OSM       HNF            -5.2738384515        1.4484003097      -15.7763052484  MEMB      97              0.0000000000
     11190        97  OSM       C2S            -4.5026863024        2.6994653282      -17.3116426481  MEMB      97              0.0000000000
     11191        97  OSM       H2S            -3.5122098329        3.1923028691      -17.3934310746  MEMB      97              0.0000000000
     11192        97  OSM       C3S            -5.4641368033        3.7946098786      -16.8196604999  MEMB      97              0.0000000000
     11193        97  OSM       H3S            -6.4071575864        3.2985082831      -16.9027504376  MEMB      97              0.0000000000
     11194        97  OSM       O3             -5.5521226561        4.9914785993      -17.5855102125  MEMB      97              0.0000000000
     11195        97  OSM       HO3            -5.0569504292        4.7511703986      -18.3760599375  MEMB      97              0.0000000000
     11196        97  OSM       C4S            -5.0889237254        4.2053930976      -15.4070195234  MEMB      97              0.0000000000
     11197        97  OSM       H4S            -4.1558029797        4.7423675508      -15.3520310421  MEMB      97              0.0000000000
     11198        97  OSM       C5S            -5.6774836030        3.9323574379      -14.2318499240  MEMB      97              0.0000000000
     11199        97  OSM       H5S            -6.4734564432        3.2516645732      -14.1590366861  MEMB      97              0.0000000000
     11200        97  OSM       C6S            -5.4209199054        4.2794867739      -12.8258066046  MEMB      97              0.0000000000
     11201        97  OSM       H6S            -6.3867936694        4.2923324340      -12.2580727647  MEMB      97              0.0000000000
     11202        97  OSM       H6T            -5.0852192864        5.3166382927      -12.8036633107  MEMB      97              0.0000000000
     11203        97  OSM       C7S            -4.4879690629        3.2838742023      -12.1567633302  MEMB      97              0.0000000000
     11204        97  OSM       H7S            -3.4692407630        3.4775306987      -12.5452001617  MEMB      97              0.0000000000
     11205        97  OSM       H7T            -4.7264626442        2.2185132484      -12.3956309779  MEMB      97              0.0000000000
     11206        97  OSM       C8S            -4.5386897563        3.4595576356      -10.6409354163  MEMB      97              0.0000000000
     11207        97  OSM       H8S            -5.5457984534        3.2185634008      -10.2568116655  MEMB      97              0.0000000000
     11208        97  OSM       H8T            -4.3943484332        4.5230999768      -10.3725072576  MEMB      97              0.0000000000
     11209        97  OSM       C9S            -3.5432532005        2.5518161531       -9.9337163605  MEMB      97              0.0000000000
     11210        97  OSM       H9S            -3.5695321016        1.5410108949      -10.3923433761  MEMB      97              0.0000000000
     11211        97  OSM       H9T            -3.8369467265        2.4277028232       -8.8684711452  MEMB      97              0.0000000000
     11212        97  OSM       C10S           -2.1031265567        3.0636498567       -9.9830909545  MEMB      97              0.0000000000
     11213        97  OSM       H10S           -1.7825508177        3.3197130027      -11.0162072023  MEMB      97              0.0000000000
     11214        97  OSM       H10T           -1.5134569536        2.1642010176       -9.7048243172  MEMB      97              0.0000000000
     11215        97  OSM       C11S           -1.8763834602        4.2410868802       -9.0080075533  MEMB      97              0.0000000000
     11216        97  OSM       H11S           -2.4335941393        4.0798232419       -8.0579685666  MEMB      97              0.0000000000
     11217        97  OSM       H11T           -2.2408890910        5.1866752255       -9.4561777993  MEMB      97              0.0000000000
     11218        97  OSM       C12S           -0.4362530810        4.4125475455       -8.5720994673  MEMB      97              0.0000000000
     11219        97  OSM       H12S           -0.2888108145        5.3069752843       -7.9223832113  MEMB      97              0.0000000000
     11220        97  OSM       H12T            0.1843697185        4.5597617083       -9.4890762060  MEMB      97              0.0000000000
     11221        97  OSM       C13S            0.0428606957        3.1560852840       -7.8516351928  MEMB      97              0.0000000000
     11222        97  OSM       H13S            1.0275861934        3.3108679125       -7.3698528604  MEMB      97              0.0000000000
     11223        97  OSM       H13T            0.1618060781        2.3695807347       -8.6277141931  MEMB      97              0.0000000000
     11224        97  OSM       C14S           -0.7279421199        2.6302862967       -6.6692714243  MEMB      97              0.0000000000
     11225        97  OSM       H14S           -1.6856451896        2.1712068875       -6.9845770207  MEMB      97              0.0000000000
     11226        97  OSM       H14T           -0.9378178782        3.4239487893       -5.9157769247  MEMB      97              0.0000000000
     11227        97  OSM       C15S            0.1792394046        1.5630526458       -6.0633397038  MEMB      97              0.0000000000
     11228        97  OSM       H15S            1.1988531422        1.9821098239       -5.8758278807  MEMB      97              0.0000000000
     11229        97  OSM       H15T            0.2877336480        0.7471831342       -6.8092408417  MEMB      97              0.0000000000
     11230        97  OSM       C16S           -0.4158882042        1.0799026000       -4.7640195119  MEMB      97              0.0000000000
     11231        97  OSM       H16S           -1.4875515312        0.8246737809       -4.9314230252  MEMB      97              0.0000000000
     11232        97  OSM       H16T           -0.3685136933        1.9502331164       -4.0668535319  MEMB      97              0.0000000000
     11233        97  OSM       C17S            0.3011722762       -0.1189563964       -4.1552239013  MEMB      97              0.0000000000
     11234        97  OSM       H17S            1.4015516848       -0.0406509920       -4.3121970307  MEMB      97              0.0000000000
     11235        97  OSM       H17T           -0.0364961713       -1.0520286948       -4.6636264479  MEMB      97              0.0000000000
     11236        97  OSM       C18S           -0.0041490309       -0.1855812417       -2.6621210173  MEMB      97              0.0000000000
     11237        97  OSM       H18S            0.3269410051       -1.1507773508       -2.2261322915  MEMB      97              0.0000000000
     11238        97  OSM       H18T           -1.0960783938       -0.0694293927       -2.4927949066  MEMB      97              0.0000000000
     11239        97  OSM       H18U            0.5008410583        0.6573266706       -2.1409827005  MEMB      97              0.0000000000
     11240        97  OSM       C1F            -3.5878731416        0.5856313145      -16.5277167127  MEMB      97              0.0000000000
     11241        97  OSM       OF             -2.5917838208        0.7963409966      -17.2064693966  MEMB      97              0.0000000000
     11242        97  OSM       C2F            -3.8642187710       -0.7525445102      -15.8992076859  MEMB      97              0.0000000000
     11243        97  OSM       H2F            -4.1214188093       -1.4850279881      -16.6921136650  MEMB      97              0.0000000000
     11244        97  OSM       H2G            -4.7173282129       -0.7158816148      -15.1854915506  MEMB      97              0.0000000000
     11245        97  OSM       C3F            -2.6302484559       -1.2486650438      -15.1275149462  MEMB      97              0.0000000000
     11246        97  OSM       H3F            -1.7188880653       -1.2346478885      -15.7716407348  MEMB      97              0.0000000000
     11247        97  OSM       H3G            -2.8490859893       -2.2876053031      -14.8098217371  MEMB      97              0.0000000000
     11248        97  OSM       C4F            -2.3824038417       -0.3837915969      -13.8922608015  MEMB      97              0.0000000000
     11249        97  OSM       H4F            -3.3767860962       -0.1279807936      -13.4635947048  MEMB      97              0.0000000000
     11250        97  OSM       H4G            -1.8690402775        0.5343513505      -14.2473832265  MEMB      97              0.0000000000
     11251        97  OSM       C5F            -1.4688266908       -0.9771888516      -12.8296320899  MEMB      97              0.0000000000
     11252        97  OSM       H5F            -0.9278071192       -0.1731520312      -12.2846263454  MEMB      97              0.0000000000
     11253        97  OSM       H5G            -0.7259177972       -1.6548724633      -13.3120182698  MEMB      97              0.0000000000
     11254        97  OSM       C6F            -2.1934522503       -1.8160870562      -11.8144385845  MEMB      97              0.0000000000
     11255        97  OSM       H6F            -1.3842887411       -2.2372273205      -11.1638600866  MEMB      97              0.0000000000
     11256        97  OSM       H6G            -2.6906966790       -2.6282492798      -12.3950046664  MEMB      97              0.0000000000
     11257        97  OSM       C7F            -3.2356392990       -1.1757784055      -10.8990982804  MEMB      97              0.0000000000
     11258        97  OSM       H7F            -4.0662417480       -0.7717285992      -11.4983759107  MEMB      97              0.0000000000
     11259        97  OSM       H7G            -2.7710951419       -0.3620692987      -10.3141302904  MEMB      97              0.0000000000
     11260        97  OSM       C8F            -3.8697265914       -2.1155998515       -9.8978868274  MEMB      97              0.0000000000
     11261        97  OSM       H8F            -4.0803209431       -3.1265337083      -10.3436197891  MEMB      97              0.0000000000
     11262        97  OSM       H8G            -4.8246186331       -1.7670854457       -9.5713173322  MEMB      97              0.0000000000
     11263        97  OSM       C9F            -3.0974691722       -2.1428801724       -8.6434478197  MEMB      97              0.0000000000
     11264        97  OSM       H9F            -2.4337574431       -2.9414515670       -8.6986316553  MEMB      97              0.0000000000
     11265        97  OSM       C10F           -3.3196418697       -1.6670407958       -7.4334622120  MEMB      97              0.0000000000
     11266        97  OSM       H10F           -2.8228642051       -2.1766414281       -6.5885381949  MEMB      97              0.0000000000
     11267        97  OSM       C11F           -4.5359384450       -0.9067448611       -7.1066594507  MEMB      97              0.0000000000
     11268        97  OSM       H11F           -5.1770638860       -1.5424157855       -6.5452977541  MEMB      97              0.0000000000
     11269        97  OSM       H11G           -5.1839362220       -0.6709786974       -7.9689369389  MEMB      97              0.0000000000
     11270        97  OSM       C12F           -4.1591345860        0.3170639072       -6.3124101043  MEMB      97              0.0000000000
     11271        97  OSM       H12F           -3.4205110365        0.9146211128       -6.8917108703  MEMB      97              0.0000000000
     11272        97  OSM       H12G           -3.6890944781        0.0595472220       -5.3355635992  MEMB      97              0.0000000000
     11273        97  OSM       C13F           -5.3832667450        1.1668693149       -6.0603172359  MEMB      97              0.0000000000
     11274        97  OSM       H13F           -6.0620753678        0.6562441625       -5.3412010106  MEMB      97              0.0000000000
     11275        97  OSM       H13G           -5.9467270617        1.2909712545       -7.0151356544  MEMB      97              0.0000000000
     11276        97  OSM       C14F           -4.9312901640        2.5036221643       -5.5051696762  MEMB      97              0.0000000000
     11277        97  OSM       H14F           -5.7388678845        3.2193394226       -5.7031897857  MEMB      97              0.0000000000
     11278        97  OSM       H14G           -4.0633675525        2.9206315659       -6.0529682713  MEMB      97              0.0000000000
     11279        97  OSM       C15F           -4.6183179407        2.4486280653       -4.0093548048  MEMB      97              0.0000000000
     11280        97  OSM       H15F           -3.7019722785        1.8617733047       -3.7781506675  MEMB      97              0.0000000000
     11281        97  OSM       H15G           -5.4662181337        1.9221998083       -3.5113614088  MEMB      97              0.0000000000
     11282        97  OSM       C16F           -4.4585461972        3.8720257852       -3.4791494395  MEMB      97              0.0000000000
     11283        97  OSM       H16F           -5.2040268615        4.0394166111       -2.6733959986  MEMB      97              0.0000000000
     11284        97  OSM       H16G           -4.6827697797        4.5957938068       -4.2991556403  MEMB      97              0.0000000000
     11285        97  OSM       C17F           -3.0663783663        4.2323931018       -2.9553319530  MEMB      97              0.0000000000
     11286        97  OSM       H17F           -3.0752435525        5.3473847297       -2.9011733436  MEMB      97              0.0000000000
     11287        97  OSM       H17G           -2.2445702840        3.9432701346       -3.6501536327  MEMB      97              0.0000000000
     11288        97  OSM       C18F           -2.7778742367        3.7114714486       -1.5503720209  MEMB      97              0.0000000000
     11289        97  OSM       H18F           -3.5808025598        4.0585731539       -0.8653237019  MEMB      97              0.0000000000
     11290        97  OSM       H18G           -1.7957174630        4.1171082001       -1.2212536326  MEMB      97              0.0000000000
     11291        97  OSM       H18H           -2.7404221472        2.6030104237       -1.4950583036  MEMB      97              0.0000000000
     11292        98  CHL1      C3              0.2610282434       -4.5864943154      -17.2896346109  MEMB      98              0.0000000000
     11293        98  CHL1      H3              0.6935327424       -3.6137804005      -16.9649938320  MEMB      98              0.0000000000
     11294        98  CHL1      O3              0.3521417605       -4.6897159928      -18.6962386992  MEMB      98              0.0000000000
     11295        98  CHL1      H3'             1.2695151699       -4.4927111076      -18.9056159307  MEMB      98              0.0000000000
     11296        98  CHL1      C4              1.1147717119       -5.6846999748      -16.6226454092  MEMB      98              0.0000000000
     11297        98  CHL1      H4A             0.8444263725       -6.6859237725      -17.0602604603  MEMB      98              0.0000000000
     11298        98  CHL1      H4B             2.1716568122       -5.6233405475      -16.8996078530  MEMB      98              0.0000000000
     11299        98  CHL1      C5              1.0116931427       -5.4788828241      -15.1119133906  MEMB      98              0.0000000000
     11300        98  CHL1      C6              2.0113897514       -5.3263639559      -14.2339057645  MEMB      98              0.0000000000
     11301        98  CHL1      H6              3.0466143202       -5.3711565699      -14.5728257213  MEMB      98              0.0000000000
     11302        98  CHL1      C7              1.8208799140       -5.1843518336      -12.7484716781  MEMB      98              0.0000000000
     11303        98  CHL1      H7A             2.6049890233       -5.7470650286      -12.2004282895  MEMB      98              0.0000000000
     11304        98  CHL1      H7B             1.8958668874       -4.1128970579      -12.4630613877  MEMB      98              0.0000000000
     11305        98  CHL1      C8              0.4414591518       -5.6052822546      -12.2275164381  MEMB      98              0.0000000000
     11306        98  CHL1      H8              0.4379852043       -6.7235377189      -12.2149075968  MEMB      98              0.0000000000
     11307        98  CHL1      C14             0.2271131878       -4.9240633101      -10.8735649146  MEMB      98              0.0000000000
     11308        98  CHL1      H14             0.0919499840       -3.8450609884      -11.0889070431  MEMB      98              0.0000000000
     11309        98  CHL1      C15             1.3096995584       -5.0930851300       -9.7892077472  MEMB      98              0.0000000000
     11310        98  CHL1      H15A            1.8328748721       -6.0706688193       -9.8510133920  MEMB      98              0.0000000000
     11311        98  CHL1      H15B            2.0382651155       -4.2833486736       -9.9536188176  MEMB      98              0.0000000000
     11312        98  CHL1      C16             0.5910958267       -4.9051312952       -8.4328154240  MEMB      98              0.0000000000
     11313        98  CHL1      H16A            0.7615296459       -5.7416671286       -7.7258710945  MEMB      98              0.0000000000
     11314        98  CHL1      H16B            0.9054161004       -3.9417683927       -7.9902992609  MEMB      98              0.0000000000
     11315        98  CHL1      C17            -0.9086212550       -4.7136138651       -8.7592311829  MEMB      98              0.0000000000
     11316        98  CHL1      H17            -0.9019955255       -3.6497124977       -8.9726836255  MEMB      98              0.0000000000
     11317        98  CHL1      C13            -1.0267834459       -5.2300958358      -10.1793313167  MEMB      98              0.0000000000
     11318        98  CHL1      C18            -0.8012657198       -6.6255959518       -9.9557821765  MEMB      98              0.0000000000
     11319        98  CHL1      H18A           -0.3467086805       -7.0724157277       -9.0611276092  MEMB      98              0.0000000000
     11320        98  CHL1      H18B           -1.8161128780       -6.6116277280       -9.6205258541  MEMB      98              0.0000000000
     11321        98  CHL1      H18C           -0.7662888490       -7.2850060598      -10.8353671541  MEMB      98              0.0000000000
     11322        98  CHL1      C12            -2.2489242373       -4.8004139899      -11.0183772320  MEMB      98              0.0000000000
     11323        98  CHL1      H12A           -3.2674510248       -5.1584286750      -10.7487473628  MEMB      98              0.0000000000
     11324        98  CHL1      H12B           -2.3313126267       -3.7947047652      -10.7804106727  MEMB      98              0.0000000000
     11325        98  CHL1      C11            -2.0481528602       -5.0207193379      -12.5206162558  MEMB      98              0.0000000000
     11326        98  CHL1      H11A           -2.0491388411       -6.0336536431      -12.3001940146  MEMB      98              0.0000000000
     11327        98  CHL1      H11B           -2.9505081549       -4.8505294929      -13.1343665296  MEMB      98              0.0000000000
     11328        98  CHL1      C9             -0.6185061290       -5.0430599167      -13.1508534872  MEMB      98              0.0000000000
     11329        98  CHL1      H9             -0.4526698017       -3.9484954734      -13.1618038277  MEMB      98              0.0000000000
     11330        98  CHL1      C10            -0.3947958867       -5.4314278893      -14.6449217639  MEMB      98              0.0000000000
     11331        98  CHL1      C19            -0.3164302172       -6.9053348347      -15.0676499315  MEMB      98              0.0000000000
     11332        98  CHL1      H19A           -0.2147718674       -7.7490291902      -14.3518902347  MEMB      98              0.0000000000
     11333        98  CHL1      H19B           -1.3261038137       -6.5890022916      -15.0223402379  MEMB      98              0.0000000000
     11334        98  CHL1      H19C           -0.5889383724       -7.3480180859      -16.0519047631  MEMB      98              0.0000000000
     11335        98  CHL1      C1             -1.4707902311       -4.5973503191      -15.4324246474  MEMB      98              0.0000000000
     11336        98  CHL1      H1A            -2.5306410192       -4.9337706703      -15.2657836722  MEMB      98              0.0000000000
     11337        98  CHL1      H1B            -1.4025280669       -3.6025222894      -14.9707028959  MEMB      98              0.0000000000
     11338        98  CHL1      C2             -1.2358108112       -4.5643546048      -16.9301332108  MEMB      98              0.0000000000
     11339        98  CHL1      H2A            -1.6752960039       -3.6193456960      -17.3283503745  MEMB      98              0.0000000000
     11340        98  CHL1      H2B            -1.7782121335       -5.4301774604      -17.3753503466  MEMB      98              0.0000000000
     11341        98  CHL1      C20            -1.8992214601       -5.1022606479       -7.5945284317  MEMB      98              0.0000000000
     11342        98  CHL1      H20            -1.7478843090       -6.1816897142       -7.3900755177  MEMB      98              0.0000000000
     11343        98  CHL1      C21            -3.4523549972       -5.0139471512       -7.8726243208  MEMB      98              0.0000000000
     11344        98  CHL1      H21A           -3.9230086587       -4.1441209950       -8.2336012630  MEMB      98              0.0000000000
     11345        98  CHL1      H21B           -4.0813955236       -5.2327502100       -6.9926058594  MEMB      98              0.0000000000
     11346        98  CHL1      H21C           -3.7455275320       -5.5396517821       -8.7883388723  MEMB      98              0.0000000000
     11347        98  CHL1      C22            -1.5256338034       -4.4142605891       -6.2616725915  MEMB      98              0.0000000000
     11348        98  CHL1      H22A           -0.7683286059       -3.6272346188       -6.3942870311  MEMB      98              0.0000000000
     11349        98  CHL1      H22B           -2.4620969747       -3.9977461741       -5.8241448450  MEMB      98              0.0000000000
     11350        98  CHL1      C23            -1.0272648165       -5.3371436522       -5.1598315543  MEMB      98              0.0000000000
     11351        98  CHL1      H23A           -1.9722846372       -5.8343532894       -4.9803019589  MEMB      98              0.0000000000
     11352        98  CHL1      H23B           -0.2653176827       -6.0647465589       -5.4997636465  MEMB      98              0.0000000000
     11353        98  CHL1      C24            -0.6711172516       -4.6080522647       -3.8671567935  MEMB      98              0.0000000000
     11354        98  CHL1      H24A            0.1351290850       -3.9029903138       -4.1312495018  MEMB      98              0.0000000000
     11355        98  CHL1      H24B           -1.5846883742       -4.0427396008       -3.5629950178  MEMB      98              0.0000000000
     11356        98  CHL1      C25            -0.1564062652       -5.4565216321       -2.6848944592  MEMB      98              0.0000000000
     11357        98  CHL1      H25            -0.9001293277       -6.2295951847       -2.4992868172  MEMB      98              0.0000000000
     11358        98  CHL1      C26             1.2470682043       -6.0400972393       -2.9256367946  MEMB      98              0.0000000000
     11359        98  CHL1      H26A            1.9145498693       -5.1893133900       -3.1766419416  MEMB      98              0.0000000000
     11360        98  CHL1      H26B            1.6526652688       -6.5006973529       -2.0019036118  MEMB      98              0.0000000000
     11361        98  CHL1      H26C            1.3031124671       -6.7939949553       -3.7349126912  MEMB      98              0.0000000000
     11362        98  CHL1      C27            -0.0958575871       -4.6476326416       -1.3869281462  MEMB      98              0.0000000000
     11363        98  CHL1      H27A            0.6915203219       -3.8764056044       -1.4981882427  MEMB      98              0.0000000000
     11364        98  CHL1      H27B           -1.0705973864       -4.1613145744       -1.1724769787  MEMB      98              0.0000000000
     11365        98  CHL1      H27C            0.1747899461       -5.3182576904       -0.5399255251  MEMB      98              0.0000000000
     11366        99  SLPC      N               5.6669729603        1.1430934091      -19.3514496858  MEMB      99              0.0000000000
     11367        99  SLPC      C13             5.4172866708        2.5394184195      -19.7123572782  MEMB      99              0.0000000000
     11368        99  SLPC      H13A            4.4145065431        2.6212331908      -20.0733912618  MEMB      99              0.0000000000
     11369        99  SLPC      H13B            5.5682162680        3.1340441797      -18.8083387332  MEMB      99              0.0000000000
     11370        99  SLPC      H13C            6.1644381549        2.8500426664      -20.4297019361  MEMB      99              0.0000000000
     11371        99  SLPC      C14             7.0116242095        1.2224254164      -18.8985750336  MEMB      99              0.0000000000
     11372        99  SLPC      H14A            7.0530276504        1.8382643823      -17.9927207995  MEMB      99              0.0000000000
     11373        99  SLPC      H14B            7.1686300363        0.2231217083      -18.5274233154  MEMB      99              0.0000000000
     11374        99  SLPC      H14C            7.8221626150        1.4690604962      -19.5799315329  MEMB      99              0.0000000000
     11375        99  SLPC      C15             5.7698344724        0.1761655173      -20.4727998698  MEMB      99              0.0000000000
     11376        99  SLPC      H15A            6.1386368299       -0.7810208825      -20.1028006490  MEMB      99              0.0000000000
     11377        99  SLPC      H15B            4.8186341978        0.0629043965      -20.9389348105  MEMB      99              0.0000000000
     11378        99  SLPC      H15C            6.5370378616        0.5114851228      -21.1757937689  MEMB      99              0.0000000000
     11379        99  SLPC      C12             4.7108541136        0.6083282526      -18.2829638211  MEMB      99              0.0000000000
     11380        99  SLPC      H12A            5.1168833713       -0.2916470714      -17.8151818765  MEMB      99              0.0000000000
     11381        99  SLPC      H12B            3.8471676769        0.3011659315      -18.8537677721  MEMB      99              0.0000000000
     11382        99  SLPC      C11             4.1707379904        1.5391125412      -17.1409881464  MEMB      99              0.0000000000
     11383        99  SLPC      H11A            3.2628580331        1.0436841796      -16.7254114093  MEMB      99              0.0000000000
     11384        99  SLPC      H11B            3.8815466559        2.5272608149      -17.5448459651  MEMB      99              0.0000000000
     11385        99  SLPC      P               4.6985295049        2.2790093685      -14.6233906279  MEMB      99              0.0000000000
     11386        99  SLPC      O13             3.4082260061        2.9899106416      -14.6065807767  MEMB      99              0.0000000000
     11387        99  SLPC      O14             4.9720502185        1.1778689350      -13.6741556905  MEMB      99              0.0000000000
     11388        99  SLPC      O12             5.0903455264        1.7690450876      -16.1005030658  MEMB      99              0.0000000000
     11389        99  SLPC      O11             5.7286204081        3.4215891218      -14.3281025200  MEMB      99              0.0000000000
     11390        99  SLPC      C1              6.9679593030        3.1152251855      -14.8399543384  MEMB      99              0.0000000000
     11391        99  SLPC      HA              7.3463449400        2.0958660607      -14.5051647671  MEMB      99              0.0000000000
     11392        99  SLPC      HB              6.9206830031        3.2514351565      -15.9494979922  MEMB      99              0.0000000000
     11393        99  SLPC      C2              8.0237693041        3.9676945884      -14.3003466971  MEMB      99              0.0000000000
     11394        99  SLPC      HS              8.9804081487        3.9500705626      -14.8143642295  MEMB      99              0.0000000000
     11395        99  SLPC      O21             8.0309296096        3.4962616706      -12.9533460268  MEMB      99              0.0000000000
     11396        99  SLPC      C21             9.2108035638        3.7060924272      -12.5739674782  MEMB      99              0.0000000000
     11397        99  SLPC      O22             9.8724617227        4.5897127150      -13.0589184281  MEMB      99              0.0000000000
     11398        99  SLPC      C22             9.5339021105        2.8047703412      -11.4477525567  MEMB      99              0.0000000000
     11399        99  SLPC      H2R             9.5250430907        1.7362119799      -11.6303589666  MEMB      99              0.0000000000
     11400        99  SLPC      H2S            10.5690471135        2.8453335950      -11.1261766101  MEMB      99              0.0000000000
     11401        99  SLPC      C3              7.7549739899        5.3989991291      -14.5566744491  MEMB      99              0.0000000000
     11402        99  SLPC      HX              7.4019619156        5.5580376812      -15.5955094583  MEMB      99              0.0000000000
     11403        99  SLPC      HY              8.7625967266        5.8420185891      -14.6417523107  MEMB      99              0.0000000000
     11404        99  SLPC      O31             6.9885886527        5.8307451483      -13.4765662490  MEMB      99              0.0000000000
     11405        99  SLPC      C31             5.8165612007        6.2453928840      -13.7730211749  MEMB      99              0.0000000000
     11406        99  SLPC      O32             5.3769941675        6.4769798570      -14.8895534268  MEMB      99              0.0000000000
     11407        99  SLPC      C32             5.2851576711        6.7051099101      -12.4383142408  MEMB      99              0.0000000000
     11408        99  SLPC      H2X             4.9842379890        7.7013396547      -12.5913256332  MEMB      99              0.0000000000
     11409        99  SLPC      H2Y             5.9700924574        6.9802021594      -11.6482982152  MEMB      99              0.0000000000
     11410        99  SLPC      C23             8.4164756575        3.1565281219      -10.5049705573  MEMB      99              0.0000000000
     11411        99  SLPC      H3R             7.4826785740        2.6653489819      -10.7802870237  MEMB      99              0.0000000000
     11412        99  SLPC      H3S             8.1344152074        4.2553556072      -10.5551739879  MEMB      99              0.0000000000
     11413        99  SLPC      C24             8.6637431424        2.5742854314       -9.1799570350  MEMB      99              0.0000000000
     11414        99  SLPC      H4R             9.3173461819        1.6770875407       -8.9593072008  MEMB      99              0.0000000000
     11415        99  SLPC      H4S             7.8046302932        2.7041353177       -8.5204188582  MEMB      99              0.0000000000
     11416        99  SLPC      C25             9.4112386648        3.5362077519       -8.6656418098  MEMB      99              0.0000000000
     11417        99  SLPC      H5R            10.5324057200        3.2333570915       -8.8493797945  MEMB      99              0.0000000000
     11418        99  SLPC      H5S            10.2636492656        2.9758846435       -8.0379380795  MEMB      99              0.0000000000
     11419        99  SLPC      C26             8.5876880771        5.3024328726       -8.2662216434  MEMB      99              0.0000000000
     11420        99  SLPC      H6R             8.8163562703        6.1843069205       -8.8750223853  MEMB      99              0.0000000000
     11421        99  SLPC      H6S             9.1827836222        6.1221540764       -7.7469690870  MEMB      99              0.0000000000
     11422        99  SLPC      C27             7.7106773156        5.8902782024       -7.0512098993  MEMB      99              0.0000000000
     11423        99  SLPC      H7R             8.4135348093        5.6369795375       -6.2354255032  MEMB      99              0.0000000000
     11424        99  SLPC      H7S             6.9365174077        5.2294644326       -7.2091075049  MEMB      99              0.0000000000
     11425        99  SLPC      C28             7.7450423624        6.6937387261       -5.7021399296  MEMB      99              0.0000000000
     11426        99  SLPC      H8R             7.3146546103        7.4740025453       -6.1962645431  MEMB      99              0.0000000000
     11427        99  SLPC      H8S             8.5223195112        7.2828488231       -5.1822636375  MEMB      99              0.0000000000
     11428        99  SLPC      C29             6.6147890172        6.6832667187       -4.8860331824  MEMB      99              0.0000000000
     11429        99  SLPC      H9R             5.6874091847        6.4793255642       -5.3550221982  MEMB      99              0.0000000000
     11430        99  SLPC      C210            6.8647487959        6.6089210230       -3.6680978857  MEMB      99              0.0000000000
     11431        99  SLPC      H10R            6.0790563153        6.6023114587       -2.9425934597  MEMB      99              0.0000000000
     11432        99  SLPC      C211            8.2366540613        6.5184547404       -3.2008900752  MEMB      99              0.0000000000
     11433        99  SLPC      H11R            9.2854028048        6.4540237011       -3.6651210623  MEMB      99              0.0000000000
     11434        99  SLPC      H11S            8.0463362359        5.6092899177       -2.8309216454  MEMB      99              0.0000000000
     11435        99  SLPC      C212            8.3186277456        7.1711285945       -2.0762280126  MEMB      99              0.0000000000
     11436        99  SLPC      H12R            9.0485982936        7.8329629386       -2.3982331278  MEMB      99              0.0000000000
     11437        99  SLPC      C213            7.6083741915        7.1333754838       -1.0183173104  MEMB      99              0.0000000000
     11438        99  SLPC      H13R            7.9923626332        7.8805094362       -0.4880251238  MEMB      99              0.0000000000
     11439        99  SLPC      C214            6.4001866072        6.3708137963       -0.6536047548  MEMB      99              0.0000000000
     11440        99  SLPC      H14R            6.5470193917        5.3900413280       -1.1237686224  MEMB      99              0.0000000000
     11441        99  SLPC      H14S            5.6315155714        7.0061396977       -1.1487997759  MEMB      99              0.0000000000
     11442        99  SLPC      C215            5.8068188461        6.1323010743        0.7264407503  MEMB      99              0.0000000000
     11443        99  SLPC      H15R            4.7855319547        5.7739928318        0.7337346546  MEMB      99              0.0000000000
     11444        99  SLPC      H15S            5.6505792387        7.0093462155        1.3568717252  MEMB      99              0.0000000000
     11445        99  SLPC      C216            6.6011164935        5.2367084734        1.5597258858  MEMB      99              0.0000000000
     11446        99  SLPC      H16R            7.6602440168        5.5259910830        1.2676427018  MEMB      99              0.0000000000
     11447        99  SLPC      H16S            6.8208196073        4.2794996717        1.1261790160  MEMB      99              0.0000000000
     11448        99  SLPC      C217            5.9569494891        5.4227104934        3.0294046285  MEMB      99              0.0000000000
     11449        99  SLPC      H17R            5.8292980154        6.4162197475        3.4794273711  MEMB      99              0.0000000000
     11450        99  SLPC      H17S            6.5563123414        5.1749835742        3.8795600176  MEMB      99              0.0000000000
     11451        99  SLPC      C218            4.7377985904        4.7462875077        3.4892257574  MEMB      99              0.0000000000
     11452        99  SLPC      H18R            4.9014640537        3.7191476795        3.0948926365  MEMB      99              0.0000000000
     11453        99  SLPC      H18S            3.9649015057        5.4117235490        3.0983328468  MEMB      99              0.0000000000
     11454        99  SLPC      H18T            4.7936478188        4.7780814833        4.6275397740  MEMB      99              0.0000000000
     11455        99  SLPC      C33             4.4666038469        5.6175511543      -11.8305129803  MEMB      99              0.0000000000
     11456        99  SLPC      H3X             5.0823704812        4.6827687494      -11.8542312072  MEMB      99              0.0000000000
     11457        99  SLPC      H3Y             3.5703129968        5.5020117004      -12.4710307661  MEMB      99              0.0000000000
     11458        99  SLPC      C34             4.1123621802        5.7622902709      -10.3734906646  MEMB      99              0.0000000000
     11459        99  SLPC      H4X             3.4049698471        6.5189768354      -10.0989937626  MEMB      99              0.0000000000
     11460        99  SLPC      H4Y             4.9492452120        5.9655258540       -9.6872592840  MEMB      99              0.0000000000
     11461        99  SLPC      C35             3.1462466148        4.6760357113      -10.0715199570  MEMB      99              0.0000000000
     11462        99  SLPC      H5X             3.6055192185        3.6842579787      -10.1882494158  MEMB      99              0.0000000000
     11463        99  SLPC      H5Y             2.2917080717        4.7641837649      -10.8002113659  MEMB      99              0.0000000000
     11464        99  SLPC      C36             2.6068376980        4.8179322736       -8.6807779956  MEMB      99              0.0000000000
     11465        99  SLPC      H6X             2.0585377048        3.8960128183       -8.7058829203  MEMB      99              0.0000000000
     11466        99  SLPC      H6Y             1.8254342356        5.5748622772       -8.6415161898  MEMB      99              0.0000000000
     11467        99  SLPC      C37             3.6003156037        4.7766030473       -7.5271324370  MEMB      99              0.0000000000
     11468        99  SLPC      H7X             3.1183641415        5.0423423592       -6.5581065208  MEMB      99              0.0000000000
     11469        99  SLPC      H7Y             4.4003531973        5.5259236462       -7.7091076271  MEMB      99              0.0000000000
     11470        99  SLPC      C38             4.1981528532        3.3647816255       -7.4335789638  MEMB      99              0.0000000000
     11471        99  SLPC      H8X             4.6913502305        3.1367039007       -8.4069301714  MEMB      99              0.0000000000
     11472        99  SLPC      H8Y             3.4196682552        2.6110426677       -7.2078959508  MEMB      99              0.0000000000
     11473        99  SLPC      C39             5.2460587489        3.2519582199       -6.3647286607  MEMB      99              0.0000000000
     11474        99  SLPC      H9X             5.7282747513        4.2147906630       -6.4906055714  MEMB      99              0.0000000000
     11475        99  SLPC      H9Y             5.9901674755        2.4425751721       -6.5465948319  MEMB      99              0.0000000000
     11476        99  SLPC      C310            4.6982834979        3.1399153211       -4.9431016088  MEMB      99              0.0000000000
     11477        99  SLPC      H10X            3.9126059896        2.3792182362       -4.9112103109  MEMB      99              0.0000000000
     11478        99  SLPC      H10Y            4.3539115979        4.1543097919       -4.6283700832  MEMB      99              0.0000000000
     11479        99  SLPC      C311            5.7159555106        2.6415214611       -3.9556064400  MEMB      99              0.0000000000
     11480        99  SLPC      H11X            6.0050953750        3.6374561550       -3.5646612168  MEMB      99              0.0000000000
     11481        99  SLPC      H11Y            6.4752468352        2.0318294493       -4.5164637455  MEMB      99              0.0000000000
     11482        99  SLPC      C312            5.3876187120        1.9317336344       -2.6739750819  MEMB      99              0.0000000000
     11483        99  SLPC      H12X            5.1477637841        0.8964017066       -2.9848642058  MEMB      99              0.0000000000
     11484        99  SLPC      H12Y            4.5833340671        2.5226531138       -2.2184483505  MEMB      99              0.0000000000
     11485        99  SLPC      C313            6.5244217220        1.8078483611       -1.6735253810  MEMB      99              0.0000000000
     11486        99  SLPC      H13X            6.1792793742        1.3159563606       -0.7436799128  MEMB      99              0.0000000000
     11487        99  SLPC      H13Y            6.8571467886        2.8257584851       -1.3725004278  MEMB      99              0.0000000000
     11488        99  SLPC      C314            7.5477435756        0.9131793793       -2.3746155082  MEMB      99              0.0000000000
     11489        99  SLPC      H14X            7.8203729383        1.3408959874       -3.3214207108  MEMB      99              0.0000000000
     11490        99  SLPC      H14Y            7.1785522995       -0.1029938656       -2.5439561666  MEMB      99              0.0000000000
     11491        99  SLPC      C315            8.6800121040        0.3296589363       -1.6765919657  MEMB      99              0.0000000000
     11492        99  SLPC      H15X            8.3194502080        0.0580613355       -0.6639133506  MEMB      99              0.0000000000
     11493        99  SLPC      H15Y            9.4757113436        0.8130071126       -1.3479393626  MEMB      99              0.0000000000
     11494        99  SLPC      C316           10.2512229151        0.2250647116       -2.0840027265  MEMB      99              0.0000000000
     11495        99  SLPC      H16X           10.7597515745        0.7104094359       -2.8768744146  MEMB      99              0.0000000000
     11496        99  SLPC      H16Y            9.8936917323       -0.4615531472       -2.8384846481  MEMB      99              0.0000000000
     11497        99  SLPC      C317           11.3498500384        0.1830377205       -0.8910180330  MEMB      99              0.0000000000
     11498        99  SLPC      H17X           11.9053959405       -0.7324478149       -1.1262898539  MEMB      99              0.0000000000
     11499        99  SLPC      H17Y           10.8835295301       -0.0407931417        0.0417698486  MEMB      99              0.0000000000
     11500        99  SLPC      C318           12.1370530531        1.3402099133       -0.1726870880  MEMB      99              0.0000000000
     11501        99  SLPC      H18X           11.6800558462        1.9079168141        0.6488864903  MEMB      99              0.0000000000
     11502        99  SLPC      H18Y           12.3990739313        1.9833622182       -1.0078961504  MEMB      99              0.0000000000
     11503        99  SLPC      H18Z           13.0388952586        0.9408047407        0.3619907573  MEMB      99              0.0000000000
     11504       100  SLPC      N              -6.1785009057       -4.5502718106      -18.3673579237  MEMB      100             0.0000000000
     11505       100  SLPC      C13            -5.4507440470       -4.5272122961      -17.0587644241  MEMB      100             0.0000000000
     11506       100  SLPC      H13A           -5.0434723005       -5.5024163174      -16.7942029267  MEMB      100             0.0000000000
     11507       100  SLPC      H13B           -4.6741889584       -3.7795182692      -17.0203854733  MEMB      100             0.0000000000
     11508       100  SLPC      H13C           -6.1813748410       -4.2896047175      -16.2801706444  MEMB      100             0.0000000000
     11509       100  SLPC      C14            -7.1942459349       -5.6471519574      -18.2520014419  MEMB      100             0.0000000000
     11510       100  SLPC      H14A           -7.9866949983       -5.5752333070      -18.9815538590  MEMB      100             0.0000000000
     11511       100  SLPC      H14B           -6.6749860302       -6.5998445361      -18.3825633762  MEMB      100             0.0000000000
     11512       100  SLPC      H14C           -7.6416862099       -5.6538883528      -17.2569351461  MEMB      100             0.0000000000
     11513       100  SLPC      C15            -5.2723491782       -4.9595099127      -19.4791188553  MEMB      100             0.0000000000
     11514       100  SLPC      H15A           -4.8857389656       -5.9648227325      -19.3212369659  MEMB      100             0.0000000000
     11515       100  SLPC      H15B           -5.8262484183       -4.9729030838      -20.4108003929  MEMB      100             0.0000000000
     11516       100  SLPC      H15C           -4.4525695979       -4.2610054613      -19.5827238088  MEMB      100             0.0000000000
     11517       100  SLPC      C12            -6.7776478624       -3.1791230842      -18.6820152799  MEMB      100             0.0000000000
     11518       100  SLPC      H12A           -7.1865778773       -3.2512738076      -19.6852749469  MEMB      100             0.0000000000
     11519       100  SLPC      H12B           -6.0033138231       -2.4207230443      -18.7200885617  MEMB      100             0.0000000000
     11520       100  SLPC      C11            -7.8872035524       -2.5498888520      -17.7959920915  MEMB      100             0.0000000000
     11521       100  SLPC      H11A           -8.7177551160       -3.2320576309      -17.9242391001  MEMB      100             0.0000000000
     11522       100  SLPC      H11B           -8.2130035485       -1.5875079585      -18.2685953937  MEMB      100             0.0000000000
     11523       100  SLPC      P              -8.5414718000       -1.4868930397      -15.4880411577  MEMB      100             0.0000000000
     11524       100  SLPC      O13            -9.4579250661       -0.7435240952      -16.3837849754  MEMB      100             0.0000000000
     11525       100  SLPC      O14            -9.1425399290       -2.1860076026      -14.3429922967  MEMB      100             0.0000000000
     11526       100  SLPC      O12            -7.5809531106       -2.4217446767      -16.3947164363  MEMB      100             0.0000000000
     11527       100  SLPC      O11            -7.4731653380       -0.6434834191      -14.7324653908  MEMB      100             0.0000000000
     11528       100  SLPC      C1             -8.0460102881        0.1884908676      -13.7509369365  MEMB      100             0.0000000000
     11529       100  SLPC      HA             -8.3198325040        0.9488937616      -14.4208851774  MEMB      100             0.0000000000
     11530       100  SLPC      HB             -8.9898753345       -0.1078302977      -13.2052642392  MEMB      100             0.0000000000
     11531       100  SLPC      C2             -7.0629096566        0.6327488547      -12.7220879897  MEMB      100             0.0000000000
     11532       100  SLPC      HS             -6.0760756816        0.7556099085      -13.2215938451  MEMB      100             0.0000000000
     11533       100  SLPC      O21            -7.0103550298       -0.2889682042      -11.6847671345  MEMB      100             0.0000000000
     11534       100  SLPC      C21            -6.4748281859       -1.4152658870      -11.9620127728  MEMB      100             0.0000000000
     11535       100  SLPC      O22            -5.7313281240       -1.7129396984      -12.8799411582  MEMB      100             0.0000000000
     11536       100  SLPC      C22            -6.7371981519       -2.2410584562      -10.7367117793  MEMB      100             0.0000000000
     11537       100  SLPC      H2R            -5.9976480314       -3.0613749790      -10.7770245613  MEMB      100             0.0000000000
     11538       100  SLPC      H2S            -6.6552377516       -1.5984440829       -9.8279998026  MEMB      100             0.0000000000
     11539       100  SLPC      C3             -7.4154894268        1.9172184517      -12.0428655748  MEMB      100             0.0000000000
     11540       100  SLPC      HX             -7.3857918944        2.7341518463      -12.7203940780  MEMB      100             0.0000000000
     11541       100  SLPC      HY             -6.6001353836        2.0186442880      -11.3004911251  MEMB      100             0.0000000000
     11542       100  SLPC      O31            -8.7196128082        1.9324954568      -11.4831914426  MEMB      100             0.0000000000
     11543       100  SLPC      C31            -8.7132268850        2.7627702273      -10.4901159230  MEMB      100             0.0000000000
     11544       100  SLPC      O32            -7.7855122519        3.4614938017      -10.1176325381  MEMB      100             0.0000000000
     11545       100  SLPC      C32           -10.0241061907        2.7812016919       -9.8704455064  MEMB      100             0.0000000000
     11546       100  SLPC      H2X           -10.8264807831        2.2771311638      -10.4467774187  MEMB      100             0.0000000000
     11547       100  SLPC      H2Y           -10.2349787450        3.8561685918      -10.0092573584  MEMB      100             0.0000000000
     11548       100  SLPC      C23            -8.0918931349       -2.8633861390      -10.7367876548  MEMB      100             0.0000000000
     11549       100  SLPC      H3R            -8.1290588176       -3.6065776264       -9.9094654740  MEMB      100             0.0000000000
     11550       100  SLPC      H3S            -8.1098211802       -3.3811387532      -11.7036085152  MEMB      100             0.0000000000
     11551       100  SLPC      C24            -9.1846001611       -1.8173999080      -10.5498632012  MEMB      100             0.0000000000
     11552       100  SLPC      H4R            -9.2317783889       -1.1389532730      -11.4311680207  MEMB      100             0.0000000000
     11553       100  SLPC      H4S            -8.9904461074       -1.2523622170       -9.6253358193  MEMB      100             0.0000000000
     11554       100  SLPC      C25           -10.5269497765       -2.4584779731      -10.4212756591  MEMB      100             0.0000000000
     11555       100  SLPC      H5R           -10.4307694753       -3.3232694058       -9.7191330831  MEMB      100             0.0000000000
     11556       100  SLPC      H5S           -10.7060531373       -2.7122765218      -11.4781581130  MEMB      100             0.0000000000
     11557       100  SLPC      C26           -11.7698568687       -1.6188404399      -10.2371429770  MEMB      100             0.0000000000
     11558       100  SLPC      H6R           -12.7236189983       -2.1856244606      -10.2855499593  MEMB      100             0.0000000000
     11559       100  SLPC      H6S           -11.8178870590       -0.9579317813      -11.1263415207  MEMB      100             0.0000000000
     11560       100  SLPC      C27           -11.7084843545       -0.7846889462       -8.9972734613  MEMB      100             0.0000000000
     11561       100  SLPC      H7R           -12.4007396083        0.0518768704       -9.2250707029  MEMB      100             0.0000000000
     11562       100  SLPC      H7S           -10.6757144814       -0.4833981492       -8.7656860255  MEMB      100             0.0000000000
     11563       100  SLPC      C28           -12.2736205778       -1.3935683170       -7.7623648568  MEMB      100             0.0000000000
     11564       100  SLPC      H8R           -13.1352765219       -1.9489844355       -8.0693969733  MEMB      100             0.0000000000
     11565       100  SLPC      H8S           -12.6585038597       -0.6155619149       -7.0777463297  MEMB      100             0.0000000000
     11566       100  SLPC      C29           -11.5138958667       -2.4156146182       -7.0294332921  MEMB      100             0.0000000000
     11567       100  SLPC      H9R           -11.3699788580       -3.2895734716       -7.4279811873  MEMB      100             0.0000000000
     11568       100  SLPC      C210          -10.5773846572       -2.5498446433       -6.1792797362  MEMB      100             0.0000000000
     11569       100  SLPC      H10R          -10.3939945569       -3.4132525657       -5.5468653082  MEMB      100             0.0000000000
     11570       100  SLPC      C211          -10.0716368166       -1.3978264422       -5.7627280919  MEMB      100             0.0000000000
     11571       100  SLPC      H11R           -9.8616219718       -1.5234386879       -4.6764878336  MEMB      100             0.0000000000
     11572       100  SLPC      H11S          -11.0044775859       -0.7450261266       -5.8048982198  MEMB      100             0.0000000000
     11573       100  SLPC      C212           -8.9533027113       -0.8177338431       -6.5783701981  MEMB      100             0.0000000000
     11574       100  SLPC      H12R           -9.1205523425        0.1763529887       -7.0100012168  MEMB      100             0.0000000000
     11575       100  SLPC      C213           -7.7446285680       -1.3118065655       -6.6616725130  MEMB      100             0.0000000000
     11576       100  SLPC      H13R           -7.0484357494       -0.6883150676       -7.2128189815  MEMB      100             0.0000000000
     11577       100  SLPC      C214           -7.2644804201       -2.5564579674       -5.9790431161  MEMB      100             0.0000000000
     11578       100  SLPC      H14R           -6.7061060014       -3.0754733790       -6.7798298757  MEMB      100             0.0000000000
     11579       100  SLPC      H14S           -8.1120406510       -3.2292536279       -5.7307191882  MEMB      100             0.0000000000
     11580       100  SLPC      C215           -6.3397830216       -2.4581312188       -4.7302242974  MEMB      100             0.0000000000
     11581       100  SLPC      H15R           -5.4980971494       -1.7358310449       -4.7789668049  MEMB      100             0.0000000000
     11582       100  SLPC      H15S           -5.8881061772       -3.4455227556       -4.5455197616  MEMB      100             0.0000000000
     11583       100  SLPC      C216           -7.0242290431       -1.9962934895       -3.4768103118  MEMB      100             0.0000000000
     11584       100  SLPC      H16R           -8.0046571241       -2.4880364031       -3.3653717820  MEMB      100             0.0000000000
     11585       100  SLPC      H16S           -7.1773612259       -0.9596595272       -3.6839673788  MEMB      100             0.0000000000
     11586       100  SLPC      C217           -6.1763766903       -2.1298272113       -2.2237068472  MEMB      100             0.0000000000
     11587       100  SLPC      H17R           -5.4452814767       -1.2977996023       -2.0692944946  MEMB      100             0.0000000000
     11588       100  SLPC      H17S           -5.5911549064       -3.0597597230       -2.3821404261  MEMB      100             0.0000000000
     11589       100  SLPC      C218           -7.0884886834       -2.3134307550       -1.0221757227  MEMB      100             0.0000000000
     11590       100  SLPC      H18R           -7.5952040792       -1.3734977031       -0.7266431124  MEMB      100             0.0000000000
     11591       100  SLPC      H18S           -6.5442504860       -2.6902765184       -0.1568866707  MEMB      100             0.0000000000
     11592       100  SLPC      H18T           -7.8375430418       -3.0959853582       -1.2420987558  MEMB      100             0.0000000000
     11593       100  SLPC      C33            -9.8564743048        2.3360864437       -8.3906158960  MEMB      100             0.0000000000
     11594       100  SLPC      H3X            -9.8922026148        1.2576187309       -8.2650691121  MEMB      100             0.0000000000
     11595       100  SLPC      H3Y           -10.9017407202        2.3842511450       -8.0690232258  MEMB      100             0.0000000000
     11596       100  SLPC      C34            -8.7026449142        3.1123718114       -7.5493280438  MEMB      100             0.0000000000
     11597       100  SLPC      H4X            -8.5166651638        4.1121000410       -8.0014755450  MEMB      100             0.0000000000
     11598       100  SLPC      H4Y            -7.8749255971        2.3929926054       -7.4392243813  MEMB      100             0.0000000000
     11599       100  SLPC      C35            -8.8413137926        3.8479338428       -6.1770573290  MEMB      100             0.0000000000
     11600       100  SLPC      H5X            -9.0408219917        2.8399083652       -5.7909909229  MEMB      100             0.0000000000
     11601       100  SLPC      H5Y            -9.6396239017        4.6172296307       -6.1771195087  MEMB      100             0.0000000000
     11602       100  SLPC      C36            -8.1408001022        4.1470951579       -4.8688720903  MEMB      100             0.0000000000
     11603       100  SLPC      H6X            -8.0105250789        5.2159850959       -5.0765744942  MEMB      100             0.0000000000
     11604       100  SLPC      H6Y            -7.2539526495        3.5412235021       -4.7673617496  MEMB      100             0.0000000000
     11605       100  SLPC      C37            -8.8939547122        4.1661876862       -3.4872802898  MEMB      100             0.0000000000
     11606       100  SLPC      H7X            -9.9842246815        4.4142135741       -3.4047970621  MEMB      100             0.0000000000
     11607       100  SLPC      H7Y            -8.2705024181        4.8917293806       -3.0539268656  MEMB      100             0.0000000000
     11608       100  SLPC      C38            -8.5425764937        3.1411928157       -2.4214325002  MEMB      100             0.0000000000
     11609       100  SLPC      H8X            -7.6296164832        2.6293419818       -2.6999478736  MEMB      100             0.0000000000
     11610       100  SLPC      H8Y            -9.3769167323        2.8906562230       -3.0419582261  MEMB      100             0.0000000000
     11611       100  SLPC      C39            -9.1492324136        2.7371113566       -1.0449108777  MEMB      100             0.0000000000
     11612       100  SLPC      H9X            -9.6208560648        1.7029349421       -0.7610620655  MEMB      100             0.0000000000
     11613       100  SLPC      H9Y            -9.9541842087        3.4370824624       -0.7426890069  MEMB      100             0.0000000000
     11614       100  SLPC      C310           -8.1911593046        2.2807169408       -0.1628940467  MEMB      100             0.0000000000
     11615       100  SLPC      H10X           -8.7928942478        2.0085246607        0.6520161830  MEMB      100             0.0000000000
     11616       100  SLPC      H10Y           -8.1776976109        3.3402511762       -0.1430546594  MEMB      100             0.0000000000
     11617       100  SLPC      C311           -6.8706446811        1.6161010655       -0.4586455523  MEMB      100             0.0000000000
     11618       100  SLPC      H11X           -6.3544463110        2.3850668869       -1.0810386689  MEMB      100             0.0000000000
     11619       100  SLPC      H11Y           -6.9973932194        0.6582393914       -0.9746534065  MEMB      100             0.0000000000
     11620       100  SLPC      C312           -6.0901140916        1.2773391799        0.8313864487  MEMB      100             0.0000000000
     11621       100  SLPC      H12X           -6.1050029273        2.3081079238        1.2164209969  MEMB      100             0.0000000000
     11622       100  SLPC      H12Y           -5.0005961273        1.2413546689        0.7769982970  MEMB      100             0.0000000000
     11623       100  SLPC      C313           -6.7102424445       -0.0085290911        1.6064095195  MEMB      100             0.0000000000
     11624       100  SLPC      H13X           -6.2958290217       -0.8607351665        1.1815257188  MEMB      100             0.0000000000
     11625       100  SLPC      H13Y           -7.6903793129       -0.1119823609        1.1437327625  MEMB      100             0.0000000000
     11626       100  SLPC      C314           -6.6919948065       -0.4464544929        3.1985646634  MEMB      100             0.0000000000
     11627       100  SLPC      H14X           -7.2214576016        0.1249900763        3.9338096319  MEMB      100             0.0000000000
     11628       100  SLPC      H14Y           -5.7891355387        0.1187862690        3.3599838905  MEMB      100             0.0000000000
     11629       100  SLPC      C315           -7.9476077966       -0.7911535379        4.2474149641  MEMB      100             0.0000000000
     11630       100  SLPC      H15X           -7.7714693395       -1.0486024755        5.3245635080  MEMB      100             0.0000000000
     11631       100  SLPC      H15Y           -7.6505372415       -1.5988321517        3.6288230486  MEMB      100             0.0000000000
     11632       100  SLPC      C316           -9.5063289718       -0.3567735929        4.2552676573  MEMB      100             0.0000000000
     11633       100  SLPC      H16X           -9.9765040495       -0.1505295384        3.2098711779  MEMB      100             0.0000000000
     11634       100  SLPC      H16Y           -9.7440354653        0.4938049468        4.8958471199  MEMB      100             0.0000000000
     11635       100  SLPC      C317          -10.4601288425       -1.0299229050        4.9464156503  MEMB      100             0.0000000000
     11636       100  SLPC      H17X          -11.5880365913       -1.0853113263        4.7585319732  MEMB      100             0.0000000000
     11637       100  SLPC      H17Y           -9.8618997106       -1.5560071079        5.7707763782  MEMB      100             0.0000000000
     11638       100  SLPC      C318          -10.3085867357       -1.8239460698        3.9894734855  MEMB      100             0.0000000000
     11639       100  SLPC      H18X           -9.3832116832       -2.3934300010        4.2382551885  MEMB      100             0.0000000000
     11640       100  SLPC      H18Y          -10.6845823887       -1.7535680563        2.9150367225  MEMB      100             0.0000000000
     11641       100  SLPC      H18Z          -10.8499394479       -2.5639045870        4.1204872074  MEMB      100             0.0000000000
     11642       101  CHL1      C3              2.9177665534        9.4367715908      -17.3397098249  MEMB      101             0.0000000000
     11643       101  CHL1      H3              3.3342708066        8.4041099913      -17.3211608176  MEMB      101             0.0000000000
     11644       101  CHL1      O3              2.6710287635        9.7582350894      -18.7018640121  MEMB      101             0.0000000000
     11645       101  CHL1      H3'             2.3844072083       10.6821392688      -18.7638399988  MEMB      101             0.0000000000
     11646       101  CHL1      C4              1.5979058442        9.4240843074      -16.5476212571  MEMB      101             0.0000000000
     11647       101  CHL1      H4A             1.1130634349       10.4189292148      -16.6549328418  MEMB      101             0.0000000000
     11648       101  CHL1      H4B             0.9127788865        8.7077672081      -17.0399431649  MEMB      101             0.0000000000
     11649       101  CHL1      C5              1.8186383195        9.0523838550      -15.0933447600  MEMB      101             0.0000000000
     11650       101  CHL1      C6              1.1810155129        8.0673976472      -14.4485660894  MEMB      101             0.0000000000
     11651       101  CHL1      H6              0.4530991260        7.4661353056      -14.9970225814  MEMB      101             0.0000000000
     11652       101  CHL1      C7              1.3450259975        7.7785840084      -12.9782501856  MEMB      101             0.0000000000
     11653       101  CHL1      H7A             0.3893411459        7.5270966049      -12.4778306968  MEMB      101             0.0000000000
     11654       101  CHL1      H7B             1.9743239841        6.8646090731      -12.8966808497  MEMB      101             0.0000000000
     11655       101  CHL1      C8              1.9916891908        8.9633611344      -12.1899705069  MEMB      101             0.0000000000
     11656       101  CHL1      H8              1.2577045715        9.7637447886      -12.0155421096  MEMB      101             0.0000000000
     11657       101  CHL1      C14             2.4117627413        8.4604915511      -10.8410227932  MEMB      101             0.0000000000
     11658       101  CHL1      H14             3.1402575617        7.7848572898      -11.2905041248  MEMB      101             0.0000000000
     11659       101  CHL1      C15             1.3347945720        7.8698829276       -9.8804466195  MEMB      101             0.0000000000
     11660       101  CHL1      H15A            0.4490526421        8.5393187390       -9.9529131817  MEMB      101             0.0000000000
     11661       101  CHL1      H15B            0.9954983821        6.8563802228      -10.1475800886  MEMB      101             0.0000000000
     11662       101  CHL1      C16             1.9285486044        8.0087040149       -8.4404231266  MEMB      101             0.0000000000
     11663       101  CHL1      H16A            1.2869758754        8.6828659322       -7.8449171872  MEMB      101             0.0000000000
     11664       101  CHL1      H16B            2.0247157492        7.1505754737       -7.7777225221  MEMB      101             0.0000000000
     11665       101  CHL1      C17             3.3568552986        8.5705562319       -8.6040739670  MEMB      101             0.0000000000
     11666       101  CHL1      H17             4.0688848333        7.7365495454       -8.7444286161  MEMB      101             0.0000000000
     11667       101  CHL1      C13             3.2466918519        9.3070298300       -9.9365713538  MEMB      101             0.0000000000
     11668       101  CHL1      C18             2.3890236058       10.4355970531       -9.6266592547  MEMB      101             0.0000000000
     11669       101  CHL1      H18A            2.1461880309       10.9547736754      -10.5726371377  MEMB      101             0.0000000000
     11670       101  CHL1      H18B            1.4160683310       10.2857366069       -9.1318825751  MEMB      101             0.0000000000
     11671       101  CHL1      H18C            3.0167519201       11.0954551392       -8.9856415606  MEMB      101             0.0000000000
     11672       101  CHL1      C12             4.5208305002        9.7463997669      -10.6160225008  MEMB      101             0.0000000000
     11673       101  CHL1      H12A            4.9679453827       10.6229850791      -10.0632345024  MEMB      101             0.0000000000
     11674       101  CHL1      H12B            5.1497737369        8.8561790569      -10.5613727086  MEMB      101             0.0000000000
     11675       101  CHL1      C11             4.3623114381       10.1357503347      -12.1044939242  MEMB      101             0.0000000000
     11676       101  CHL1      H11A            4.1384760901       11.1007827345      -11.7723737499  MEMB      101             0.0000000000
     11677       101  CHL1      H11B            5.3011947745       10.3677327631      -12.6319656306  MEMB      101             0.0000000000
     11678       101  CHL1      C9              3.2208658863        9.4490583905      -12.9672223166  MEMB      101             0.0000000000
     11679       101  CHL1      H9              3.6673307471        8.5373186391      -13.3444363570  MEMB      101             0.0000000000
     11680       101  CHL1      C10             2.8766921704        9.8832185709      -14.4068126611  MEMB      101             0.0000000000
     11681       101  CHL1      C19             2.0891927187       11.1146744876      -14.2667375109  MEMB      101             0.0000000000
     11682       101  CHL1      H19A            1.3215714436       11.1653407603      -13.4641398218  MEMB      101             0.0000000000
     11683       101  CHL1      H19B            2.9833199630       11.6857576123      -13.9884091828  MEMB      101             0.0000000000
     11684       101  CHL1      H19C            1.7047070708       11.6245006850      -15.1637685755  MEMB      101             0.0000000000
     11685       101  CHL1      C1              4.1915105071       10.0647539175      -15.2488208353  MEMB      101             0.0000000000
     11686       101  CHL1      H1A             4.8485912034       10.8375189530      -14.7932117946  MEMB      101             0.0000000000
     11687       101  CHL1      H1B             4.7519673215        9.1016872256      -15.2180900389  MEMB      101             0.0000000000
     11688       101  CHL1      C2              3.9541294849       10.4006511321      -16.7326167163  MEMB      101             0.0000000000
     11689       101  CHL1      H2A             4.9059966206       10.2987905372      -17.3044030116  MEMB      101             0.0000000000
     11690       101  CHL1      H2B             3.6093785135       11.4512337292      -16.8215265992  MEMB      101             0.0000000000
     11691       101  CHL1      C20             3.8512714218        9.3066966353       -7.3599897496  MEMB      101             0.0000000000
     11692       101  CHL1      H20             3.3901975512       10.3090833930       -7.2998135705  MEMB      101             0.0000000000
     11693       101  CHL1      C21             5.3409278360        9.5411731626       -7.4751256413  MEMB      101             0.0000000000
     11694       101  CHL1      H21A            5.8787947394        9.7540579912       -6.5369569093  MEMB      101             0.0000000000
     11695       101  CHL1      H21B            5.4779841387       10.4571609119       -8.0871840826  MEMB      101             0.0000000000
     11696       101  CHL1      H21C            5.8370712462        8.6688429703       -7.9565471509  MEMB      101             0.0000000000
     11697       101  CHL1      C22             3.5413377747        8.6152253365       -6.0366428381  MEMB      101             0.0000000000
     11698       101  CHL1      H22A            2.4474414284        8.4265899010       -5.9357560361  MEMB      101             0.0000000000
     11699       101  CHL1      H22B            4.0590185464        7.6447566404       -5.9459973030  MEMB      101             0.0000000000
     11700       101  CHL1      C23             3.9193937385        9.5146699775       -4.8746294962  MEMB      101             0.0000000000
     11701       101  CHL1      H23A            3.9398021638        8.8197020735       -4.0098328410  MEMB      101             0.0000000000
     11702       101  CHL1      H23B            4.9343200370        9.9663059125       -4.8865296959  MEMB      101             0.0000000000
     11703       101  CHL1      C24             2.9004162897       10.6533833614       -4.8119253280  MEMB      101             0.0000000000
     11704       101  CHL1      H24A            2.7631276258       11.2526458527       -5.7215160527  MEMB      101             0.0000000000
     11705       101  CHL1      H24B            1.9210968302       10.3015033283       -4.4142320302  MEMB      101             0.0000000000
     11706       101  CHL1      C25             3.3690687685       11.8202613237       -4.0555425497  MEMB      101             0.0000000000
     11707       101  CHL1      H25             4.3460691185       12.2430414653       -4.3173399851  MEMB      101             0.0000000000
     11708       101  CHL1      C26             2.3871012499       12.8655705013       -3.8256496095  MEMB      101             0.0000000000
     11709       101  CHL1      H26A            1.3397180718       12.5541061516       -3.6074505827  MEMB      101             0.0000000000
     11710       101  CHL1      H26B            2.7375341774       13.3174203893       -2.8629004517  MEMB      101             0.0000000000
     11711       101  CHL1      H26C            2.5215931612       13.5856478895       -4.5938583886  MEMB      101             0.0000000000
     11712       101  CHL1      C27             3.3449201557       11.4310382639       -2.7709000521  MEMB      101             0.0000000000
     11713       101  CHL1      H27A            2.2705530367       11.3405687467       -2.5658464379  MEMB      101             0.0000000000
     11714       101  CHL1      H27B            3.9072404525       10.5124732934       -2.5235014239  MEMB      101             0.0000000000
     11715       101  CHL1      H27C            3.6584192320       12.1727240044       -1.9871146765  MEMB      101             0.0000000000
     11716       102  POPC      N               7.7311344051       -6.4149422784      -21.2349721958  MEMB      102             0.0000000000
     11717       102  POPC      C12             6.6281118067       -6.4523560547      -20.1843943273  MEMB      102             0.0000000000
     11718       102  POPC      H12A            6.4303194260       -7.4911279607      -19.9333636526  MEMB      102             0.0000000000
     11719       102  POPC      H12B            5.7378916110       -5.9832712687      -20.5728071460  MEMB      102             0.0000000000
     11720       102  POPC      C13             8.1296926259       -4.9934425562      -21.4848335786  MEMB      102             0.0000000000
     11721       102  POPC      H13A            8.8962465257       -4.9009071721      -22.2542367260  MEMB      102             0.0000000000
     11722       102  POPC      H13B            7.2639258089       -4.4341501963      -21.8007998443  MEMB      102             0.0000000000
     11723       102  POPC      H13C            8.5241890553       -4.5197938034      -20.5832033774  MEMB      102             0.0000000000
     11724       102  POPC      C14             8.8805666912       -7.2684206970      -20.7830809123  MEMB      102             0.0000000000
     11725       102  POPC      H14A            8.4795710069       -8.2605004883      -20.6095141099  MEMB      102             0.0000000000
     11726       102  POPC      H14B            9.6999873974       -7.3318648773      -21.4877206528  MEMB      102             0.0000000000
     11727       102  POPC      H14C            9.2530890921       -6.9333982173      -19.8130622240  MEMB      102             0.0000000000
     11728       102  POPC      C15             7.2496873404       -7.0259235786      -22.5050125906  MEMB      102             0.0000000000
     11729       102  POPC      H15A            8.1005443416       -7.2369489145      -23.1562181351  MEMB      102             0.0000000000
     11730       102  POPC      H15B            6.6059813098       -6.3495987554      -23.0359891042  MEMB      102             0.0000000000
     11731       102  POPC      H15C            6.7363704658       -7.9553296784      -22.3126284803  MEMB      102             0.0000000000
     11732       102  POPC      C11             6.8959075162       -5.8025138762      -18.8288894887  MEMB      102             0.0000000000
     11733       102  POPC      H11A            5.9614425492       -5.8203835055      -18.2229629595  MEMB      102             0.0000000000
     11734       102  POPC      H11B            7.2326308364       -4.7405942875      -18.9340403501  MEMB      102             0.0000000000
     11735       102  POPC      P               8.5272778457       -6.0855983633      -16.8982647545  MEMB      102             0.0000000000
     11736       102  POPC      O13             7.8364662523       -4.8340517387      -16.5600027846  MEMB      102             0.0000000000
     11737       102  POPC      O14             9.9486362599       -6.1089760994      -17.2514673651  MEMB      102             0.0000000000
     11738       102  POPC      O12             7.8365056476       -6.6274158746      -18.1786532649  MEMB      102             0.0000000000
     11739       102  POPC      O11             8.0884279151       -7.1224236192      -15.8102331117  MEMB      102             0.0000000000
     11740       102  POPC      C1              6.6616560724       -7.3569268981      -15.6844767085  MEMB      102             0.0000000000
     11741       102  POPC      HA              6.1753206576       -7.4903178847      -16.6793344768  MEMB      102             0.0000000000
     11742       102  POPC      HB              6.1762228138       -6.5222758606      -15.1521719349  MEMB      102             0.0000000000
     11743       102  POPC      C2              6.3087922980       -8.6448630689      -14.9195212528  MEMB      102             0.0000000000
     11744       102  POPC      HS              5.2274784752       -8.8921896589      -15.0525131924  MEMB      102             0.0000000000
     11745       102  POPC      O21             6.6593828885       -8.5287760901      -13.5124607701  MEMB      102             0.0000000000
     11746       102  POPC      C21             5.8442140607       -7.6999378320      -12.8735712810  MEMB      102             0.0000000000
     11747       102  POPC      O22             4.7198179186       -7.4054654958      -13.2349022343  MEMB      102             0.0000000000
     11748       102  POPC      C22             6.4923821966       -7.1331053009      -11.6204956355  MEMB      102             0.0000000000
     11749       102  POPC      H2R             5.8412381243       -6.3201903681      -11.2310869072  MEMB      102             0.0000000000
     11750       102  POPC      H2S             7.4556189737       -6.6594823913      -11.8963387783  MEMB      102             0.0000000000
     11751       102  POPC      C3              7.0789270625       -9.7504030852      -15.6097716922  MEMB      102             0.0000000000
     11752       102  POPC      HX              6.8710221446       -9.9078266416      -16.6720513541  MEMB      102             0.0000000000
     11753       102  POPC      HY              6.6666714580      -10.6871519091      -15.2083879767  MEMB      102             0.0000000000
     11754       102  POPC      O31             8.4835824649       -9.4205030815      -15.4677253192  MEMB      102             0.0000000000
     11755       102  POPC      C31             8.9997272983      -10.3045562035      -14.7415693059  MEMB      102             0.0000000000
     11756       102  POPC      O32             8.4038855360      -11.3284130908      -14.5436717355  MEMB      102             0.0000000000
     11757       102  POPC      C32            10.4085060606       -9.9510276717      -14.3680237043  MEMB      102             0.0000000000
     11758       102  POPC      H2X            10.9927307639      -10.0944898546      -15.2761651754  MEMB      102             0.0000000000
     11759       102  POPC      H2Y            11.1168003294      -10.5921717985      -13.8402360679  MEMB      102             0.0000000000
     11760       102  POPC      C23             6.6521963107       -8.2047866301      -10.5326629420  MEMB      102             0.0000000000
     11761       102  POPC      H3R             7.3574672385       -9.0085373680      -10.8468348773  MEMB      102             0.0000000000
     11762       102  POPC      H3S             5.6610763834       -8.6619783936      -10.3075799534  MEMB      102             0.0000000000
     11763       102  POPC      C24             7.1129333217       -7.5574166938       -9.2414456984  MEMB      102             0.0000000000
     11764       102  POPC      H4R             6.2877351530       -6.9246460871       -8.8652152847  MEMB      102             0.0000000000
     11765       102  POPC      H4S             8.0227679583       -6.9419459818       -9.4391674190  MEMB      102             0.0000000000
     11766       102  POPC      C25             7.3869139106       -8.5485673260       -8.1539880393  MEMB      102             0.0000000000
     11767       102  POPC      H5R             6.5342006672       -9.1924320402       -7.8599463111  MEMB      102             0.0000000000
     11768       102  POPC      H5S             7.7678037577       -8.0064237835       -7.2471084813  MEMB      102             0.0000000000
     11769       102  POPC      C26             8.4302914985       -9.4812452653       -8.5795746797  MEMB      102             0.0000000000
     11770       102  POPC      H6R             9.3219144764       -8.8251912177       -8.7776415189  MEMB      102             0.0000000000
     11771       102  POPC      H6S             8.3527914491      -10.2173814327       -9.4025785905  MEMB      102             0.0000000000
     11772       102  POPC      C27             8.5379073399      -10.3934450112       -7.4675896041  MEMB      102             0.0000000000
     11773       102  POPC      H7R             7.9410658715      -11.3246720029       -7.2930689377  MEMB      102             0.0000000000
     11774       102  POPC      H7S             8.3691641700       -9.8379747144       -6.5080042172  MEMB      102             0.0000000000
     11775       102  POPC      C28             9.9105819903      -10.8051146448       -7.9207152875  MEMB      102             0.0000000000
     11776       102  POPC      H8R             9.9839068150      -11.3732231453       -8.8527780814  MEMB      102             0.0000000000
     11777       102  POPC      H8S             9.7604406050      -11.7603629157       -7.3374161997  MEMB      102             0.0000000000
     11778       102  POPC      C29            11.0805563943       -9.7583863451       -7.6375831348  MEMB      102             0.0000000000
     11779       102  POPC      H91            11.9252161427       -9.9667828921       -8.3239681943  MEMB      102             0.0000000000
     11780       102  POPC      C210           11.6145669389       -9.1669043237       -6.4877561490  MEMB      102             0.0000000000
     11781       102  POPC      H101           12.6613218846       -9.4049472159       -6.5175970650  MEMB      102             0.0000000000
     11782       102  POPC      C211           11.5006570983       -8.9394630224       -4.9228694372  MEMB      102             0.0000000000
     11783       102  POPC      H11R           12.3771372776       -9.2715051746       -4.2662741343  MEMB      102             0.0000000000
     11784       102  POPC      H11S           11.0580958606       -9.5357401446       -4.1747078335  MEMB      102             0.0000000000
     11785       102  POPC      C212           10.6694209106       -7.7547074100       -4.7156516939  MEMB      102             0.0000000000
     11786       102  POPC      H12R            9.7688915510       -7.8527060668       -5.3634335726  MEMB      102             0.0000000000
     11787       102  POPC      H12S           11.2823699074       -6.9046781182       -5.0573512646  MEMB      102             0.0000000000
     11788       102  POPC      C213           10.2315394949       -7.6523606802       -3.2757179861  MEMB      102             0.0000000000
     11789       102  POPC      H13R            9.6987118437       -8.5612683763       -2.9138142324  MEMB      102             0.0000000000
     11790       102  POPC      H13S            9.5754601951       -6.7584562446       -3.2432098681  MEMB      102             0.0000000000
     11791       102  POPC      C214           11.3870502907       -7.4372621687       -2.3464006677  MEMB      102             0.0000000000
     11792       102  POPC      H14R           12.2059009878       -7.0384991917       -2.9264428136  MEMB      102             0.0000000000
     11793       102  POPC      H14S           11.7754639814       -8.3630176481       -1.8667561644  MEMB      102             0.0000000000
     11794       102  POPC      C215           11.0728519631       -6.3513159037       -1.3631321093  MEMB      102             0.0000000000
     11795       102  POPC      H15R           10.8672574214       -5.3744267082       -1.8547450815  MEMB      102             0.0000000000
     11796       102  POPC      H15S           12.0585675833       -6.1827536794       -0.9758734309  MEMB      102             0.0000000000
     11797       102  POPC      C216           10.0263529895       -6.9246745805       -0.3762593811  MEMB      102             0.0000000000
     11798       102  POPC      H16R           10.4700084796       -7.7654682585        0.1770365758  MEMB      102             0.0000000000
     11799       102  POPC      H16S            9.1797305882       -7.2216904309       -1.0256142592  MEMB      102             0.0000000000
     11800       102  POPC      C217            9.2313995001       -6.0705102103        0.5668574853  MEMB      102             0.0000000000
     11801       102  POPC      H17R            9.6890366815       -5.8665817278        1.5531131088  MEMB      102             0.0000000000
     11802       102  POPC      H17S            8.2243596917       -6.3239486382        0.8681611680  MEMB      102             0.0000000000
     11803       102  POPC      C218            9.0419269166       -4.8745069519       -0.1657456831  MEMB      102             0.0000000000
     11804       102  POPC      H18R           10.1291722900       -4.6548059966       -0.0232796649  MEMB      102             0.0000000000
     11805       102  POPC      H18S            8.4659081802       -4.1376695832        0.3979377828  MEMB      102             0.0000000000
     11806       102  POPC      H18T            8.9730212819       -4.6508289742       -1.2440073886  MEMB      102             0.0000000000
     11807       102  POPC      C33            10.3116277626       -8.6191482237      -13.6702114383  MEMB      102             0.0000000000
     11808       102  POPC      H3X             9.5292180876       -8.4229974166      -12.9130145661  MEMB      102             0.0000000000
     11809       102  POPC      H3Y            10.2585299183       -7.9018177289      -14.5312536458  MEMB      102             0.0000000000
     11810       102  POPC      C34            11.5201582712       -8.5100764790      -12.8395833898  MEMB      102             0.0000000000
     11811       102  POPC      H4X            12.0494866508       -8.5135386888      -13.8005626200  MEMB      102             0.0000000000
     11812       102  POPC      H4Y            12.0366960758       -9.4041761249      -12.4585940165  MEMB      102             0.0000000000
     11813       102  POPC      C35            11.5491797568       -7.2980406315      -11.8666352126  MEMB      102             0.0000000000
     11814       102  POPC      H5X            11.1590468769       -6.3962627285      -12.3761174862  MEMB      102             0.0000000000
     11815       102  POPC      H5Y            12.5193072663       -6.9466517081      -11.4237806501  MEMB      102             0.0000000000
     11816       102  POPC      C36            10.9842527026       -7.6057484651      -10.5425714168  MEMB      102             0.0000000000
     11817       102  POPC      H6X            11.5688878003       -8.4458437143      -10.0868127581  MEMB      102             0.0000000000
     11818       102  POPC      H6Y             9.9582249802       -7.9026875188      -10.8045604500  MEMB      102             0.0000000000
     11819       102  POPC      C37            11.0562947002       -6.3750193306       -9.6426318474  MEMB      102             0.0000000000
     11820       102  POPC      H7X            12.1205156655       -6.1368365839       -9.3958901737  MEMB      102             0.0000000000
     11821       102  POPC      H7Y            10.5373545912       -6.6992113178       -8.7216853616  MEMB      102             0.0000000000
     11822       102  POPC      C38            10.2991956771       -5.1556348294      -10.2014206574  MEMB      102             0.0000000000
     11823       102  POPC      H8X             9.2988963386       -5.5136027604      -10.5359432501  MEMB      102             0.0000000000
     11824       102  POPC      H8Y            10.8050299840       -4.7226185021      -11.0940447550  MEMB      102             0.0000000000
     11825       102  POPC      C39            10.0739420441       -4.0497981168       -9.1555578292  MEMB      102             0.0000000000
     11826       102  POPC      H9X             9.6816015666       -3.1558953225       -9.6901900464  MEMB      102             0.0000000000
     11827       102  POPC      H9Y            11.0499045227       -3.7711428646       -8.7017330485  MEMB      102             0.0000000000
     11828       102  POPC      C310            9.0058084064       -4.4425073518       -8.1164148406  MEMB      102             0.0000000000
     11829       102  POPC      H10X            9.1969236522       -5.4563219636       -7.7041813690  MEMB      102             0.0000000000
     11830       102  POPC      H10Y            8.0421595496       -4.5044595238       -8.6719712974  MEMB      102             0.0000000000
     11831       102  POPC      C311            8.8048221971       -3.4460916388       -6.9618503643  MEMB      102             0.0000000000
     11832       102  POPC      H11X            8.5334912060       -2.4548402603       -7.3920392270  MEMB      102             0.0000000000
     11833       102  POPC      H11Y            9.7247978816       -3.3502241978       -6.3457780203  MEMB      102             0.0000000000
     11834       102  POPC      C312            7.6477546177       -3.8357940934       -6.0393617677  MEMB      102             0.0000000000
     11835       102  POPC      H12X            6.7229514557       -3.7969344591       -6.6614736882  MEMB      102             0.0000000000
     11836       102  POPC      H12Y            7.5384607775       -3.0813804324       -5.2251960790  MEMB      102             0.0000000000
     11837       102  POPC      C313            7.7613893942       -5.2529542476       -5.4520997118  MEMB      102             0.0000000000
     11838       102  POPC      H13X            8.7536458527       -5.4061398450       -4.9687843021  MEMB      102             0.0000000000
     11839       102  POPC      H13Y            7.6473495372       -5.9590261436       -6.2991747783  MEMB      102             0.0000000000
     11840       102  POPC      C314            6.6311804330       -5.4510179928       -4.4447660371  MEMB      102             0.0000000000
     11841       102  POPC      H14X            5.6651084564       -5.2529533123       -4.9607521074  MEMB      102             0.0000000000
     11842       102  POPC      H14Y            6.8116788607       -4.6489964424       -3.6915408465  MEMB      102             0.0000000000
     11843       102  POPC      C315            6.4672469259       -6.7749454065       -3.6904453645  MEMB      102             0.0000000000
     11844       102  POPC      H15X            7.4362821565       -7.1567008870       -3.3033448680  MEMB      102             0.0000000000
     11845       102  POPC      H15Y            6.0415775712       -7.5658034131       -4.3485957719  MEMB      102             0.0000000000
     11846       102  POPC      C316            5.5571995762       -6.5105621358       -2.4850048063  MEMB      102             0.0000000000
     11847       102  POPC      H16X            5.6691783191       -7.3093520258       -1.7257328206  MEMB      102             0.0000000000
     11848       102  POPC      H16Y            4.4859872861       -6.4035669744       -2.7636718049  MEMB      102             0.0000000000
     11849       102  POPC      H16Z            5.8742105211       -5.5482517840       -2.0246257466  MEMB      102             0.0000000000
     11850       103  SAPE      N              -8.4190558467        7.3785060588      -19.2198133914  MEMB      103             0.0000000000
     11851       103  SAPE      HN1            -9.2921682940        7.8927492989      -18.9966577638  MEMB      103             0.0000000000
     11852       103  SAPE      HN2            -8.2534212800        6.6285310348      -18.5213981792  MEMB      103             0.0000000000
     11853       103  SAPE      HN3            -7.5907889519        8.0029520776      -19.2770982993  MEMB      103             0.0000000000
     11854       103  SAPE      C12            -8.5854531699        6.6649034511      -20.5216971269  MEMB      103             0.0000000000
     11855       103  SAPE      H12A           -7.6995008415        6.0122300551      -20.6972792417  MEMB      103             0.0000000000
     11856       103  SAPE      H12B           -8.6558893980        7.4390321324      -21.2976983120  MEMB      103             0.0000000000
     11857       103  SAPE      C11            -9.8931074013        5.8875369057      -20.5336441000  MEMB      103             0.0000000000
     11858       103  SAPE      H11A          -10.0410740451        5.5036185411      -21.5612439555  MEMB      103             0.0000000000
     11859       103  SAPE      H11B          -10.7475873897        6.5512667007      -20.2960083403  MEMB      103             0.0000000000
     11860       103  SAPE      P              -9.4537841124        3.3914673704      -20.0408689921  MEMB      103             0.0000000000
     11861       103  SAPE      O13           -10.4966367436        2.9226636992      -20.9720460995  MEMB      103             0.0000000000
     11862       103  SAPE      O14            -8.0429332505        3.4521043700      -20.4484831258  MEMB      103             0.0000000000
     11863       103  SAPE      O12            -9.8583190583        4.8563134520      -19.5697245145  MEMB      103             0.0000000000
     11864       103  SAPE      O11            -9.6529499638        2.7285533338      -18.6372814758  MEMB      103             0.0000000000
     11865       103  SAPE      C1             -8.8970664535        3.2979188452      -17.5949566411  MEMB      103             0.0000000000
     11866       103  SAPE      HA             -7.8482277353        3.1792629341      -17.8992468718  MEMB      103             0.0000000000
     11867       103  SAPE      HB             -9.1012847582        4.3765731313      -17.3875154802  MEMB      103             0.0000000000
     11868       103  SAPE      C2             -9.2041976263        2.5471240983      -16.3132505400  MEMB      103             0.0000000000
     11869       103  SAPE      HS             -8.8969914718        1.4823711575      -16.4953987032  MEMB      103             0.0000000000
     11870       103  SAPE      O21           -10.5586957274        2.7077758430      -15.9150055996  MEMB      103             0.0000000000
     11871       103  SAPE      C21           -10.9859257913        1.9956666513      -14.8967319415  MEMB      103             0.0000000000
     11872       103  SAPE      O22           -10.4759485058        1.0698174753      -14.3399958325  MEMB      103             0.0000000000
     11873       103  SAPE      C22           -12.3353261735        2.4170807886      -14.4750006428  MEMB      103             0.0000000000
     11874       103  SAPE      H2R           -12.5521248177        3.3973345107      -14.9315363438  MEMB      103             0.0000000000
     11875       103  SAPE      H2S           -12.9717049426        1.6038277608      -14.8837547147  MEMB      103             0.0000000000
     11876       103  SAPE      C3             -8.3566392651        3.1316814777      -15.2333531664  MEMB      103             0.0000000000
     11877       103  SAPE      HX             -7.3960021688        2.7074678276      -15.5754876018  MEMB      103             0.0000000000
     11878       103  SAPE      HY             -8.4466516591        2.6681238947      -14.2721858077  MEMB      103             0.0000000000
     11879       103  SAPE      O31            -8.3923883178        4.5661864110      -15.0429219659  MEMB      103             0.0000000000
     11880       103  SAPE      C31            -8.8508124041        4.9585032482      -13.8433406868  MEMB      103             0.0000000000
     11881       103  SAPE      O32            -9.1917156763        4.2485861355      -12.9231083472  MEMB      103             0.0000000000
     11882       103  SAPE      C32            -8.8661272220        6.4523616014      -13.7702148546  MEMB      103             0.0000000000
     11883       103  SAPE      H2X            -9.1964689830        6.8027996915      -14.7678705784  MEMB      103             0.0000000000
     11884       103  SAPE      H2Y            -7.8353475077        6.8015922159      -13.5466410765  MEMB      103             0.0000000000
     11885       103  SAPE      C23           -12.3885840109        2.4722563138      -12.9341291038  MEMB      103             0.0000000000
     11886       103  SAPE      H3R           -11.6600895398        3.2489861994      -12.5953907486  MEMB      103             0.0000000000
     11887       103  SAPE      H3S           -12.0611439577        1.5043407344      -12.4764065205  MEMB      103             0.0000000000
     11888       103  SAPE      C24           -13.7870215749        2.8132567384      -12.4140159593  MEMB      103             0.0000000000
     11889       103  SAPE      H4R           -13.7670872027        2.6959223519      -11.3090339475  MEMB      103             0.0000000000
     11890       103  SAPE      H4S           -14.5326540400        2.0855752730      -12.7983110789  MEMB      103             0.0000000000
     11891       103  SAPE      C25           -14.1361520012        4.2143099622      -12.8457748677  MEMB      103             0.0000000000
     11892       103  SAPE      H5R           -14.3161077722        4.3384065567      -13.9269927595  MEMB      103             0.0000000000
     11893       103  SAPE      C26           -14.2384090695        5.2899029509      -12.0466371010  MEMB      103             0.0000000000
     11894       103  SAPE      H6R           -14.4529748024        6.2715559814      -12.4908066022  MEMB      103             0.0000000000
     11895       103  SAPE      C27           -14.0419117657        5.3636802614      -10.5600138349  MEMB      103             0.0000000000
     11896       103  SAPE      H7R           -14.2064331118        4.3813605462      -10.0572199344  MEMB      103             0.0000000000
     11897       103  SAPE      H7S           -14.8394748477        6.0315310157      -10.1871737435  MEMB      103             0.0000000000
     11898       103  SAPE      C28           -12.7127930081        5.9965752399      -10.2364731348  MEMB      103             0.0000000000
     11899       103  SAPE      H8R           -12.4660830640        6.9262494839      -10.7550443411  MEMB      103             0.0000000000
     11900       103  SAPE      C29           -11.8457410069        5.5987556652       -9.3168717513  MEMB      103             0.0000000000
     11901       103  SAPE      H9R           -10.8180519374        6.0171147079       -9.3236761234  MEMB      103             0.0000000000
     11902       103  SAPE      C210          -12.0085972170        4.4345222960       -8.4154317874  MEMB      103             0.0000000000
     11903       103  SAPE      H10R          -10.9382463546        4.3471543122       -8.2083099767  MEMB      103             0.0000000000
     11904       103  SAPE      H10S          -12.3577922535        3.5230271009       -8.9894220622  MEMB      103             0.0000000000
     11905       103  SAPE      C211          -12.7123484499        4.5312111616       -7.0825772656  MEMB      103             0.0000000000
     11906       103  SAPE      H11R          -13.5982379980        5.1406138514       -7.1054963603  MEMB      103             0.0000000000
     11907       103  SAPE      C212          -12.3723026149        4.0020651636       -5.8715744528  MEMB      103             0.0000000000
     11908       103  SAPE      H12R          -12.7174564317        4.3584436501       -4.9198688259  MEMB      103             0.0000000000
     11909       103  SAPE      C213          -11.2592577970        3.1166212389       -5.5692775554  MEMB      103             0.0000000000
     11910       103  SAPE      H13R          -10.7290604973        3.5986389741       -4.7676607322  MEMB      103             0.0000000000
     11911       103  SAPE      H13S          -10.8748742754        3.2043781060       -6.4684307712  MEMB      103             0.0000000000
     11912       103  SAPE      C214          -11.2702385320        1.6728908773       -5.3033420065  MEMB      103             0.0000000000
     11913       103  SAPE      H14R          -11.5770103952        1.1506884441       -6.3283072067  MEMB      103             0.0000000000
     11914       103  SAPE      C215          -10.1229964824        0.9578482380       -4.9123324270  MEMB      103             0.0000000000
     11915       103  SAPE      H15R          -10.5417215543        0.0815447173       -4.3142905219  MEMB      103             0.0000000000
     11916       103  SAPE      C216           -8.9873039325        1.1256185824       -3.9426431649  MEMB      103             0.0000000000
     11917       103  SAPE      H16R           -8.3060027151        1.8986392512       -4.3674780703  MEMB      103             0.0000000000
     11918       103  SAPE      H16S           -8.0421819971        0.5081348542       -3.9219881191  MEMB      103             0.0000000000
     11919       103  SAPE      C217           -9.7836213507        0.7624187102       -2.6863146999  MEMB      103             0.0000000000
     11920       103  SAPE      H17R           -8.7870607352        0.8546636564       -2.1922862262  MEMB      103             0.0000000000
     11921       103  SAPE      H17S           -9.6556466428       -0.1137015519       -2.0165134987  MEMB      103             0.0000000000
     11922       103  SAPE      C218          -11.1102446697        1.7826607989       -2.2972778764  MEMB      103             0.0000000000
     11923       103  SAPE      H18R          -11.1526350273        2.8625480160       -2.6039808003  MEMB      103             0.0000000000
     11924       103  SAPE      H18S          -11.2564522200        2.1088817268       -1.2148966896  MEMB      103             0.0000000000
     11925       103  SAPE      C219          -12.3838640981        1.2337538019       -2.2458669990  MEMB      103             0.0000000000
     11926       103  SAPE      H19R          -12.0448926376        0.3242090212       -1.7090107110  MEMB      103             0.0000000000
     11927       103  SAPE      H19S          -12.5783395803        1.2314161629       -3.3342184456  MEMB      103             0.0000000000
     11928       103  SAPE      C220          -13.2848149188        2.1584733277       -1.4624452956  MEMB      103             0.0000000000
     11929       103  SAPE      H20R          -13.3089927109        3.1509255423       -1.9955772454  MEMB      103             0.0000000000
     11930       103  SAPE      H20S          -13.0902673743        2.3945382646       -0.3963404958  MEMB      103             0.0000000000
     11931       103  SAPE      H20T          -14.2261227518        1.5891505506       -1.5322300720  MEMB      103             0.0000000000
     11932       103  SAPE      C33            -9.8307403745        6.9262409859      -12.6653379606  MEMB      103             0.0000000000
     11933       103  SAPE      H3X            -9.6339113361        6.4340725781      -11.6850315584  MEMB      103             0.0000000000
     11934       103  SAPE      H3Y           -10.8733287565        6.6496250357      -12.9517220187  MEMB      103             0.0000000000
     11935       103  SAPE      C34            -9.7482837486        8.4454531794      -12.4870749395  MEMB      103             0.0000000000
     11936       103  SAPE      H4X           -10.6558714309        8.7678069924      -11.9360456593  MEMB      103             0.0000000000
     11937       103  SAPE      H4Y            -9.8090566259        8.9023972788      -13.5003524705  MEMB      103             0.0000000000
     11938       103  SAPE      C35            -8.4868979612        8.9544065208      -11.7472676763  MEMB      103             0.0000000000
     11939       103  SAPE      H5X            -8.5233242440       10.0682077166      -11.7479164604  MEMB      103             0.0000000000
     11940       103  SAPE      H5Y            -7.5759088108        8.6632033193      -12.3184190874  MEMB      103             0.0000000000
     11941       103  SAPE      C36            -8.3662601464        8.5143122546      -10.2701046151  MEMB      103             0.0000000000
     11942       103  SAPE      H6X            -7.4813294364        9.0023439091       -9.7968602287  MEMB      103             0.0000000000
     11943       103  SAPE      H6Y            -8.1563998670        7.4229472103      -10.1951242473  MEMB      103             0.0000000000
     11944       103  SAPE      C37            -9.6257315440        8.8559057517       -9.4393445069  MEMB      103             0.0000000000
     11945       103  SAPE      H7X           -10.4682185848        8.2177724445       -9.7770082642  MEMB      103             0.0000000000
     11946       103  SAPE      H7Y            -9.9149320927        9.9189908740       -9.5857716787  MEMB      103             0.0000000000
     11947       103  SAPE      C38            -9.3843631596        8.6160979398       -7.9467980281  MEMB      103             0.0000000000
     11948       103  SAPE      H8X            -8.6528823511        9.3830961696       -7.6050390154  MEMB      103             0.0000000000
     11949       103  SAPE      H8Y            -8.9550122985        7.5909622949       -7.8744154776  MEMB      103             0.0000000000
     11950       103  SAPE      C39           -10.5829331418        8.6969345426       -6.9909521946  MEMB      103             0.0000000000
     11951       103  SAPE      H9X           -11.2896616412        7.8575704626       -7.1785885357  MEMB      103             0.0000000000
     11952       103  SAPE      H9Y           -11.1022370832        9.6567005943       -7.1421932754  MEMB      103             0.0000000000
     11953       103  SAPE      C310          -10.1734400174        8.6895208507       -5.5044835473  MEMB      103             0.0000000000
     11954       103  SAPE      H10X          -11.1112464126        8.6114918245       -4.9149660836  MEMB      103             0.0000000000
     11955       103  SAPE      H10Y           -9.6840783146        9.6643980777       -5.2785371740  MEMB      103             0.0000000000
     11956       103  SAPE      C311           -9.1886919187        7.5578126775       -5.1832994782  MEMB      103             0.0000000000
     11957       103  SAPE      H11X           -8.2646940648        7.7998442079       -5.7551866114  MEMB      103             0.0000000000
     11958       103  SAPE      H11Y           -9.6251527790        6.6158301900       -5.5847226121  MEMB      103             0.0000000000
     11959       103  SAPE      C312           -8.8035230700        7.3197561990       -3.7063016391  MEMB      103             0.0000000000
     11960       103  SAPE      H12X           -8.2811865685        8.1783251292       -3.2726606620  MEMB      103             0.0000000000
     11961       103  SAPE      H12Y           -8.0079744932        6.5536094129       -3.6977730314  MEMB      103             0.0000000000
     11962       103  SAPE      C313           -9.9873741538        6.8256980128       -2.8593202412  MEMB      103             0.0000000000
     11963       103  SAPE      H13X          -10.4342487937        6.0396708480       -3.4390397029  MEMB      103             0.0000000000
     11964       103  SAPE      H13Y          -10.8707864401        7.4406462002       -2.9142670585  MEMB      103             0.0000000000
     11965       103  SAPE      C314           -9.7454038457        6.4726123551       -1.3779181986  MEMB      103             0.0000000000
     11966       103  SAPE      H14X          -10.5908581012        5.8538106200       -0.9858834383  MEMB      103             0.0000000000
     11967       103  SAPE      H14Y           -9.7591652763        7.4488418677       -0.8586260198  MEMB      103             0.0000000000
     11968       103  SAPE      C315           -8.3832535238        5.8989828020       -0.9931769283  MEMB      103             0.0000000000
     11969       103  SAPE      H15X           -7.5378433235        6.3619651112       -1.5200818029  MEMB      103             0.0000000000
     11970       103  SAPE      H15Y           -8.2654537651        4.8873114018       -1.2351389383  MEMB      103             0.0000000000
     11971       103  SAPE      C316           -8.1716257813        5.6890375255        0.4707622411  MEMB      103             0.0000000000
     11972       103  SAPE      H16X           -9.1058855305        5.2293143550        0.8887071025  MEMB      103             0.0000000000
     11973       103  SAPE      H16Y           -8.0288648235        6.6744533165        0.8781619217  MEMB      103             0.0000000000
     11974       103  SAPE      C317           -6.8374890903        5.0025294059        0.7979131386  MEMB      103             0.0000000000
     11975       103  SAPE      H17X           -6.0738170436        4.9433159395        0.0260967356  MEMB      103             0.0000000000
     11976       103  SAPE      H17Y           -6.8607001522        3.9416444993        0.7333057445  MEMB      103             0.0000000000
     11977       103  SAPE      C318           -6.4322260649        5.1904960059        2.2370470940  MEMB      103             0.0000000000
     11978       103  SAPE      H18X           -5.9188878231        5.9700378346        2.6637601837  MEMB      103             0.0000000000
     11979       103  SAPE      H18Y           -5.7953800838        4.3306053900        2.5595123530  MEMB      103             0.0000000000
     11980       103  SAPE      H18Z           -7.4064505524        5.2162220277        2.8240717749  MEMB      103             0.0000000000
     11981       104  OSM       N              -6.0712613495      -12.0627815550      -22.3086537784  MEMB      104             0.0000000000
     11982       104  OSM       C15            -6.9235826524      -13.2017929316      -22.6826260702  MEMB      104             0.0000000000
     11983       104  OSM       H15A           -6.3358962303      -13.8533784458      -23.3161628235  MEMB      104             0.0000000000
     11984       104  OSM       H15B           -7.7527868616      -12.8422675085      -23.2759817422  MEMB      104             0.0000000000
     11985       104  OSM       H15C           -7.2433732377      -13.7531236371      -21.8094996069  MEMB      104             0.0000000000
     11986       104  OSM       C14            -5.6940053871      -11.2681114411      -23.5270530088  MEMB      104             0.0000000000
     11987       104  OSM       H14A           -5.0826196318      -10.4109361730      -23.2227999333  MEMB      104             0.0000000000
     11988       104  OSM       H14B           -6.5555930021      -10.8756281520      -24.0335318731  MEMB      104             0.0000000000
     11989       104  OSM       H14C           -5.1312446569      -11.8895320498      -24.2197677919  MEMB      104             0.0000000000
     11990       104  OSM       C13            -6.8044770425      -11.1795683398      -21.3433366570  MEMB      104             0.0000000000
     11991       104  OSM       H13A           -6.9237340396      -10.1676035176      -21.7259438519  MEMB      104             0.0000000000
     11992       104  OSM       H13B           -6.1916814114      -11.0177590345      -20.4463025918  MEMB      104             0.0000000000
     11993       104  OSM       H13C           -7.7441190153      -11.5871950117      -21.0346917580  MEMB      104             0.0000000000
     11994       104  OSM       C12            -4.7969461603      -12.6049960419      -21.6961015505  MEMB      104             0.0000000000
     11995       104  OSM       H12A           -4.3429170324      -13.2759992279      -22.4129678910  MEMB      104             0.0000000000
     11996       104  OSM       H12B           -5.0315223828      -13.1507992831      -20.7896684887  MEMB      104             0.0000000000
     11997       104  OSM       C11            -3.7673379375      -11.5714988900      -21.2394806282  MEMB      104             0.0000000000
     11998       104  OSM       H11A           -3.5787384313      -10.8076915517      -22.0308760970  MEMB      104             0.0000000000
     11999       104  OSM       H11B           -2.7924819823      -12.0781090806      -21.0401956444  MEMB      104             0.0000000000
     12000       104  OSM       P              -4.1948538355       -9.4867176657      -19.6802019153  MEMB      104             0.0000000000
     12001       104  OSM       O13            -2.7821121242       -9.0677035676      -19.6712004822  MEMB      104             0.0000000000
     12002       104  OSM       O14            -5.1426924964       -8.7564509646      -20.5516674112  MEMB      104             0.0000000000
     12003       104  OSM       O11            -4.7856572144       -9.4591352450      -18.2094952278  MEMB      104             0.0000000000
     12004       104  OSM       O12            -4.2768304811      -11.0287898281      -20.0329196378  MEMB      104             0.0000000000
     12005       104  OSM       C1S            -4.9658295575      -10.6841307194      -17.4694497478  MEMB      104             0.0000000000
     12006       104  OSM       H1S            -4.0875176500      -11.3533020243      -17.6154842198  MEMB      104             0.0000000000
     12007       104  OSM       H1T            -5.8721173405      -11.2132275057      -17.8339871460  MEMB      104             0.0000000000
     12008       104  OSM       NF             -4.0540823575       -9.8036845643      -15.3875411233  MEMB      104             0.0000000000
     12009       104  OSM       HNF            -3.1945770583      -10.2419197584      -15.1448934573  MEMB      104             0.0000000000
     12010       104  OSM       C2S            -5.1165127574      -10.5225758408      -15.9078205894  MEMB      104             0.0000000000
     12011       104  OSM       H2S            -6.0346783179       -9.9337580991      -15.6973517276  MEMB      104             0.0000000000
     12012       104  OSM       C3S            -5.1408290979      -11.8807817166      -15.2111087411  MEMB      104             0.0000000000
     12013       104  OSM       H3S            -4.2158218665      -12.4521154029      -15.4485569881  MEMB      104             0.0000000000
     12014       104  OSM       O3             -6.2532623531      -12.6214801975      -15.6795129901  MEMB      104             0.0000000000
     12015       104  OSM       HO3            -6.8207754761      -11.9735872910      -16.0957544457  MEMB      104             0.0000000000
     12016       104  OSM       C4S            -5.2988320844      -11.7965649706      -13.7007444205  MEMB      104             0.0000000000
     12017       104  OSM       H4S            -6.3140870216      -11.5307414043      -13.3718320340  MEMB      104             0.0000000000
     12018       104  OSM       C5S            -4.3134142570      -11.9490495655      -12.7816712301  MEMB      104             0.0000000000
     12019       104  OSM       H5S            -3.2674894622      -12.0125781963      -13.1061987495  MEMB      104             0.0000000000
     12020       104  OSM       C6S            -4.4156569299      -11.9020293424      -11.2854726214  MEMB      104             0.0000000000
     12021       104  OSM       H6S            -3.9025623179      -11.0199540358      -10.8506921503  MEMB      104             0.0000000000
     12022       104  OSM       H6T            -3.9038355093      -12.8130885314      -10.8897972081  MEMB      104             0.0000000000
     12023       104  OSM       C7S            -5.8201539828      -11.9157676160      -10.7085289198  MEMB      104             0.0000000000
     12024       104  OSM       H7S            -6.3753533070      -12.7929975716      -11.0857767316  MEMB      104             0.0000000000
     12025       104  OSM       H7T            -6.3861766951      -11.0310425894      -11.0870566372  MEMB      104             0.0000000000
     12026       104  OSM       C8S            -5.7188017433      -11.8571530915       -9.1778609010  MEMB      104             0.0000000000
     12027       104  OSM       H8S            -4.9475270997      -11.1022352839       -8.9139448730  MEMB      104             0.0000000000
     12028       104  OSM       H8T            -5.5491037005      -12.8105128998       -8.6437990002  MEMB      104             0.0000000000
     12029       104  OSM       C9S            -6.9497417147      -11.2426931486       -8.6653691336  MEMB      104             0.0000000000
     12030       104  OSM       H9S            -7.8487643094      -11.8314606260       -8.9449651037  MEMB      104             0.0000000000
     12031       104  OSM       H9T            -6.9787281301      -10.3379191814       -9.2988824240  MEMB      104             0.0000000000
     12032       104  OSM       C10S           -7.0282153497      -10.7587549183       -7.2287318695  MEMB      104             0.0000000000
     12033       104  OSM       H10S           -8.0749483851      -11.0068167169       -7.0290222206  MEMB      104             0.0000000000
     12034       104  OSM       H10T           -6.8521057588       -9.6621731208       -7.1429189674  MEMB      104             0.0000000000
     12035       104  OSM       C11S           -6.4987398263      -11.5800374805       -6.0903744248  MEMB      104             0.0000000000
     12036       104  OSM       H11S           -5.4122843099      -11.4236112867       -6.0430308681  MEMB      104             0.0000000000
     12037       104  OSM       H11T           -6.7158271940      -12.6476685164       -6.3153139677  MEMB      104             0.0000000000
     12038       104  OSM       C12S           -7.1120075242      -11.1372576362       -4.7502888460  MEMB      104             0.0000000000
     12039       104  OSM       H12S           -6.8444103871      -11.9359262511       -4.0272343413  MEMB      104             0.0000000000
     12040       104  OSM       H12T           -8.2258226766      -11.0362540983       -4.7688046461  MEMB      104             0.0000000000
     12041       104  OSM       C13S           -6.5603391405       -9.7900562719       -4.2589830599  MEMB      104             0.0000000000
     12042       104  OSM       H13S           -6.5964220397       -9.0476653851       -5.0900837000  MEMB      104             0.0000000000
     12043       104  OSM       H13T           -5.4971324483       -9.9008060290       -3.9653958188  MEMB      104             0.0000000000
     12044       104  OSM       C14S           -7.4068558764       -9.2111890313       -3.1199353823  MEMB      104             0.0000000000
     12045       104  OSM       H14S           -8.4347826763       -9.1052612346       -3.5450751350  MEMB      104             0.0000000000
     12046       104  OSM       H14T           -7.0697456490       -8.1895262683       -2.8504468344  MEMB      104             0.0000000000
     12047       104  OSM       C15S           -7.4979072770      -10.0691708737       -1.8447458849  MEMB      104             0.0000000000
     12048       104  OSM       H15S           -7.9480345425      -11.0552187155       -2.0890256567  MEMB      104             0.0000000000
     12049       104  OSM       H15T           -8.1674382858       -9.5061004307       -1.1765938265  MEMB      104             0.0000000000
     12050       104  OSM       C16S           -6.2345881871      -10.1852682478       -0.9739663050  MEMB      104             0.0000000000
     12051       104  OSM       H16S           -6.0277425119       -9.1683791589       -0.5707083123  MEMB      104             0.0000000000
     12052       104  OSM       H16T           -5.3805832134      -10.4998038898       -1.6050760869  MEMB      104             0.0000000000
     12053       104  OSM       C17S           -6.3924457142      -11.0853189469        0.2708244833  MEMB      104             0.0000000000
     12054       104  OSM       H17S           -7.4006910605      -10.9137678842        0.7107448773  MEMB      104             0.0000000000
     12055       104  OSM       H17T           -5.6507792350      -10.7997377557        1.0513981848  MEMB      104             0.0000000000
     12056       104  OSM       C18S           -6.2426316193      -12.5641625880       -0.0340777771  MEMB      104             0.0000000000
     12057       104  OSM       H18S           -6.3414307801      -13.2044560884        0.8705314888  MEMB      104             0.0000000000
     12058       104  OSM       H18T           -5.2709071446      -12.7881085159       -0.5259735164  MEMB      104             0.0000000000
     12059       104  OSM       H18U           -7.0517651160      -12.8213428355       -0.7477751771  MEMB      104             0.0000000000
     12060       104  OSM       C1F            -4.0075793142       -8.5436717463      -15.5356997129  MEMB      104             0.0000000000
     12061       104  OSM       OF             -4.8538545182       -7.7431151799      -15.9117245646  MEMB      104             0.0000000000
     12062       104  OSM       C2F            -2.7375098916       -8.1837504572      -15.2114381621  MEMB      104             0.0000000000
     12063       104  OSM       H2F            -2.6269019734       -7.3666529469      -15.9882365155  MEMB      104             0.0000000000
     12064       104  OSM       H2G            -1.9283578179       -8.9372705216      -15.3740062273  MEMB      104             0.0000000000
     12065       104  OSM       C3F            -2.7458458290       -7.6934042731      -13.7473768041  MEMB      104             0.0000000000
     12066       104  OSM       H3F            -3.3275823492       -6.7600698222      -13.7264088824  MEMB      104             0.0000000000
     12067       104  OSM       H3G            -1.7619713706       -7.3480127373      -13.4255300241  MEMB      104             0.0000000000
     12068       104  OSM       C4F            -2.5565324890       -8.5872652630      -12.5466464030  MEMB      104             0.0000000000
     12069       104  OSM       H4F            -1.4752158236       -8.8622315125      -12.3311587523  MEMB      104             0.0000000000
     12070       104  OSM       H4G            -3.1528907900       -9.4436075861      -12.8296778598  MEMB      104             0.0000000000
     12071       104  OSM       C5F            -3.1923534875       -7.9819499613      -11.3224147440  MEMB      104             0.0000000000
     12072       104  OSM       H5F            -4.1994539469       -7.6067363528      -11.5624813382  MEMB      104             0.0000000000
     12073       104  OSM       H5G            -2.8841529455       -7.0097139902      -11.0627976489  MEMB      104             0.0000000000
     12074       104  OSM       C6F            -2.8080645033       -8.6979103989      -10.0358617347  MEMB      104             0.0000000000
     12075       104  OSM       H6F            -1.8023922437       -8.5582778705       -9.6051014703  MEMB      104             0.0000000000
     12076       104  OSM       H6G            -2.2769304577       -9.6193367762      -10.2334444446  MEMB      104             0.0000000000
     12077       104  OSM       C7F            -3.5196915839       -8.0654905016       -8.8530803930  MEMB      104             0.0000000000
     12078       104  OSM       H7F            -4.4891957974       -7.6499527395       -9.1896052330  MEMB      104             0.0000000000
     12079       104  OSM       H7G            -3.0365685141       -7.1752621991       -8.5092069999  MEMB      104             0.0000000000
     12080       104  OSM       C8F            -3.3122278171       -8.7252944625       -7.5009175965  MEMB      104             0.0000000000
     12081       104  OSM       H8F            -3.4726234498       -9.7697873300       -7.7967852334  MEMB      104             0.0000000000
     12082       104  OSM       H8G            -4.1674971654       -8.3446621798       -6.9055928707  MEMB      104             0.0000000000
     12083       104  OSM       C9F            -1.9922474634       -8.5339848858       -6.7414408856  MEMB      104             0.0000000000
     12084       104  OSM       H9F            -1.0764502332       -8.4425041813       -7.3657765774  MEMB      104             0.0000000000
     12085       104  OSM       C10F           -1.8826761208       -8.1847724286       -5.4355709319  MEMB      104             0.0000000000
     12086       104  OSM       H10F           -0.8827724432       -7.9218305893       -5.0404514757  MEMB      104             0.0000000000
     12087       104  OSM       C11F           -3.0056391243       -7.9011605126       -4.4424163832  MEMB      104             0.0000000000
     12088       104  OSM       H11F           -3.9770714027       -7.8559502479       -4.9623963111  MEMB      104             0.0000000000
     12089       104  OSM       H11G           -2.9955708465       -6.8980263388       -3.9452516669  MEMB      104             0.0000000000
     12090       104  OSM       C12F           -3.0248912949       -8.8172523855       -3.2187220680  MEMB      104             0.0000000000
     12091       104  OSM       H12F           -3.3237358641       -9.8298181093       -3.5468617323  MEMB      104             0.0000000000
     12092       104  OSM       H12G           -3.8136887363       -8.4063684274       -2.5473749054  MEMB      104             0.0000000000
     12093       104  OSM       C13F           -1.7356236136       -8.8262533770       -2.3779875010  MEMB      104             0.0000000000
     12094       104  OSM       H13F           -1.4942334648       -7.8136331101       -2.0955611911  MEMB      104             0.0000000000
     12095       104  OSM       H13G           -0.8614064208       -9.1958109483       -2.9656690897  MEMB      104             0.0000000000
     12096       104  OSM       C14F           -1.9121941674       -9.3602689933       -0.9433188201  MEMB      104             0.0000000000
     12097       104  OSM       H14F           -2.8281461738       -9.0578185902       -0.4297883788  MEMB      104             0.0000000000
     12098       104  OSM       H14G           -0.9704648607       -9.1578999846       -0.3528608021  MEMB      104             0.0000000000
     12099       104  OSM       C15F           -2.1230978362      -10.8056356315       -1.0045078698  MEMB      104             0.0000000000
     12100       104  OSM       H15F           -0.9999434782      -10.8236108617       -1.1973612081  MEMB      104             0.0000000000
     12101       104  OSM       H15G           -2.8085131193      -11.1235378217       -1.8197717224  MEMB      104             0.0000000000
     12102       104  OSM       C16F           -2.4687889981      -11.7267710208        0.1553264488  MEMB      104             0.0000000000
     12103       104  OSM       H16F           -3.5080818193      -11.5006645444        0.4022697112  MEMB      104             0.0000000000
     12104       104  OSM       H16G           -1.8069672151      -11.1268326240        0.7783763196  MEMB      104             0.0000000000
     12105       104  OSM       C17F           -2.3127662753      -13.3238069310        0.1393454195  MEMB      104             0.0000000000
     12106       104  OSM       H17F           -1.3367700428      -13.8000991201       -0.1076930650  MEMB      104             0.0000000000
     12107       104  OSM       H17G           -2.9626538293      -13.7576777485       -0.6445150582  MEMB      104             0.0000000000
     12108       104  OSM       C18F           -2.6384795251      -14.0127577762        1.4482489913  MEMB      104             0.0000000000
     12109       104  OSM       H18F           -2.5293062524      -15.1176614120        1.3628944761  MEMB      104             0.0000000000
     12110       104  OSM       H18G           -3.6215919374      -13.6666002454        1.7843044833  MEMB      104             0.0000000000
     12111       104  OSM       H18H           -1.9755645900      -13.6931173950        2.2475018572  MEMB      104             0.0000000000
     12112       105  CHL1      C3             -4.8018951132       11.3085379665      -17.3509300760  MEMB      105             0.0000000000
     12113       105  CHL1      H3             -5.7852325993       10.9233326179      -16.9876682010  MEMB      105             0.0000000000
     12114       105  CHL1      O3             -4.7530127347       11.1447531608      -18.7594367409  MEMB      105             0.0000000000
     12115       105  CHL1      H3'            -5.5146481415       11.6483710906      -19.1068865579  MEMB      105             0.0000000000
     12116       105  CHL1      C4             -4.6900840436       12.8060952742      -17.0074556325  MEMB      105             0.0000000000
     12117       105  CHL1      H4A            -3.7634479156       13.2197833324      -17.4549899711  MEMB      105             0.0000000000
     12118       105  CHL1      H4B            -5.5500979269       13.3199792511      -17.4882084361  MEMB      105             0.0000000000
     12119       105  CHL1      C5             -4.7001627614       13.0286890398      -15.5150426230  MEMB      105             0.0000000000
     12120       105  CHL1      C6             -5.6047161209       13.8348326642      -14.9517316201  MEMB      105             0.0000000000
     12121       105  CHL1      H6             -6.2870491631       14.4371611568      -15.5757528050  MEMB      105             0.0000000000
     12122       105  CHL1      C7             -5.7222153393       13.9668035391      -13.4706971858  MEMB      105             0.0000000000
     12123       105  CHL1      H7A            -5.8992379634       15.0137889633      -13.2341934178  MEMB      105             0.0000000000
     12124       105  CHL1      H7B            -6.6258397397       13.3951466575      -13.1892237537  MEMB      105             0.0000000000
     12125       105  CHL1      C8             -4.4658213128       13.4637386240      -12.6794564787  MEMB      105             0.0000000000
     12126       105  CHL1      H8             -3.6418243699       14.1873293755      -12.8911636514  MEMB      105             0.0000000000
     12127       105  CHL1      C14            -4.7038304595       13.2571504461      -11.1727846779  MEMB      105             0.0000000000
     12128       105  CHL1      H14            -5.5102684543       12.5038059433      -11.0479112568  MEMB      105             0.0000000000
     12129       105  CHL1      C15            -5.3405689935       14.3665654305      -10.4584019457  MEMB      105             0.0000000000
     12130       105  CHL1      H15A           -5.0021837122       15.1173569186      -11.1996802753  MEMB      105             0.0000000000
     12131       105  CHL1      H15B           -6.4404344878       14.3655933479      -10.4776980430  MEMB      105             0.0000000000
     12132       105  CHL1      C16            -4.8084698689       14.3722598511       -9.0021518593  MEMB      105             0.0000000000
     12133       105  CHL1      H16A           -4.0749169840       15.1721650522       -8.7682414750  MEMB      105             0.0000000000
     12134       105  CHL1      H16B           -5.6523396447       14.4411781398       -8.2827452061  MEMB      105             0.0000000000
     12135       105  CHL1      C17            -3.9964329253       13.0806722644       -8.8655587241  MEMB      105             0.0000000000
     12136       105  CHL1      H17            -4.7509618848       12.3105894696       -8.6021863846  MEMB      105             0.0000000000
     12137       105  CHL1      C13            -3.4961615504       12.8757686519      -10.3179726782  MEMB      105             0.0000000000
     12138       105  CHL1      C18            -2.3017420159       13.8464863281      -10.5381672381  MEMB      105             0.0000000000
     12139       105  CHL1      H18A           -1.4676484750       13.5973352292       -9.8506866308  MEMB      105             0.0000000000
     12140       105  CHL1      H18B           -1.9163041164       13.7904853559      -11.5738186882  MEMB      105             0.0000000000
     12141       105  CHL1      H18C           -2.5951689739       14.8978828514      -10.3455487611  MEMB      105             0.0000000000
     12142       105  CHL1      C12            -3.2144135127       11.4542794796      -10.7621476946  MEMB      105             0.0000000000
     12143       105  CHL1      H12A           -2.3115919434       11.0681765997      -10.2600445562  MEMB      105             0.0000000000
     12144       105  CHL1      H12B           -4.0917755210       10.8523653634      -10.4319599656  MEMB      105             0.0000000000
     12145       105  CHL1      C11            -3.0433965371       11.3522424287      -12.3001259474  MEMB      105             0.0000000000
     12146       105  CHL1      H11A           -2.0335705531       11.7214380182      -12.5646659985  MEMB      105             0.0000000000
     12147       105  CHL1      H11B           -3.0883888653       10.2762858923      -12.5595792948  MEMB      105             0.0000000000
     12148       105  CHL1      C9             -4.0703472796       12.1165670925      -13.1992952240  MEMB      105             0.0000000000
     12149       105  CHL1      H9             -5.0273602093       11.5415812817      -13.1150447409  MEMB      105             0.0000000000
     12150       105  CHL1      C10            -3.7113638096       12.1632405565      -14.7055588442  MEMB      105             0.0000000000
     12151       105  CHL1      C19            -2.3335046209       12.8424191944      -14.9613836113  MEMB      105             0.0000000000
     12152       105  CHL1      H19A           -1.4975582954       12.2210872428      -14.5900235371  MEMB      105             0.0000000000
     12153       105  CHL1      H19B           -2.1526138161       12.9965726450      -16.0442545247  MEMB      105             0.0000000000
     12154       105  CHL1      H19C           -2.2763233491       13.8447138363      -14.4870801606  MEMB      105             0.0000000000
     12155       105  CHL1      C1             -3.6999695213       10.6907885310      -15.1802660714  MEMB      105             0.0000000000
     12156       105  CHL1      H1A            -2.8382970692       10.1482295192      -14.7331435072  MEMB      105             0.0000000000
     12157       105  CHL1      H1B            -4.6337479067       10.2149940596      -14.8001776287  MEMB      105             0.0000000000
     12158       105  CHL1      C2             -3.6641321682       10.5112899764      -16.6972796755  MEMB      105             0.0000000000
     12159       105  CHL1      H2A            -3.7328018413        9.4222602942      -16.8981966599  MEMB      105             0.0000000000
     12160       105  CHL1      H2B            -2.6936123451       10.8575255184      -17.1079367118  MEMB      105             0.0000000000
     12161       105  CHL1      C20            -2.9933886484       13.1327942091       -7.7074466457  MEMB      105             0.0000000000
     12162       105  CHL1      H20            -2.1959403379       13.8850637140       -7.9139685344  MEMB      105             0.0000000000
     12163       105  CHL1      C21            -2.2832761861       11.7654674181       -7.5071661658  MEMB      105             0.0000000000
     12164       105  CHL1      H21A           -1.6812119710       11.4979292545       -8.3909478083  MEMB      105             0.0000000000
     12165       105  CHL1      H21B           -3.0088809868       10.9444445885       -7.3350282596  MEMB      105             0.0000000000
     12166       105  CHL1      H21C           -1.5798250834       11.7981875030       -6.6493916280  MEMB      105             0.0000000000
     12167       105  CHL1      C22            -3.6728744031       13.5722989922       -6.3966298807  MEMB      105             0.0000000000
     12168       105  CHL1      H22A           -4.4678795911       14.3454425748       -6.4524903482  MEMB      105             0.0000000000
     12169       105  CHL1      H22B           -4.1925229440       12.6779826388       -5.9820144948  MEMB      105             0.0000000000
     12170       105  CHL1      C23            -2.6292046336       14.1085049139       -5.4374317948  MEMB      105             0.0000000000
     12171       105  CHL1      H23A           -1.6462112124       13.6120803155       -5.6105163078  MEMB      105             0.0000000000
     12172       105  CHL1      H23B           -2.4672398234       15.1945056254       -5.5228965290  MEMB      105             0.0000000000
     12173       105  CHL1      C24            -3.0816700343       13.7331263986       -4.0760977864  MEMB      105             0.0000000000
     12174       105  CHL1      H24A           -4.0313963298       14.1545453567       -3.6947699653  MEMB      105             0.0000000000
     12175       105  CHL1      H24B           -3.1007580438       12.6084596602       -4.0918329241  MEMB      105             0.0000000000
     12176       105  CHL1      C25            -2.1111892758       14.0370658078       -3.0450323518  MEMB      105             0.0000000000
     12177       105  CHL1      H25            -1.1049355752       13.7016833062       -3.3968945804  MEMB      105             0.0000000000
     12178       105  CHL1      C26            -2.0821892934       15.4777404344       -2.4863008434  MEMB      105             0.0000000000
     12179       105  CHL1      H26A           -3.0718283579       15.7421717013       -2.1764232116  MEMB      105             0.0000000000
     12180       105  CHL1      H26B           -1.5212350179       15.6538507908       -1.5576911956  MEMB      105             0.0000000000
     12181       105  CHL1      H26C           -1.7573903274       16.2170125768       -3.2240927636  MEMB      105             0.0000000000
     12182       105  CHL1      C27            -2.5265609432       13.0312762988       -2.0205526129  MEMB      105             0.0000000000
     12183       105  CHL1      H27A           -2.0325937655       12.0371827445       -2.0571419877  MEMB      105             0.0000000000
     12184       105  CHL1      H27B           -1.6922161804       13.4510225452       -1.6445832555  MEMB      105             0.0000000000
     12185       105  CHL1      H27C           -3.0878106432       13.3534905121       -1.1293545371  MEMB      105             0.0000000000
     12186       106  CHL1      C3              2.6647492088      -12.4386878105      -17.3188917350  MEMB      106             0.0000000000
     12187       106  CHL1      H3              1.6218825766      -12.8245964656      -17.2207965051  MEMB      106             0.0000000000
     12188       106  CHL1      O3              3.0182282984      -12.3715016303      -18.6894177399  MEMB      106             0.0000000000
     12189       106  CHL1      H3'             2.6510037658      -13.1670925075      -19.0935366412  MEMB      106             0.0000000000
     12190       106  CHL1      C4              2.7777568701      -11.0418918774      -16.6772910798  MEMB      106             0.0000000000
     12191       106  CHL1      H4A             3.8066433106      -10.6541870077      -16.8458566086  MEMB      106             0.0000000000
     12192       106  CHL1      H4B             2.0889647883      -10.3492827574      -17.2106226740  MEMB      106             0.0000000000
     12193       106  CHL1      C5              2.4724166864      -11.0925714220      -15.1970242116  MEMB      106             0.0000000000
     12194       106  CHL1      C6              1.4477077497      -10.4079638284      -14.6766522801  MEMB      106             0.0000000000
     12195       106  CHL1      H6              0.8061745499       -9.7664642336      -15.2972476751  MEMB      106             0.0000000000
     12196       106  CHL1      C7              1.0954138130      -10.4800516005      -13.2376402939  MEMB      106             0.0000000000
     12197       106  CHL1      H7A             0.7646847848       -9.4894767571      -12.8584766475  MEMB      106             0.0000000000
     12198       106  CHL1      H7B             0.2485924278      -11.1926501480      -13.1635149567  MEMB      106             0.0000000000
     12199       106  CHL1      C8              2.2342960998      -11.0399311835      -12.3526980540  MEMB      106             0.0000000000
     12200       106  CHL1      H8              3.0127326555      -10.2512568249      -12.2468374825  MEMB      106             0.0000000000
     12201       106  CHL1      C14             1.6166471956      -11.4263662506      -11.0381622057  MEMB      106             0.0000000000
     12202       106  CHL1      H14             0.8578808986      -12.2091099247      -11.3130783905  MEMB      106             0.0000000000
     12203       106  CHL1      C15             0.8110775878      -10.3476041022      -10.3155471948  MEMB      106             0.0000000000
     12204       106  CHL1      H15A            1.3334430208       -9.3661378275      -10.3570966947  MEMB      106             0.0000000000
     12205       106  CHL1      H15B           -0.1795760957      -10.2576722631      -10.8064954864  MEMB      106             0.0000000000
     12206       106  CHL1      C16             0.7635693198      -10.8737814365       -8.8779922696  MEMB      106             0.0000000000
     12207       106  CHL1      H16A            1.2948990319      -10.1419084998       -8.2313287705  MEMB      106             0.0000000000
     12208       106  CHL1      H16B           -0.2718570798      -10.9778141599       -8.5123136967  MEMB      106             0.0000000000
     12209       106  CHL1      C17             1.5867076689      -12.2095732917       -8.8353072468  MEMB      106             0.0000000000
     12210       106  CHL1      H17             0.9005456048      -13.0453701087       -9.1118769695  MEMB      106             0.0000000000
     12211       106  CHL1      C13             2.5484738426      -12.0680886365      -10.0168365193  MEMB      106             0.0000000000
     12212       106  CHL1      C18             3.6320220069      -11.0357361604       -9.6190803747  MEMB      106             0.0000000000
     12213       106  CHL1      H18A            3.9819871752      -10.4602546435      -10.4933320803  MEMB      106             0.0000000000
     12214       106  CHL1      H18B            3.2662362915      -10.2834957543       -8.8933501958  MEMB      106             0.0000000000
     12215       106  CHL1      H18C            4.4936165746      -11.5513936569       -9.1599545960  MEMB      106             0.0000000000
     12216       106  CHL1      C12             3.0784071673      -13.3741065687      -10.6521785173  MEMB      106             0.0000000000
     12217       106  CHL1      H12A            3.7291576090      -13.9643950799       -9.9803834079  MEMB      106             0.0000000000
     12218       106  CHL1      H12B            2.1976054053      -14.0086862524      -10.9068437644  MEMB      106             0.0000000000
     12219       106  CHL1      C11             3.7803613059      -13.0930885978      -11.9864225880  MEMB      106             0.0000000000
     12220       106  CHL1      H11A            4.7413803147      -12.5790669733      -11.7762813895  MEMB      106             0.0000000000
     12221       106  CHL1      H11B            4.0129521152      -14.0728952504      -12.4560794693  MEMB      106             0.0000000000
     12222       106  CHL1      C9              2.8268381102      -12.3115359894      -12.9475932398  MEMB      106             0.0000000000
     12223       106  CHL1      H9              1.9601191739      -13.0058046036      -13.0579952753  MEMB      106             0.0000000000
     12224       106  CHL1      C10             3.3256211752      -12.0899767692      -14.3729477237  MEMB      106             0.0000000000
     12225       106  CHL1      C19             4.7108587997      -11.5107391999      -14.2331654364  MEMB      106             0.0000000000
     12226       106  CHL1      H19A            5.0127704232      -11.3568026655      -15.2835763781  MEMB      106             0.0000000000
     12227       106  CHL1      H19B            4.7321858360      -10.5436655249      -13.6813464073  MEMB      106             0.0000000000
     12228       106  CHL1      H19C            5.4717126887      -12.1823502737      -13.7857300785  MEMB      106             0.0000000000
     12229       106  CHL1      C1              3.3789248968      -13.4496956858      -15.1252395499  MEMB      106             0.0000000000
     12230       106  CHL1      H1A             4.1284677554      -14.1151338268      -14.6477855563  MEMB      106             0.0000000000
     12231       106  CHL1      H1B             2.3687130272      -13.8945372870      -14.9964282619  MEMB      106             0.0000000000
     12232       106  CHL1      C2              3.6295291702      -13.4080679036      -16.6449354763  MEMB      106             0.0000000000
     12233       106  CHL1      H2A             3.4906143753      -14.4340847369      -17.0557921433  MEMB      106             0.0000000000
     12234       106  CHL1      H2B             4.6558507374      -13.0640464920      -16.9020361956  MEMB      106             0.0000000000
     12235       106  CHL1      C20             2.1108369971      -12.5340391734       -7.4249292825  MEMB      106             0.0000000000
     12236       106  CHL1      H20             2.7583096302      -11.7144132489       -7.0375749115  MEMB      106             0.0000000000
     12237       106  CHL1      C21             2.9663866055      -13.8246042699       -7.3956214970  MEMB      106             0.0000000000
     12238       106  CHL1      H21A            4.0007583130      -13.6285000573       -7.7524502076  MEMB      106             0.0000000000
     12239       106  CHL1      H21B            2.5083027278      -14.5971030108       -8.0431608088  MEMB      106             0.0000000000
     12240       106  CHL1      H21C            3.0543680272      -14.2251965106       -6.3644254529  MEMB      106             0.0000000000
     12241       106  CHL1      C22             0.8880322183      -12.6141836306       -6.4864358679  MEMB      106             0.0000000000
     12242       106  CHL1      H22A            0.3588648817      -11.6329212424       -6.4909182039  MEMB      106             0.0000000000
     12243       106  CHL1      H22B            0.1639859778      -13.3874320073       -6.8260243597  MEMB      106             0.0000000000
     12244       106  CHL1      C23             1.2056985611      -12.8287467561       -5.0311143928  MEMB      106             0.0000000000
     12245       106  CHL1      H23A            1.6623623318      -13.8117430330       -4.8098229797  MEMB      106             0.0000000000
     12246       106  CHL1      H23B            1.8662687194      -12.0150694471       -4.6410733298  MEMB      106             0.0000000000
     12247       106  CHL1      C24            -0.0592359469      -12.7691247754       -4.2678626389  MEMB      106             0.0000000000
     12248       106  CHL1      H24A           -0.6000209835      -11.8088151097       -4.5004575978  MEMB      106             0.0000000000
     12249       106  CHL1      H24B           -0.8101270887      -13.5782377896       -4.4268064371  MEMB      106             0.0000000000
     12250       106  CHL1      C25             0.3353585224      -12.8495237821       -2.8366712538  MEMB      106             0.0000000000
     12251       106  CHL1      H25             0.9305232996      -11.9563258592       -2.4840355342  MEMB      106             0.0000000000
     12252       106  CHL1      C26            -0.9640858297      -12.7442346773       -2.3216941318  MEMB      106             0.0000000000
     12253       106  CHL1      H26A           -1.3091086491      -11.7958316827       -2.7996848112  MEMB      106             0.0000000000
     12254       106  CHL1      H26B           -1.8666135178      -13.3669587916       -2.3552729169  MEMB      106             0.0000000000
     12255       106  CHL1      H26C           -0.6151050138      -12.5946996872       -1.2704770716  MEMB      106             0.0000000000
     12256       106  CHL1      C27             0.8884276317      -14.1157601858       -2.2387076054  MEMB      106             0.0000000000
     12257       106  CHL1      H27A            1.0353806018      -13.9974188228       -1.1452919329  MEMB      106             0.0000000000
     12258       106  CHL1      H27B            0.1540562151      -14.9293891757       -2.4289913223  MEMB      106             0.0000000000
     12259       106  CHL1      H27C            1.8689172587      -14.2930694924       -2.6941637304  MEMB      106             0.0000000000
     12260       107  SAPS      N              13.1772325057        1.0767398390      -18.0974049375  MEMB      107             0.0000000000
     12261       107  SAPS      HN1            13.4596109408        0.2188311020      -17.5886691698  MEMB      107             0.0000000000
     12262       107  SAPS      HN2            13.6788894866        1.8831697560      -17.6734107544  MEMB      107             0.0000000000
     12263       107  SAPS      HN3            12.1480609359        1.2034942376      -18.0576548907  MEMB      107             0.0000000000
     12264       107  SAPS      C12            13.5480807615        0.9305913109      -19.5532290744  MEMB      107             0.0000000000
     12265       107  SAPS      H12A           12.7801070446        1.4059050539      -20.1442012871  MEMB      107             0.0000000000
     12266       107  SAPS      C13            14.8661180721        1.5861401744      -19.9709754958  MEMB      107             0.0000000000
     12267       107  SAPS      O13A           15.5986735060        2.0469134447      -19.0530985119  MEMB      107             0.0000000000
     12268       107  SAPS      O13B           15.1420910315        1.6087243007      -21.2019536568  MEMB      107             0.0000000000
     12269       107  SAPS      C11            13.6657755730       -0.5698865826      -19.9522938219  MEMB      107             0.0000000000
     12270       107  SAPS      H11A           14.5125232621       -1.0314448006      -19.4000857275  MEMB      107             0.0000000000
     12271       107  SAPS      H11B           13.9215722458       -0.6086808904      -21.0435747895  MEMB      107             0.0000000000
     12272       107  SAPS      P              11.1930698238       -1.0948172372      -20.5438566149  MEMB      107             0.0000000000
     12273       107  SAPS      O13            11.4067555005       -0.0492819071      -21.5549092113  MEMB      107             0.0000000000
     12274       107  SAPS      O14            10.5584485514       -2.3733920738      -20.9436067386  MEMB      107             0.0000000000
     12275       107  SAPS      O12            12.4894696673       -1.3251922859      -19.6667882816  MEMB      107             0.0000000000
     12276       107  SAPS      O11            10.3441375099       -0.4471695216      -19.3810341260  MEMB      107             0.0000000000
     12277       107  SAPS      C1             10.1506491560       -1.2511978378      -18.1946308342  MEMB      107             0.0000000000
     12278       107  SAPS      HA              9.8173383181       -2.2819027728      -18.4321002637  MEMB      107             0.0000000000
     12279       107  SAPS      HB             11.0488121034       -1.2399366035      -17.5413923063  MEMB      107             0.0000000000
     12280       107  SAPS      C2              9.0118036934       -0.6629056802      -17.4059681955  MEMB      107             0.0000000000
     12281       107  SAPS      HS              8.2651792977       -0.5883872379      -18.1811285622  MEMB      107             0.0000000000
     12282       107  SAPS      O21             9.5800706984        0.5697185159      -17.0230602268  MEMB      107             0.0000000000
     12283       107  SAPS      C21             8.7241825814        1.3135535317      -16.5854645550  MEMB      107             0.0000000000
     12284       107  SAPS      O22             7.5417632190        1.0940018763      -16.3979152273  MEMB      107             0.0000000000
     12285       107  SAPS      C22             9.4961754024        2.6064239549      -16.6448189137  MEMB      107             0.0000000000
     12286       107  SAPS      H2R             9.0802742470        3.5081733902      -17.0953735111  MEMB      107             0.0000000000
     12287       107  SAPS      H2S             8.7264534876        2.8712116601      -16.0949783769  MEMB      107             0.0000000000
     12288       107  SAPS      C3              8.4007510696       -1.4042350795      -16.1982830641  MEMB      107             0.0000000000
     12289       107  SAPS      HX              8.0806013557       -2.3994336994      -16.5545480114  MEMB      107             0.0000000000
     12290       107  SAPS      HY              7.4727300319       -0.9671649127      -15.7641312591  MEMB      107             0.0000000000
     12291       107  SAPS      O31             9.3922519236       -1.3410223709      -15.1927056750  MEMB      107             0.0000000000
     12292       107  SAPS      C31             9.6161144368       -2.4497690492      -14.5947320176  MEMB      107             0.0000000000
     12293       107  SAPS      O32             9.0301127653       -3.5033974096      -14.7002110327  MEMB      107             0.0000000000
     12294       107  SAPS      C32            10.7080890232       -2.1919460945      -13.6218967203  MEMB      107             0.0000000000
     12295       107  SAPS      H2X            10.3445083837       -2.2420800031      -12.5938264319  MEMB      107             0.0000000000
     12296       107  SAPS      H2Y            11.2383724250       -1.2508602041      -13.8309544515  MEMB      107             0.0000000000
     12297       107  SAPS      C23            10.6728375762        2.6262482315      -15.6145568485  MEMB      107             0.0000000000
     12298       107  SAPS      H3R            11.3549385368        1.9729865928      -16.1738733513  MEMB      107             0.0000000000
     12299       107  SAPS      H3S            10.3673246865        2.1306453753      -14.6472044443  MEMB      107             0.0000000000
     12300       107  SAPS      C24            11.3285216913        3.9962827477      -15.2592902874  MEMB      107             0.0000000000
     12301       107  SAPS      H4R            10.6816554284        4.8114486094      -14.9430319708  MEMB      107             0.0000000000
     12302       107  SAPS      H4S            11.2881661413        4.6609405684      -16.0508860344  MEMB      107             0.0000000000
     12303       107  SAPS      C25            12.6868777091        4.1172240851      -14.6107922792  MEMB      107             0.0000000000
     12304       107  SAPS      H5R            13.4914053562        4.0352320005      -15.3396355880  MEMB      107             0.0000000000
     12305       107  SAPS      C26            13.0640143130        4.2663294238      -13.3068051291  MEMB      107             0.0000000000
     12306       107  SAPS      H6R            14.1035434919        4.3312492777      -13.0228399922  MEMB      107             0.0000000000
     12307       107  SAPS      C27            12.2828165808        4.3556062499      -12.0529466598  MEMB      107             0.0000000000
     12308       107  SAPS      H7R            12.5888428458        3.7541657525      -11.1583482288  MEMB      107             0.0000000000
     12309       107  SAPS      H7S            11.6523473224        3.5338201668      -12.4439262524  MEMB      107             0.0000000000
     12310       107  SAPS      C28            11.6832477276        5.7703783985      -11.7328118650  MEMB      107             0.0000000000
     12311       107  SAPS      H8R            11.3387951591        6.3246301321      -12.5888548361  MEMB      107             0.0000000000
     12312       107  SAPS      C29            11.0505506076        6.1859953533      -10.6213605641  MEMB      107             0.0000000000
     12313       107  SAPS      H9R            10.1667638271        6.8654466049      -10.5243983055  MEMB      107             0.0000000000
     12314       107  SAPS      C210           10.9038036511        5.2376182044       -9.6311793959  MEMB      107             0.0000000000
     12315       107  SAPS      H10R           11.0574720922        4.2802868729      -10.0972253996  MEMB      107             0.0000000000
     12316       107  SAPS      H10S            9.8199496985        5.1718545999      -10.0200988420  MEMB      107             0.0000000000
     12317       107  SAPS      C211           11.1492434619        5.2957791659       -8.0209443788  MEMB      107             0.0000000000
     12318       107  SAPS      H11R           11.4725712381        6.3378191010       -8.1657782837  MEMB      107             0.0000000000
     12319       107  SAPS      C212           10.4946308769        4.6627380979       -6.6842639924  MEMB      107             0.0000000000
     12320       107  SAPS      H12R           10.3016140946        5.3226716218       -5.8288378010  MEMB      107             0.0000000000
     12321       107  SAPS      C213            9.2187201906        3.5999687454       -6.2261621847  MEMB      107             0.0000000000
     12322       107  SAPS      H13R            9.4524806224        2.5231097198       -6.3383930337  MEMB      107             0.0000000000
     12323       107  SAPS      H13S            8.2928356850        3.6030487184       -6.8614929265  MEMB      107             0.0000000000
     12324       107  SAPS      C214            8.0688648165        3.6611219072       -5.2908813391  MEMB      107             0.0000000000
     12325       107  SAPS      H14R            7.1617259690        4.2159535390       -5.4632921700  MEMB      107             0.0000000000
     12326       107  SAPS      C215            8.2478093483        3.6241648376       -4.0743601533  MEMB      107             0.0000000000
     12327       107  SAPS      H15R            7.6341834160        4.0417282537       -3.3203182840  MEMB      107             0.0000000000
     12328       107  SAPS      C216            9.4471145971        3.5217383588       -3.6023396499  MEMB      107             0.0000000000
     12329       107  SAPS      H16R            9.5587131268        4.5705126027       -3.4876058582  MEMB      107             0.0000000000
     12330       107  SAPS      H16S           10.1458792857        3.2196871262       -4.3818529162  MEMB      107             0.0000000000
     12331       107  SAPS      C217            9.7182864684        2.7033624307       -2.3976266069  MEMB      107             0.0000000000
     12332       107  SAPS      H17R           10.7762400895        2.4436392446       -2.3267592963  MEMB      107             0.0000000000
     12333       107  SAPS      H17S            9.4915103251        1.9332256664       -3.1168384680  MEMB      107             0.0000000000
     12334       107  SAPS      C218            9.4134094743        2.8694757104       -0.7927958524  MEMB      107             0.0000000000
     12335       107  SAPS      H18R            8.4810599476        3.4250609733       -0.6063452587  MEMB      107             0.0000000000
     12336       107  SAPS      H18S           10.3070399932        3.2355534488       -0.2142976691  MEMB      107             0.0000000000
     12337       107  SAPS      C219            9.1369489292        2.0179661972        0.2771370086  MEMB      107             0.0000000000
     12338       107  SAPS      H19R            9.8863814522        1.3124269218        0.4316487024  MEMB      107             0.0000000000
     12339       107  SAPS      H19S            8.1147164529        1.7115371920        0.0446871367  MEMB      107             0.0000000000
     12340       107  SAPS      C220            9.0385535279        2.5159530377        1.4409929728  MEMB      107             0.0000000000
     12341       107  SAPS      H20R            9.8105013999        3.2181441324        1.6698606948  MEMB      107             0.0000000000
     12342       107  SAPS      H20S            8.9448641285        1.6315134322        2.1217985737  MEMB      107             0.0000000000
     12343       107  SAPS      H20T            8.1161611742        3.0628268165        1.2949992213  MEMB      107             0.0000000000
     12344       107  SAPS      C33            11.6115491794       -3.3253796483      -13.7783998807  MEMB      107             0.0000000000
     12345       107  SAPS      H3X            10.9818006484       -4.2462255720      -13.8492461407  MEMB      107             0.0000000000
     12346       107  SAPS      H3Y            12.2140944216       -3.5378585340      -12.8687495801  MEMB      107             0.0000000000
     12347       107  SAPS      C34            12.5234270302       -2.9885928493      -14.9568981355  MEMB      107             0.0000000000
     12348       107  SAPS      H4X            12.1043428652       -3.1621775236      -15.9727137101  MEMB      107             0.0000000000
     12349       107  SAPS      H4Y            13.1825852708       -3.8237294876      -14.7183862781  MEMB      107             0.0000000000
     12350       107  SAPS      C35            13.2958898507       -1.6524271153      -14.9238086095  MEMB      107             0.0000000000
     12351       107  SAPS      H5X            12.7238280833       -0.8215158110      -15.3251937707  MEMB      107             0.0000000000
     12352       107  SAPS      H5Y            14.2119417808       -1.6097789979      -15.5545148533  MEMB      107             0.0000000000
     12353       107  SAPS      C36            13.6818023453       -1.2716856045      -13.5051317045  MEMB      107             0.0000000000
     12354       107  SAPS      H6X            14.2552250507       -2.1389009385      -13.4079192773  MEMB      107             0.0000000000
     12355       107  SAPS      H6Y            13.0477562343       -1.5608416465      -12.6589699405  MEMB      107             0.0000000000
     12356       107  SAPS      C37            14.3923846344        0.0998903206      -13.4783553994  MEMB      107             0.0000000000
     12357       107  SAPS      H7X            13.5174191351        0.6829205580      -13.8115539980  MEMB      107             0.0000000000
     12358       107  SAPS      H7Y            15.2144608240        0.1256220666      -14.2326123854  MEMB      107             0.0000000000
     12359       107  SAPS      C38            14.8930505699        0.7459878126      -12.1531118394  MEMB      107             0.0000000000
     12360       107  SAPS      H8X            15.1717605295        1.7950797178      -12.3027059244  MEMB      107             0.0000000000
     12361       107  SAPS      H8Y            15.9125394858        0.4884405985      -11.8002068581  MEMB      107             0.0000000000
     12362       107  SAPS      C39            13.9044474054        0.4735009448      -11.0217587593  MEMB      107             0.0000000000
     12363       107  SAPS      H9X            13.8487962035       -0.6031769887      -10.7149953555  MEMB      107             0.0000000000
     12364       107  SAPS      H9Y            12.8984786898        0.7068119255      -11.4167244129  MEMB      107             0.0000000000
     12365       107  SAPS      C310           14.2559616781        1.3308820932       -9.8150134603  MEMB      107             0.0000000000
     12366       107  SAPS      H10X           14.2062684986        2.3895960325      -10.1437970911  MEMB      107             0.0000000000
     12367       107  SAPS      H10Y           15.2965352572        1.1433950065       -9.4672163785  MEMB      107             0.0000000000
     12368       107  SAPS      C311           13.3044023429        1.0794428720       -8.6600616208  MEMB      107             0.0000000000
     12369       107  SAPS      H11X           13.0735703059       -0.0062500873       -8.5918567998  MEMB      107             0.0000000000
     12370       107  SAPS      H11Y           12.3590722556        1.6313152358       -8.8655963526  MEMB      107             0.0000000000
     12371       107  SAPS      C312           13.9026483971        1.4262149228       -7.3061226656  MEMB      107             0.0000000000
     12372       107  SAPS      H12X           14.4207349337        2.4196768685       -7.3279913197  MEMB      107             0.0000000000
     12373       107  SAPS      H12Y           14.6460664150        0.6601165348       -7.0073748732  MEMB      107             0.0000000000
     12374       107  SAPS      C313           12.8107129453        1.5309187924       -6.2611906076  MEMB      107             0.0000000000
     12375       107  SAPS      H13X           12.1032294165        2.2585320978       -6.7275496206  MEMB      107             0.0000000000
     12376       107  SAPS      H13Y           13.2859733484        1.9072133430       -5.3234075108  MEMB      107             0.0000000000
     12377       107  SAPS      C314           11.8150897587        0.4376770222       -5.9558098205  MEMB      107             0.0000000000
     12378       107  SAPS      H14X           11.2817676707        0.2075053410       -6.8953390293  MEMB      107             0.0000000000
     12379       107  SAPS      H14Y           11.0713560126        0.8757710630       -5.2353249532  MEMB      107             0.0000000000
     12380       107  SAPS      C315           12.4559920283       -0.8085621832       -5.4040671686  MEMB      107             0.0000000000
     12381       107  SAPS      H15X           13.0327304656       -1.3218019742       -6.1974668252  MEMB      107             0.0000000000
     12382       107  SAPS      H15Y           11.6498270156       -1.4870758646       -5.0465656572  MEMB      107             0.0000000000
     12383       107  SAPS      C316           13.4866466289       -0.5146108498       -4.3363225323  MEMB      107             0.0000000000
     12384       107  SAPS      H16X           14.3786073576        0.0352045915       -4.6775341589  MEMB      107             0.0000000000
     12385       107  SAPS      H16Y           13.7112880961       -1.4785663927       -3.8403548415  MEMB      107             0.0000000000
     12386       107  SAPS      C317           12.9969506102        0.2660066876       -3.2020416129  MEMB      107             0.0000000000
     12387       107  SAPS      H17X           12.1733415125       -0.4786669590       -3.0508817623  MEMB      107             0.0000000000
     12388       107  SAPS      H17Y           12.5771215851        1.2641006925       -3.4424225865  MEMB      107             0.0000000000
     12389       107  SAPS      C318           14.0447532650        0.2910176341       -2.1042214148  MEMB      107             0.0000000000
     12390       107  SAPS      H18X           13.9369483726        1.0113521748       -1.3480361948  MEMB      107             0.0000000000
     12391       107  SAPS      H18Y           14.9431484752        0.8749260774       -2.2106331945  MEMB      107             0.0000000000
     12392       107  SAPS      H18Z           13.8144584311       -0.3701660391       -1.2726970999  MEMB      107             0.0000000000
     12393       108  POPC      N              10.6674205019        5.9283252806      -18.9020711496  MEMB      108             0.0000000000
     12394       108  POPC      C12             9.8411837288        6.8909842112      -18.0523344300  MEMB      108             0.0000000000
     12395       108  POPC      H12A           10.4635995219        7.3443651970      -17.2744970045  MEMB      108             0.0000000000
     12396       108  POPC      H12B            9.0388502013        6.3649218061      -17.5529829213  MEMB      108             0.0000000000
     12397       108  POPC      C13             9.9523268814        5.4189215247      -20.0970577688  MEMB      108             0.0000000000
     12398       108  POPC      H13A           10.5794934623        4.6583797951      -20.5536257165  MEMB      108             0.0000000000
     12399       108  POPC      H13B            9.0160316048        4.9478813718      -19.8296866510  MEMB      108             0.0000000000
     12400       108  POPC      H13C            9.8176031804        6.2360811322      -20.7934599516  MEMB      108             0.0000000000
     12401       108  POPC      C14            11.9281832734        6.6128533337      -19.3411493087  MEMB      108             0.0000000000
     12402       108  POPC      H14A           11.6619312922        7.4634157399      -19.9778273690  MEMB      108             0.0000000000
     12403       108  POPC      H14B           12.4863614371        7.0191665417      -18.5015178148  MEMB      108             0.0000000000
     12404       108  POPC      H14C           12.5598070246        5.9279437307      -19.8800079405  MEMB      108             0.0000000000
     12405       108  POPC      C15            11.0378998979        4.7264835137      -18.2233661878  MEMB      108             0.0000000000
     12406       108  POPC      H15A           10.1529374222        4.2903662015      -17.7778665544  MEMB      108             0.0000000000
     12407       108  POPC      H15B           11.7096855340        4.9858832768      -17.4077724323  MEMB      108             0.0000000000
     12408       108  POPC      H15C           11.5653790237        3.9926848204      -18.8046510419  MEMB      108             0.0000000000
     12409       108  POPC      C11             9.1604802142        8.0404741755      -18.8361352098  MEMB      108             0.0000000000
     12410       108  POPC      H11A            8.6134437012        8.7168191915      -18.1346196411  MEMB      108             0.0000000000
     12411       108  POPC      H11B            8.4016403023        7.5735865578      -19.4963681419  MEMB      108             0.0000000000
     12412       108  POPC      P              10.7506033543       10.0885145424      -19.2597405947  MEMB      108             0.0000000000
     12413       108  POPC      O13             9.7303913764       11.1250002898      -18.9741896159  MEMB      108             0.0000000000
     12414       108  POPC      O14            11.8503116730       10.3466317205      -20.2110267042  MEMB      108             0.0000000000
     12415       108  POPC      O12            10.0476731030        8.7441942676      -19.6925159935  MEMB      108             0.0000000000
     12416       108  POPC      O11            11.3600552596        9.5419094916      -17.9003355250  MEMB      108             0.0000000000
     12417       108  POPC      C1             12.0955808226       10.4128895365      -17.0481792039  MEMB      108             0.0000000000
     12418       108  POPC      HA             11.4529999501       11.2593607773      -16.6925057172  MEMB      108             0.0000000000
     12419       108  POPC      HB             12.9711645123       10.8273093474      -17.5874919490  MEMB      108             0.0000000000
     12420       108  POPC      C2             12.5703502610        9.6125455115      -15.8214382742  MEMB      108             0.0000000000
     12421       108  POPC      HS             13.0671375861        8.6719863186      -16.1481373231  MEMB      108             0.0000000000
     12422       108  POPC      O21            11.3528052837        9.3463906167      -15.1436988635  MEMB      108             0.0000000000
     12423       108  POPC      C21            11.2829036894        8.7118998106      -14.0393561468  MEMB      108             0.0000000000
     12424       108  POPC      O22            12.1577686474        8.0650339365      -13.4919219741  MEMB      108             0.0000000000
     12425       108  POPC      C22             9.8900581633        9.0534880655      -13.5157941066  MEMB      108             0.0000000000
     12426       108  POPC      H2R             9.1969445396        9.3685080028      -14.3200069534  MEMB      108             0.0000000000
     12427       108  POPC      H2S            10.0198114260        9.8456092272      -12.7604034928  MEMB      108             0.0000000000
     12428       108  POPC      C3             13.6144153026       10.3870282290      -14.9717498250  MEMB      108             0.0000000000
     12429       108  POPC      HX             14.2603122277       10.9492813315      -15.6823114928  MEMB      108             0.0000000000
     12430       108  POPC      HY             14.2230351318        9.6371233422      -14.4186239204  MEMB      108             0.0000000000
     12431       108  POPC      O31            13.0084381513       11.2865185919      -14.0523626125  MEMB      108             0.0000000000
     12432       108  POPC      C31            13.8452838882       11.6788885316      -13.1051247448  MEMB      108             0.0000000000
     12433       108  POPC      O32            15.0482776509       11.5292954266      -13.0748613384  MEMB      108             0.0000000000
     12434       108  POPC      C32            13.0700034474       12.5356629596      -12.1764846080  MEMB      108             0.0000000000
     12435       108  POPC      H2X            12.3625468949       13.0761988744      -12.8508038548  MEMB      108             0.0000000000
     12436       108  POPC      H2Y            13.7456333526       13.2356252493      -11.6203162906  MEMB      108             0.0000000000
     12437       108  POPC      C23             9.2673868372        7.8832694410      -12.8444956083  MEMB      108             0.0000000000
     12438       108  POPC      H3R             9.9053752471        7.6132424821      -12.0523778477  MEMB      108             0.0000000000
     12439       108  POPC      H3S             9.2469817708        7.0409970591      -13.4917019483  MEMB      108             0.0000000000
     12440       108  POPC      C24             7.9295904470        8.0656588728      -12.2433629331  MEMB      108             0.0000000000
     12441       108  POPC      H4R             7.7830450154        7.0959737423      -11.6852224488  MEMB      108             0.0000000000
     12442       108  POPC      H4S             7.2104804922        8.2067955757      -13.0802867222  MEMB      108             0.0000000000
     12443       108  POPC      C25             7.8287308997        9.1943390451      -11.2769151184  MEMB      108             0.0000000000
     12444       108  POPC      H5R             6.7935312753        9.4818624967      -11.1486685168  MEMB      108             0.0000000000
     12445       108  POPC      H5S             8.2940113004       10.0933360275      -11.6996757338  MEMB      108             0.0000000000
     12446       108  POPC      C26             8.4622888717        8.8356097019       -9.9574033373  MEMB      108             0.0000000000
     12447       108  POPC      H6R             9.5476628909        8.7191347259      -10.1441128396  MEMB      108             0.0000000000
     12448       108  POPC      H6S             8.0450903973        7.8743393544       -9.5665525860  MEMB      108             0.0000000000
     12449       108  POPC      C27             8.2806738379        9.9841949190       -8.9809761100  MEMB      108             0.0000000000
     12450       108  POPC      H7R             7.2556392710        9.9220339074       -8.6518731409  MEMB      108             0.0000000000
     12451       108  POPC      H7S             8.3539105713       10.9720504811       -9.4454253967  MEMB      108             0.0000000000
     12452       108  POPC      C28             9.2635580515       10.0354962938       -7.8381684626  MEMB      108             0.0000000000
     12453       108  POPC      H8R             9.0092755390       10.7772493364       -7.0721874582  MEMB      108             0.0000000000
     12454       108  POPC      H8S            10.3137906190       10.0087587545       -8.1650294051  MEMB      108             0.0000000000
     12455       108  POPC      C29             9.0445618433        8.8490626837       -7.1119987906  MEMB      108             0.0000000000
     12456       108  POPC      H91             7.9833703478        8.5860455833       -7.2500661660  MEMB      108             0.0000000000
     12457       108  POPC      C210           10.0304679262        8.0928423104       -6.5948703093  MEMB      108             0.0000000000
     12458       108  POPC      H101            9.9140222557        7.1612843314       -6.1126814385  MEMB      108             0.0000000000
     12459       108  POPC      C211           11.4471381584        8.0515717746       -6.4940053346  MEMB      108             0.0000000000
     12460       108  POPC      H11R           11.4291825384        8.9476284365       -5.9082264958  MEMB      108             0.0000000000
     12461       108  POPC      H11S           11.7681406342        8.0540609730       -7.5316756676  MEMB      108             0.0000000000
     12462       108  POPC      C212           12.1837294926        7.0295010483       -5.5690723552  MEMB      108             0.0000000000
     12463       108  POPC      H12R           11.6940580235        6.9706657899       -4.5615734069  MEMB      108             0.0000000000
     12464       108  POPC      H12S           13.2040344439        7.4163021179       -5.5719293621  MEMB      108             0.0000000000
     12465       108  POPC      C213           12.9162574233        5.7161679300       -5.9377108109  MEMB      108             0.0000000000
     12466       108  POPC      H13R           13.0046263247        5.2354842191       -6.9180714826  MEMB      108             0.0000000000
     12467       108  POPC      H13S           12.0462641104        5.3945245332       -5.4159154725  MEMB      108             0.0000000000
     12468       108  POPC      C214           13.2358517858        4.4610033609       -5.1849056534  MEMB      108             0.0000000000
     12469       108  POPC      H14R           14.2663465542        4.4045761825       -5.4893665718  MEMB      108             0.0000000000
     12470       108  POPC      H14S           12.6149122401        3.6681516152       -5.6507403649  MEMB      108             0.0000000000
     12471       108  POPC      C215           13.1460267082        4.4215899643       -3.7073709747  MEMB      108             0.0000000000
     12472       108  POPC      H15R           13.1805552601        5.3971568407       -3.2059681124  MEMB      108             0.0000000000
     12473       108  POPC      H15S           13.5174289797        3.4237965063       -3.3406183409  MEMB      108             0.0000000000
     12474       108  POPC      C216           11.8101237126        4.3171395523       -3.2590646560  MEMB      108             0.0000000000
     12475       108  POPC      H16R           11.7208190856        3.2430334909       -3.6753556162  MEMB      108             0.0000000000
     12476       108  POPC      H16S           11.2219248907        4.9855695225       -3.9012611965  MEMB      108             0.0000000000
     12477       108  POPC      C217           11.3656006286        4.6788194195       -1.7545838867  MEMB      108             0.0000000000
     12478       108  POPC      H17R           12.0276593393        5.3370487165       -1.2611011363  MEMB      108             0.0000000000
     12479       108  POPC      H17S           11.6779636584        3.7234747973       -1.3039708022  MEMB      108             0.0000000000
     12480       108  POPC      C218            9.9680556490        5.3064720312       -1.1899821051  MEMB      108             0.0000000000
     12481       108  POPC      H18R            9.7127184878        5.1106690192       -0.1245748461  MEMB      108             0.0000000000
     12482       108  POPC      H18S            9.2196652576        4.7491031229       -1.7797077400  MEMB      108             0.0000000000
     12483       108  POPC      H18T            8.8704445371        5.0568123680       -1.2954554286  MEMB      108             0.0000000000
     12484       108  POPC      C33            12.0266022870       11.8852925185      -11.3332344123  MEMB      108             0.0000000000
     12485       108  POPC      H3X            11.2431480673       11.4460844825      -11.9662663599  MEMB      108             0.0000000000
     12486       108  POPC      H3Y            11.5342148038       12.6396375999      -10.7161608805  MEMB      108             0.0000000000
     12487       108  POPC      C34            12.6719639489       11.0008847397      -10.3779167510  MEMB      108             0.0000000000
     12488       108  POPC      H4X            13.1239301028       10.1542550207      -10.9275751360  MEMB      108             0.0000000000
     12489       108  POPC      H4Y            11.8961828808       10.6502550865       -9.6584706788  MEMB      108             0.0000000000
     12490       108  POPC      C35            13.7184720781       11.7223074979       -9.6259200542  MEMB      108             0.0000000000
     12491       108  POPC      H5X            13.4609986544       12.7731169755       -9.3023112066  MEMB      108             0.0000000000
     12492       108  POPC      H5Y            14.7348224838       11.8160533818      -10.0864347038  MEMB      108             0.0000000000
     12493       108  POPC      C36            13.8943186752       10.7888041262       -8.4972055480  MEMB      108             0.0000000000
     12494       108  POPC      H6X            14.2877472006        9.8323793000       -8.7656458781  MEMB      108             0.0000000000
     12495       108  POPC      H6Y            12.9597461602       10.5240711733       -7.9256070428  MEMB      108             0.0000000000
     12496       108  POPC      C37            14.8623271078       11.5599638301       -7.8156171995  MEMB      108             0.0000000000
     12497       108  POPC      H7X            15.0626951917       12.5941701911       -8.2118876019  MEMB      108             0.0000000000
     12498       108  POPC      H7Y            15.7219119555       11.2911945083       -7.2378251896  MEMB      108             0.0000000000
     12499       108  POPC      C38            14.0522481632       11.7471478278       -6.8325195010  MEMB      108             0.0000000000
     12500       108  POPC      H8X            13.4611818944       12.5458650857       -7.3708192227  MEMB      108             0.0000000000
     12501       108  POPC      H8Y            14.5056925847       12.7669620906       -6.5552403934  MEMB      108             0.0000000000
     12502       108  POPC      C39            13.3812443829       10.5699462354       -5.5736908433  MEMB      108             0.0000000000
     12503       108  POPC      H9X            14.0124015594        9.8332907706       -5.0810148673  MEMB      108             0.0000000000
     12504       108  POPC      H9Y            12.4829991185       10.2891081827       -6.0448127077  MEMB      108             0.0000000000
     12505       108  POPC      C310           12.4861647601       10.6974495343       -4.0866513153  MEMB      108             0.0000000000
     12506       108  POPC      H10X           11.4228221560       10.8825644478       -4.1479279122  MEMB      108             0.0000000000
     12507       108  POPC      H10Y           12.8105391652       11.5997583109       -3.6391454739  MEMB      108             0.0000000000
     12508       108  POPC      C311           12.5699880304       10.8204215389       -2.5768128119  MEMB      108             0.0000000000
     12509       108  POPC      H11X           12.1487848788       11.7250725268       -2.0334164711  MEMB      108             0.0000000000
     12510       108  POPC      H11Y           13.5435974048       10.7774534053       -2.0909074720  MEMB      108             0.0000000000
     12511       108  POPC      C312           11.4205467573        9.9575923172       -2.4867223798  MEMB      108             0.0000000000
     12512       108  POPC      H12X           11.6265648495        9.0635327973       -3.1350019348  MEMB      108             0.0000000000
     12513       108  POPC      H12Y           10.4206165934       10.2369334511       -2.9753531517  MEMB      108             0.0000000000
     12514       108  POPC      C313           11.2079850546       10.0565877979       -1.0978327511  MEMB      108             0.0000000000
     12515       108  POPC      H13X           10.9757008294       11.0341125188       -0.6161085563  MEMB      108             0.0000000000
     12516       108  POPC      H13Y           12.1225029485        9.5980295576       -0.6753375394  MEMB      108             0.0000000000
     12517       108  POPC      C314           10.0817987836        9.2251929411       -1.2123099204  MEMB      108             0.0000000000
     12518       108  POPC      H14X           10.2201087388        8.8201837054       -0.2408746256  MEMB      108             0.0000000000
     12519       108  POPC      H14Y           10.5152957258        8.3405838019       -1.7321668883  MEMB      108             0.0000000000
     12520       108  POPC      C315            8.6872738662        9.8750015809       -1.7721307851  MEMB      108             0.0000000000
     12521       108  POPC      H15X            7.7144604988        9.4148151966       -1.4427990503  MEMB      108             0.0000000000
     12522       108  POPC      H15Y            8.3278577769        9.6467182972       -2.8126897723  MEMB      108             0.0000000000
     12523       108  POPC      C316            8.4695635906       11.2108609216       -1.2089789810  MEMB      108             0.0000000000
     12524       108  POPC      H16X            8.5821032715       12.0291024168       -1.7353288499  MEMB      108             0.0000000000
     12525       108  POPC      H16Y            7.9892685649       11.5720426907       -0.3093732029  MEMB      108             0.0000000000
     12526       108  POPC      H16Z            7.6493461247       11.1259769155       -1.7605956725  MEMB      108             0.0000000000
     12527       109  CHL1      C3            -15.6558098609       -1.6196712438      -17.3109588607  MEMB      109             0.0000000000
     12528       109  CHL1      H3            -14.5557057027       -1.6528337121      -17.1033983068  MEMB      109             0.0000000000
     12529       109  CHL1      O3            -15.8521534688       -1.4777303075      -18.7005909532  MEMB      109             0.0000000000
     12530       109  CHL1      H3'           -16.7866341749       -1.6996105304      -18.8141903309  MEMB      109             0.0000000000
     12531       109  CHL1      C4            -16.3225919864       -2.9183172885      -16.8483324895  MEMB      109             0.0000000000
     12532       109  CHL1      H4A           -17.3672809850       -3.0181588177      -17.2061548104  MEMB      109             0.0000000000
     12533       109  CHL1      H4B           -15.7836511956       -3.7497578301      -17.3706278593  MEMB      109             0.0000000000
     12534       109  CHL1      C5            -16.2574161922       -2.9900660739      -15.3306367443  MEMB      109             0.0000000000
     12535       109  CHL1      C6            -15.7324921254       -4.0437179513      -14.8076416054  MEMB      109             0.0000000000
     12536       109  CHL1      H6            -15.6340091450       -4.6730980696      -15.6183442764  MEMB      109             0.0000000000
     12537       109  CHL1      C7            -15.2884039704       -4.4269161426      -13.4295545443  MEMB      109             0.0000000000
     12538       109  CHL1      H7A           -15.4858642323       -5.4815422889      -13.1116508919  MEMB      109             0.0000000000
     12539       109  CHL1      H7B           -14.1978722542       -4.2937613045      -13.4083801970  MEMB      109             0.0000000000
     12540       109  CHL1      C8            -15.9811062206       -3.3851802664      -12.5530345554  MEMB      109             0.0000000000
     12541       109  CHL1      H8            -17.0351429735       -3.7244765113      -12.5266134146  MEMB      109             0.0000000000
     12542       109  CHL1      C14           -15.4263209814       -3.3605749013      -11.1800785945  MEMB      109             0.0000000000
     12543       109  CHL1      H14           -14.3278811166       -3.1787176643      -11.2931928706  MEMB      109             0.0000000000
     12544       109  CHL1      C15           -15.5983650024       -4.6362666495      -10.3910200749  MEMB      109             0.0000000000
     12545       109  CHL1      H15A          -16.5239922458       -5.1330574525      -10.4460830843  MEMB      109             0.0000000000
     12546       109  CHL1      H15B          -14.8591402992       -5.3493284947      -10.7777074194  MEMB      109             0.0000000000
     12547       109  CHL1      C16           -15.5957155754       -4.1571497775       -8.9375852184  MEMB      109             0.0000000000
     12548       109  CHL1      H16A          -16.1888897617       -4.6923211592       -8.2105638166  MEMB      109             0.0000000000
     12549       109  CHL1      H16B          -14.7603355515       -4.6495839194       -8.5007269300  MEMB      109             0.0000000000
     12550       109  CHL1      C17           -15.5389295408       -2.5688000118       -8.9544850171  MEMB      109             0.0000000000
     12551       109  CHL1      H17           -14.5131766719       -2.2428373502       -9.1452157735  MEMB      109             0.0000000000
     12552       109  CHL1      C13           -16.0051938430       -2.2583047289      -10.3161226573  MEMB      109             0.0000000000
     12553       109  CHL1      C18           -17.5160441814       -2.4650708850      -10.1514805827  MEMB      109             0.0000000000
     12554       109  CHL1      H18A          -17.7464818591       -3.3723321215       -9.5498542542  MEMB      109             0.0000000000
     12555       109  CHL1      H18B          -17.9734287824       -1.5998987734       -9.6387708231  MEMB      109             0.0000000000
     12556       109  CHL1      H18C          -17.9913621784       -2.6019507460      -11.1269951518  MEMB      109             0.0000000000
     12557       109  CHL1      C12           -15.5054667468       -0.9227926508      -10.8655597047  MEMB      109             0.0000000000
     12558       109  CHL1      H12A          -15.7784512023       -0.0864317812      -10.2055006780  MEMB      109             0.0000000000
     12559       109  CHL1      H12B          -14.3967897859       -0.8803323885      -11.0030140944  MEMB      109             0.0000000000
     12560       109  CHL1      C11           -16.1476114140       -0.7716648702      -12.2123949728  MEMB      109             0.0000000000
     12561       109  CHL1      H11A          -17.2342868969       -0.6635658122      -12.0369733638  MEMB      109             0.0000000000
     12562       109  CHL1      H11B          -15.7647982845        0.1731321188      -12.6453164996  MEMB      109             0.0000000000
     12563       109  CHL1      C9            -15.8388525691       -1.9736099446      -13.1377722424  MEMB      109             0.0000000000
     12564       109  CHL1      H9            -14.7350193105       -1.8881382421      -13.3373363850  MEMB      109             0.0000000000
     12565       109  CHL1      C10           -16.5509713779       -1.8298875285      -14.4739799927  MEMB      109             0.0000000000
     12566       109  CHL1      C19           -18.0834475876       -1.9045668403      -14.3116690785  MEMB      109             0.0000000000
     12567       109  CHL1      H19A          -18.4176901626       -1.0985532733      -13.6384009506  MEMB      109             0.0000000000
     12568       109  CHL1      H19B          -18.5861059124       -1.7915486254      -15.2968641852  MEMB      109             0.0000000000
     12569       109  CHL1      H19C          -18.4158127073       -2.8818708493      -13.8914925453  MEMB      109             0.0000000000
     12570       109  CHL1      C1            -16.0683962552       -0.5257399868      -15.0985158853  MEMB      109             0.0000000000
     12571       109  CHL1      H1A           -16.5976072848        0.3124816586      -14.6063116898  MEMB      109             0.0000000000
     12572       109  CHL1      H1B           -14.9747801883       -0.4235397728      -14.8919157450  MEMB      109             0.0000000000
     12573       109  CHL1      C2            -16.3237519096       -0.4437821877      -16.5931562475  MEMB      109             0.0000000000
     12574       109  CHL1      H2A           -15.9595916933        0.5432199039      -16.9295090256  MEMB      109             0.0000000000
     12575       109  CHL1      H2B           -17.4227276252       -0.5004733818      -16.7592442302  MEMB      109             0.0000000000
     12576       109  CHL1      C20           -16.2373495667       -1.7565103931       -7.7726323583  MEMB      109             0.0000000000
     12577       109  CHL1      H20           -17.2907561448       -2.0809991088       -7.6578844787  MEMB      109             0.0000000000
     12578       109  CHL1      C21           -15.9505122639       -0.2745053817       -7.6756217537  MEMB      109             0.0000000000
     12579       109  CHL1      H21A          -14.9057795858       -0.0153620774       -7.9734467964  MEMB      109             0.0000000000
     12580       109  CHL1      H21B          -16.0556267450        0.0459980986       -6.6058799529  MEMB      109             0.0000000000
     12581       109  CHL1      H21C          -16.7356588775        0.1700604998       -8.2840805701  MEMB      109             0.0000000000
     12582       109  CHL1      C22           -15.6208118982       -2.0578855683       -6.4725502889  MEMB      109             0.0000000000
     12583       109  CHL1      H22A          -15.9805942432       -3.0823058602       -6.6901513791  MEMB      109             0.0000000000
     12584       109  CHL1      H22B          -14.5920254779       -1.7000304259       -6.6791378192  MEMB      109             0.0000000000
     12585       109  CHL1      C23           -15.8967560125       -1.8879269600       -4.9942365089  MEMB      109             0.0000000000
     12586       109  CHL1      H23A          -16.2200216346       -0.8807714490       -4.7803607812  MEMB      109             0.0000000000
     12587       109  CHL1      H23B          -16.6245056496       -2.7195044764       -4.7525395238  MEMB      109             0.0000000000
     12588       109  CHL1      C24           -14.7127356730       -1.9422187474       -3.9819714486  MEMB      109             0.0000000000
     12589       109  CHL1      H24A          -14.5361853684       -2.9083861315       -4.1609815316  MEMB      109             0.0000000000
     12590       109  CHL1      H24B          -13.6201579884       -1.8050381327       -4.1146704011  MEMB      109             0.0000000000
     12591       109  CHL1      C25           -15.2081715347       -1.7348054694       -2.5638216707  MEMB      109             0.0000000000
     12592       109  CHL1      H25           -15.5298548212       -0.7014385981       -2.6724167664  MEMB      109             0.0000000000
     12593       109  CHL1      C26           -16.3033888979       -2.7346848037       -2.0542235509  MEMB      109             0.0000000000
     12594       109  CHL1      H26A          -16.0158147775       -3.7614544992       -1.7676067094  MEMB      109             0.0000000000
     12595       109  CHL1      H26B          -16.6952380920       -2.3592771827       -1.0923508002  MEMB      109             0.0000000000
     12596       109  CHL1      H26C          -17.0884036856       -2.8665221813       -2.8081235625  MEMB      109             0.0000000000
     12597       109  CHL1      C27           -14.1366234338       -1.6546745148       -1.5501245756  MEMB      109             0.0000000000
     12598       109  CHL1      H27A          -13.1002845107       -1.4713722007       -1.9200004358  MEMB      109             0.0000000000
     12599       109  CHL1      H27B          -14.3033603557       -1.3566622428       -0.4983925699  MEMB      109             0.0000000000
     12600       109  CHL1      H27C          -14.2621012015       -2.7140552971       -1.3888203724  MEMB      109             0.0000000000
     12601       110  SAPE      N             -12.5247123484      -11.7279742944      -20.3218862629  MEMB      110             0.0000000000
     12602       110  SAPE      HN1           -12.0057704245      -11.2833123962      -19.5319991882  MEMB      110             0.0000000000
     12603       110  SAPE      HN2           -12.4212879464      -12.7595945407      -20.3360666508  MEMB      110             0.0000000000
     12604       110  SAPE      HN3           -12.2201350389      -11.2832223302      -21.2142642213  MEMB      110             0.0000000000
     12605       110  SAPE      C12           -13.9283310752      -11.2737475729      -20.0643501211  MEMB      110             0.0000000000
     12606       110  SAPE      H12A          -14.2610305775      -11.6840649304      -19.0907948723  MEMB      110             0.0000000000
     12607       110  SAPE      H12B          -14.5515959400      -11.7382548399      -20.8337762136  MEMB      110             0.0000000000
     12608       110  SAPE      C11           -13.9409843584       -9.7328081531      -20.0629130515  MEMB      110             0.0000000000
     12609       110  SAPE      H11A          -14.8237719152       -9.3361960489      -19.5079580326  MEMB      110             0.0000000000
     12610       110  SAPE      H11B          -14.0310715510       -9.3866388041      -21.1163130303  MEMB      110             0.0000000000
     12611       110  SAPE      P             -12.1442201670       -7.8213675388      -19.9209496999  MEMB      110             0.0000000000
     12612       110  SAPE      O13           -10.9266393014       -7.5318113954      -19.1409567931  MEMB      110             0.0000000000
     12613       110  SAPE      O14           -12.0128806665       -7.7721825898      -21.3834794976  MEMB      110             0.0000000000
     12614       110  SAPE      O12           -12.7309958938       -9.2366072887      -19.4787816074  MEMB      110             0.0000000000
     12615       110  SAPE      O11           -13.3413884206       -6.8597387230      -19.5637084956  MEMB      110             0.0000000000
     12616       110  SAPE      C1            -14.1477624028       -7.0221615821      -18.4042476991  MEMB      110             0.0000000000
     12617       110  SAPE      HA            -15.2167425085       -6.8861862019      -18.6756610696  MEMB      110             0.0000000000
     12618       110  SAPE      HB            -14.0164567590       -8.0023723383      -17.8911218363  MEMB      110             0.0000000000
     12619       110  SAPE      C2            -13.7875752797       -5.9681107265      -17.3891603194  MEMB      110             0.0000000000
     12620       110  SAPE      HS            -14.2371746203       -5.0181161225      -17.7852833376  MEMB      110             0.0000000000
     12621       110  SAPE      O21           -12.3910460807       -5.8989227238      -17.2639665181  MEMB      110             0.0000000000
     12622       110  SAPE      C21           -12.0037409691       -4.6935975700      -17.0858933065  MEMB      110             0.0000000000
     12623       110  SAPE      O22           -12.6932185374       -3.6907103342      -16.9677893935  MEMB      110             0.0000000000
     12624       110  SAPE      C22           -10.5436781400       -4.7121931611      -17.0900895916  MEMB      110             0.0000000000
     12625       110  SAPE      H2R           -10.0633668804       -5.7053013659      -17.1692352586  MEMB      110             0.0000000000
     12626       110  SAPE      H2S           -10.3102859105       -4.0886019026      -17.9691560947  MEMB      110             0.0000000000
     12627       110  SAPE      C3            -14.2967786931       -6.2746224338      -16.0041893959  MEMB      110             0.0000000000
     12628       110  SAPE      HX            -15.4168241172       -6.3435528595      -16.1087219154  MEMB      110             0.0000000000
     12629       110  SAPE      HY            -13.9094211629       -5.4264818304      -15.3946849575  MEMB      110             0.0000000000
     12630       110  SAPE      O31           -13.7333752253       -7.3770950251      -15.3681460932  MEMB      110             0.0000000000
     12631       110  SAPE      C31           -14.5663655048       -8.1107882852      -14.7118340782  MEMB      110             0.0000000000
     12632       110  SAPE      O32           -15.7647486254       -7.9531393060      -14.5754792976  MEMB      110             0.0000000000
     12633       110  SAPE      C32           -13.7941419707       -9.2802519342      -14.2071112854  MEMB      110             0.0000000000
     12634       110  SAPE      H2X           -14.5394948514      -10.1004035597      -14.2863344279  MEMB      110             0.0000000000
     12635       110  SAPE      H2Y           -13.5147383209       -9.0683757491      -13.1598771836  MEMB      110             0.0000000000
     12636       110  SAPE      C23           -10.1689207374       -4.1370031544      -15.7646578217  MEMB      110             0.0000000000
     12637       110  SAPE      H3R           -10.7692467733       -3.2233848365      -15.5106906393  MEMB      110             0.0000000000
     12638       110  SAPE      H3S            -9.1001280509       -3.9309950718      -15.9415879560  MEMB      110             0.0000000000
     12639       110  SAPE      C24           -10.0577731648       -5.1170194528      -14.6107709889  MEMB      110             0.0000000000
     12640       110  SAPE      H4R            -9.0982326086       -5.6452079037      -14.8004532790  MEMB      110             0.0000000000
     12641       110  SAPE      H4S           -10.9278215705       -5.7686138207      -14.7259527626  MEMB      110             0.0000000000
     12642       110  SAPE      C25            -9.9217030142       -4.7532003851      -13.1818949626  MEMB      110             0.0000000000
     12643       110  SAPE      H5R            -9.1108856490       -4.0384386646      -13.0133285389  MEMB      110             0.0000000000
     12644       110  SAPE      C26           -10.8627379950       -4.8292410428      -12.2519776286  MEMB      110             0.0000000000
     12645       110  SAPE      H6R           -10.5818416008       -4.6582560479      -11.2105627206  MEMB      110             0.0000000000
     12646       110  SAPE      C27           -12.2704537273       -5.2410038217      -12.2963305401  MEMB      110             0.0000000000
     12647       110  SAPE      H7R           -12.5921961617       -5.5165303666      -13.3142838915  MEMB      110             0.0000000000
     12648       110  SAPE      H7S           -12.7961588178       -4.2902759442      -12.0311535029  MEMB      110             0.0000000000
     12649       110  SAPE      C28           -12.5206802701       -6.3184601153      -11.2882319989  MEMB      110             0.0000000000
     12650       110  SAPE      H8R           -12.4828381680       -7.3353061875      -11.6607533494  MEMB      110             0.0000000000
     12651       110  SAPE      C29           -12.6845648096       -6.1317508435       -9.9822147761  MEMB      110             0.0000000000
     12652       110  SAPE      H9R           -13.0184872147       -6.9440076353       -9.3238621086  MEMB      110             0.0000000000
     12653       110  SAPE      C210          -12.6442089668       -4.8035623177       -9.3549447158  MEMB      110             0.0000000000
     12654       110  SAPE      H10R          -13.4614171810       -4.2074076804       -9.6702016402  MEMB      110             0.0000000000
     12655       110  SAPE      H10S          -12.1313706031       -4.0399056160       -9.9223418573  MEMB      110             0.0000000000
     12656       110  SAPE      C211          -12.3525889772       -5.1260604223       -7.8926610328  MEMB      110             0.0000000000
     12657       110  SAPE      H11R          -11.2824496694       -4.9482540813       -7.8987100992  MEMB      110             0.0000000000
     12658       110  SAPE      C212          -12.8445062451       -4.8500234469       -6.6432041897  MEMB      110             0.0000000000
     12659       110  SAPE      H12R          -12.2577381976       -4.3785395907       -5.8345487652  MEMB      110             0.0000000000
     12660       110  SAPE      C213          -13.9288228901       -4.0469453343       -6.2853295627  MEMB      110             0.0000000000
     12661       110  SAPE      H13R          -14.1347905030       -3.5345972313       -7.2183555445  MEMB      110             0.0000000000
     12662       110  SAPE      H13S          -13.6007993434       -3.0842266400       -5.7957253639  MEMB      110             0.0000000000
     12663       110  SAPE      C214          -14.9848929611       -4.7843022819       -5.5172545920  MEMB      110             0.0000000000
     12664       110  SAPE      H14R          -15.9917915396       -4.7608256206       -5.9563772935  MEMB      110             0.0000000000
     12665       110  SAPE      C215          -14.9748363477       -5.0877502527       -4.2200431976  MEMB      110             0.0000000000
     12666       110  SAPE      H15R          -15.9511597428       -5.0929670927       -3.7257908649  MEMB      110             0.0000000000
     12667       110  SAPE      C216          -13.9851182014       -4.8237344152       -3.1887031272  MEMB      110             0.0000000000
     12668       110  SAPE      H16R          -14.5533176025       -4.7845866033       -2.2541610731  MEMB      110             0.0000000000
     12669       110  SAPE      H16S          -13.3661182851       -3.8930695706       -3.2409720981  MEMB      110             0.0000000000
     12670       110  SAPE      C217          -12.9652870654       -5.8468192908       -3.3144529936  MEMB      110             0.0000000000
     12671       110  SAPE      H17R          -12.5234861207       -5.7265565882       -4.3186664737  MEMB      110             0.0000000000
     12672       110  SAPE      H17S          -13.4633070150       -6.7924334566       -3.0209891791  MEMB      110             0.0000000000
     12673       110  SAPE      C218          -11.8829404803       -5.4741839029       -2.4206198980  MEMB      110             0.0000000000
     12674       110  SAPE      H18R          -12.3287920776       -5.7811766777       -1.4199846351  MEMB      110             0.0000000000
     12675       110  SAPE      H18S          -11.5755884317       -4.3973865824       -2.5756768763  MEMB      110             0.0000000000
     12676       110  SAPE      C219          -10.6510079397       -6.1743638014       -2.4302351617  MEMB      110             0.0000000000
     12677       110  SAPE      H19R          -10.1988137012       -6.1699261213       -3.4077683704  MEMB      110             0.0000000000
     12678       110  SAPE      H19S          -11.1133160606       -7.1196407778       -2.1375139629  MEMB      110             0.0000000000
     12679       110  SAPE      C220           -9.7110384523       -5.5824137492       -1.4518092905  MEMB      110             0.0000000000
     12680       110  SAPE      H20R          -10.2426110982       -5.6176315369       -0.4775021478  MEMB      110             0.0000000000
     12681       110  SAPE      H20S           -9.4098694869       -4.5373829906       -1.4590378689  MEMB      110             0.0000000000
     12682       110  SAPE      H20T           -8.7902026513       -6.2077348312       -1.4266983089  MEMB      110             0.0000000000
     12683       110  SAPE      C33           -12.5569158717       -9.6008633619      -15.0898771225  MEMB      110             0.0000000000
     12684       110  SAPE      H3X           -12.8372551681       -9.4727611676      -16.1646503506  MEMB      110             0.0000000000
     12685       110  SAPE      H3Y           -12.3332172654      -10.6772209521      -14.9395179349  MEMB      110             0.0000000000
     12686       110  SAPE      C34           -11.2661800588       -8.8322841174      -14.7045534936  MEMB      110             0.0000000000
     12687       110  SAPE      H4X           -11.4894452829       -7.7682595490      -14.4852714031  MEMB      110             0.0000000000
     12688       110  SAPE      H4Y           -10.5614801969       -8.8156936315      -15.5697634891  MEMB      110             0.0000000000
     12689       110  SAPE      C35           -10.5817833353       -9.4494652315      -13.4619482513  MEMB      110             0.0000000000
     12690       110  SAPE      H5X           -10.1259172552      -10.4170014778      -13.7671329417  MEMB      110             0.0000000000
     12691       110  SAPE      H5Y           -11.3488536168       -9.6695673681      -12.6900193913  MEMB      110             0.0000000000
     12692       110  SAPE      C36            -9.5195281255       -8.5427013337      -12.8136622454  MEMB      110             0.0000000000
     12693       110  SAPE      H6X            -9.9675522029       -7.5632116003      -12.5370533866  MEMB      110             0.0000000000
     12694       110  SAPE      H6Y            -8.7705124995       -8.3308984087      -13.6064799025  MEMB      110             0.0000000000
     12695       110  SAPE      C37            -8.8481740103       -9.1231346222      -11.5425678959  MEMB      110             0.0000000000
     12696       110  SAPE      H7X            -7.8920270957       -8.5764935193      -11.3760901501  MEMB      110             0.0000000000
     12697       110  SAPE      H7Y            -8.5628845125      -10.1846064764      -11.7223847037  MEMB      110             0.0000000000
     12698       110  SAPE      C38            -9.7356186346       -8.9513241372      -10.2683302496  MEMB      110             0.0000000000
     12699       110  SAPE      H8X           -10.6350011585       -9.5958336514      -10.3815987733  MEMB      110             0.0000000000
     12700       110  SAPE      H8Y            -9.9896597312       -7.8896043374      -10.1124241190  MEMB      110             0.0000000000
     12701       110  SAPE      C39            -9.1053143799       -9.4071821180       -8.9610342976  MEMB      110             0.0000000000
     12702       110  SAPE      H9X            -8.1451101031       -8.8693702581       -8.7698848945  MEMB      110             0.0000000000
     12703       110  SAPE      H9Y            -8.9768052263      -10.4341161869       -9.3472319596  MEMB      110             0.0000000000
     12704       110  SAPE      C310           -9.8961448474       -9.6621206385       -7.6610216503  MEMB      110             0.0000000000
     12705       110  SAPE      H10X           -9.2896762003       -9.7776397053       -6.7354646586  MEMB      110             0.0000000000
     12706       110  SAPE      H10Y          -10.4499741243      -10.6191293256       -7.7347300717  MEMB      110             0.0000000000
     12707       110  SAPE      C311          -10.5293135249       -8.4436999043       -7.0894210406  MEMB      110             0.0000000000
     12708       110  SAPE      H11X          -11.2624088906       -8.0520629231       -7.8096547337  MEMB      110             0.0000000000
     12709       110  SAPE      H11Y           -9.6866415317       -7.7139830456       -6.9467962509  MEMB      110             0.0000000000
     12710       110  SAPE      C312          -11.1253877628       -8.6663841369       -5.6957605372  MEMB      110             0.0000000000
     12711       110  SAPE      H12X          -11.5194191068       -7.6500390096       -5.4841520780  MEMB      110             0.0000000000
     12712       110  SAPE      H12Y          -10.3383354813       -8.8793546066       -4.9360046248  MEMB      110             0.0000000000
     12713       110  SAPE      C313          -12.3027944254       -9.6578848612       -5.6113886508  MEMB      110             0.0000000000
     12714       110  SAPE      H13X          -12.0113607521      -10.7293868522       -5.6267371126  MEMB      110             0.0000000000
     12715       110  SAPE      H13Y          -12.9333403746       -9.4755533587       -6.5128953557  MEMB      110             0.0000000000
     12716       110  SAPE      C314          -13.2016748417       -9.3808097486       -4.3915600252  MEMB      110             0.0000000000
     12717       110  SAPE      H14X          -14.2224206735       -9.7485793699       -4.5982905591  MEMB      110             0.0000000000
     12718       110  SAPE      H14Y          -13.2339920342       -8.2779875101       -4.2796917334  MEMB      110             0.0000000000
     12719       110  SAPE      C315          -12.7312768162       -9.9999685906       -3.0725113032  MEMB      110             0.0000000000
     12720       110  SAPE      H15X          -11.7411348103       -9.5669140698       -2.9872277337  MEMB      110             0.0000000000
     12721       110  SAPE      H15Y          -12.4319589228      -11.0404535954       -3.1560847105  MEMB      110             0.0000000000
     12722       110  SAPE      C316          -13.7321035196       -9.8983654820       -1.8798674346  MEMB      110             0.0000000000
     12723       110  SAPE      H16X          -14.7124532678      -10.3023361823       -2.1904827758  MEMB      110             0.0000000000
     12724       110  SAPE      H16Y          -13.8588662326       -8.8383078263       -1.5577058699  MEMB      110             0.0000000000
     12725       110  SAPE      C317          -13.4196386604      -10.8196874769       -0.6839004097  MEMB      110             0.0000000000
     12726       110  SAPE      H17X          -12.6837502830      -10.3341014272       -0.1690812033  MEMB      110             0.0000000000
     12727       110  SAPE      H17Y          -12.9510721570      -11.7748936263       -0.9643417171  MEMB      110             0.0000000000
     12728       110  SAPE      C318          -14.2645407454      -10.8435342318        0.5822501273  MEMB      110             0.0000000000
     12729       110  SAPE      H18X          -14.5988273262       -9.8090209630        0.8290875704  MEMB      110             0.0000000000
     12730       110  SAPE      H18Y          -13.6317245236      -11.2052425059        1.4370293899  MEMB      110             0.0000000000
     12731       110  SAPE      H18Z          -15.1043456656      -11.5333228615        0.4417564629  MEMB      110             0.0000000000
     12732       111  SLPC      N               0.8911545041       17.7728028699      -19.0200163718  MEMB      111             0.0000000000
     12733       111  SLPC      C13             0.3673485706       16.6384679917      -19.8275643473  MEMB      111             0.0000000000
     12734       111  SLPC      H13A            0.1606499466       15.7985394423      -19.1740149792  MEMB      111             0.0000000000
     12735       111  SLPC      H13B           -0.5657528242       16.9259322185      -20.3008123715  MEMB      111             0.0000000000
     12736       111  SLPC      H13C            1.0608574591       16.3407111067      -20.6073376047  MEMB      111             0.0000000000
     12737       111  SLPC      C14             1.3076417423       18.8512466509      -19.9637733827  MEMB      111             0.0000000000
     12738       111  SLPC      H14A            0.4472319139       19.1785220811      -20.5444509840  MEMB      111             0.0000000000
     12739       111  SLPC      H14B            1.7177779789       19.7182180832      -19.4527312582  MEMB      111             0.0000000000
     12740       111  SLPC      H14C            2.0805898562       18.4563925417      -20.6024211367  MEMB      111             0.0000000000
     12741       111  SLPC      C15             2.1031839181       17.3095119878      -18.2842390292  MEMB      111             0.0000000000
     12742       111  SLPC      H15A            2.3086377997       17.9785306983      -17.4524370006  MEMB      111             0.0000000000
     12743       111  SLPC      H15B            1.9287021616       16.3350265831      -17.8418607460  MEMB      111             0.0000000000
     12744       111  SLPC      H15C            2.9423079374       17.2501791695      -18.9571981675  MEMB      111             0.0000000000
     12745       111  SLPC      C12            -0.1789312866       18.2945111642      -18.0521170913  MEMB      111             0.0000000000
     12746       111  SLPC      H12A           -0.9070858417       18.8643376293      -18.6178151429  MEMB      111             0.0000000000
     12747       111  SLPC      H12B            0.2654670047       19.0062725910      -17.3543101620  MEMB      111             0.0000000000
     12748       111  SLPC      C11            -0.9886621920       17.2844344801      -17.1921534186  MEMB      111             0.0000000000
     12749       111  SLPC      H11A           -1.6004810665       16.6246250063      -17.8392333670  MEMB      111             0.0000000000
     12750       111  SLPC      H11B           -1.7204520240       17.8757347119      -16.5831235641  MEMB      111             0.0000000000
     12751       111  SLPC      P               0.0788371888       17.0004666699      -14.8812811382  MEMB      111             0.0000000000
     12752       111  SLPC      O13             0.3788934667       18.4426300721      -14.9411245710  MEMB      111             0.0000000000
     12753       111  SLPC      O14            -1.0380975681       16.5266995057      -14.0310130484  MEMB      111             0.0000000000
     12754       111  SLPC      O12            -0.1515484799       16.4776425497      -16.3707876591  MEMB      111             0.0000000000
     12755       111  SLPC      O11             1.4007469124       16.2458394304      -14.5679153593  MEMB      111             0.0000000000
     12756       111  SLPC      C1              1.5807717726       14.9399238113      -15.0795918839  MEMB      111             0.0000000000
     12757       111  SLPC      HA              0.6306809039       14.3274981875      -15.0572865871  MEMB      111             0.0000000000
     12758       111  SLPC      HB              1.9529032114       14.9170493009      -16.1243086313  MEMB      111             0.0000000000
     12759       111  SLPC      C2              2.5397733430       14.2395199350      -14.1461995384  MEMB      111             0.0000000000
     12760       111  SLPC      HS              2.4640457658       13.2677956696      -14.5769639806  MEMB      111             0.0000000000
     12761       111  SLPC      O21             2.0233886569       14.4947629189      -12.8093405831  MEMB      111             0.0000000000
     12762       111  SLPC      C21             2.4880378882       13.6764495492      -11.9338227216  MEMB      111             0.0000000000
     12763       111  SLPC      O22             2.9281040082       12.6083732088      -12.1636455665  MEMB      111             0.0000000000
     12764       111  SLPC      C22             2.5938411156       14.1008806493      -10.5333500435  MEMB      111             0.0000000000
     12765       111  SLPC      H2R             3.6350239794       13.7412760312      -10.2368237716  MEMB      111             0.0000000000
     12766       111  SLPC      H2S             2.4619085171       15.1738835344      -10.4888299133  MEMB      111             0.0000000000
     12767       111  SLPC      C3              4.0569837976       14.5677978579      -14.1906029551  MEMB      111             0.0000000000
     12768       111  SLPC      HX              4.4609702737       14.3022863108      -15.1939464579  MEMB      111             0.0000000000
     12769       111  SLPC      HY              4.5972590833       13.8767119496      -13.4858572475  MEMB      111             0.0000000000
     12770       111  SLPC      O31             4.2381143125       15.9679831100      -13.9454438714  MEMB      111             0.0000000000
     12771       111  SLPC      C31             5.2302735434       16.3854736531      -13.1843015365  MEMB      111             0.0000000000
     12772       111  SLPC      O32             6.0593555661       15.7347310527      -12.6465093430  MEMB      111             0.0000000000
     12773       111  SLPC      C32             5.2732498403       17.8184748517      -12.9028258237  MEMB      111             0.0000000000
     12774       111  SLPC      H2X             5.8023261498       18.3296203301      -13.7252165253  MEMB      111             0.0000000000
     12775       111  SLPC      H2Y             5.9019848532       17.8986305131      -11.9786475346  MEMB      111             0.0000000000
     12776       111  SLPC      C23             1.5389978733       13.3698706540       -9.7089564162  MEMB      111             0.0000000000
     12777       111  SLPC      H3R             2.1423542643       12.5694411409       -9.4565368568  MEMB      111             0.0000000000
     12778       111  SLPC      H3S             0.6990567173       12.8679697519      -10.2335147434  MEMB      111             0.0000000000
     12779       111  SLPC      C24             1.3472550957       13.7363264184       -8.2508150809  MEMB      111             0.0000000000
     12780       111  SLPC      H4R             0.7236277896       12.9459748336       -7.7657415739  MEMB      111             0.0000000000
     12781       111  SLPC      H4S             0.7955047949       14.6848771053       -8.3075568861  MEMB      111             0.0000000000
     12782       111  SLPC      C25             2.6333687830       13.8874314385       -7.4089692185  MEMB      111             0.0000000000
     12783       111  SLPC      H5R             3.3161161213       13.0102401385       -7.4498716775  MEMB      111             0.0000000000
     12784       111  SLPC      H5S             2.2669358145       13.9769593032       -6.3684580003  MEMB      111             0.0000000000
     12785       111  SLPC      C26             3.3542866787       15.2003285566       -7.6935192115  MEMB      111             0.0000000000
     12786       111  SLPC      H6R             2.5296940237       15.9376673602       -7.8195529102  MEMB      111             0.0000000000
     12787       111  SLPC      H6S             3.9370855304       15.2062697619       -8.6346904409  MEMB      111             0.0000000000
     12788       111  SLPC      C27             4.2121491997       15.7290282313       -6.5438968360  MEMB      111             0.0000000000
     12789       111  SLPC      H7R             3.5956419669       15.7416798720       -5.6163636584  MEMB      111             0.0000000000
     12790       111  SLPC      H7S             4.4434494806       16.7775009831       -6.8494232274  MEMB      111             0.0000000000
     12791       111  SLPC      C28             5.5107063158       14.9696888981       -6.2387901041  MEMB      111             0.0000000000
     12792       111  SLPC      H8R             6.0293219011       14.6628593983       -7.1691126509  MEMB      111             0.0000000000
     12793       111  SLPC      H8S             5.2548265708       14.0449981510       -5.6714217794  MEMB      111             0.0000000000
     12794       111  SLPC      C29             6.4073444993       15.9033941879       -5.4722943980  MEMB      111             0.0000000000
     12795       111  SLPC      H9R             6.4693824303       16.9282195838       -5.8571316834  MEMB      111             0.0000000000
     12796       111  SLPC      C210            7.1027542748       15.5919079864       -4.3844573694  MEMB      111             0.0000000000
     12797       111  SLPC      H10R            7.7483287089       16.3463344055       -3.9004317473  MEMB      111             0.0000000000
     12798       111  SLPC      C211            7.0956672483       14.2419709867       -3.7563304186  MEMB      111             0.0000000000
     12799       111  SLPC      H11R            8.1133520012       13.9150829211       -3.8534816335  MEMB      111             0.0000000000
     12800       111  SLPC      H11S            6.6353426934       13.4102134493       -4.3299537339  MEMB      111             0.0000000000
     12801       111  SLPC      C212            6.5802418205       14.4132798595       -2.3458325256  MEMB      111             0.0000000000
     12802       111  SLPC      H12R            6.7991124322       15.3628740972       -1.8456392041  MEMB      111             0.0000000000
     12803       111  SLPC      C213            6.0283227917       13.4662291995       -1.5933558024  MEMB      111             0.0000000000
     12804       111  SLPC      H13R            5.5536651308       13.6871750587       -0.6387813578  MEMB      111             0.0000000000
     12805       111  SLPC      C214            5.8327769991       12.0743948942       -2.0094086494  MEMB      111             0.0000000000
     12806       111  SLPC      H14R            6.5561202449       11.8114397540       -2.8225892457  MEMB      111             0.0000000000
     12807       111  SLPC      H14S            5.4638835668       11.9417750066       -2.9736142243  MEMB      111             0.0000000000
     12808       111  SLPC      C215            5.3887927239       10.9760973076       -0.8974100256  MEMB      111             0.0000000000
     12809       111  SLPC      H15R            6.1788378118       10.9899167814       -0.1303168139  MEMB      111             0.0000000000
     12810       111  SLPC      H15S            5.4972169444        9.9979980701       -1.4037070438  MEMB      111             0.0000000000
     12811       111  SLPC      C216            3.9720852561       10.8911432922       -0.0577229056  MEMB      111             0.0000000000
     12812       111  SLPC      H16R            3.9797599960       11.8600798305        0.5113397350  MEMB      111             0.0000000000
     12813       111  SLPC      H16S            4.1151498527        9.9638473435        0.5093811877  MEMB      111             0.0000000000
     12814       111  SLPC      C217            2.4215550462       10.5370140649       -0.4998149002  MEMB      111             0.0000000000
     12815       111  SLPC      H17R            2.3418147126       11.6188147663       -0.7545513665  MEMB      111             0.0000000000
     12816       111  SLPC      H17S            1.4845702744       10.8593075212       -0.0270398673  MEMB      111             0.0000000000
     12817       111  SLPC      C218            1.9935237322        9.3806515283       -1.6052496665  MEMB      111             0.0000000000
     12818       111  SLPC      H18R            2.6105054092        9.2737889123       -2.5243472577  MEMB      111             0.0000000000
     12819       111  SLPC      H18S            1.1983830011        9.6336438661       -2.3748798783  MEMB      111             0.0000000000
     12820       111  SLPC      H18T            2.3877317809        8.3942523960       -1.4123306288  MEMB      111             0.0000000000
     12821       111  SLPC      C33             3.8701767965       18.2381430658      -12.6118066578  MEMB      111             0.0000000000
     12822       111  SLPC      H3X             3.4382985452       17.6739567862      -11.7549496395  MEMB      111             0.0000000000
     12823       111  SLPC      H3Y             3.2013907269       18.0772540071      -13.4990205634  MEMB      111             0.0000000000
     12824       111  SLPC      C34             3.8532945912       19.6844332634      -12.2817430749  MEMB      111             0.0000000000
     12825       111  SLPC      H4X             4.5408443950       20.1701358562      -12.9527710106  MEMB      111             0.0000000000
     12826       111  SLPC      H4Y             4.2678777145       19.9140438522      -11.2766470145  MEMB      111             0.0000000000
     12827       111  SLPC      C35             2.4284824032       20.0905989064      -12.5128565392  MEMB      111             0.0000000000
     12828       111  SLPC      H5X             1.9409347560       19.6972482899      -13.4188799465  MEMB      111             0.0000000000
     12829       111  SLPC      H5Y             2.4718348973       21.1469620863      -12.8457812836  MEMB      111             0.0000000000
     12830       111  SLPC      C36             1.6819167728       19.5998812570      -11.2505593044  MEMB      111             0.0000000000
     12831       111  SLPC      H6X             0.8585966300       20.2031318717      -10.9235948637  MEMB      111             0.0000000000
     12832       111  SLPC      H6Y             2.3726772181       19.5652414439      -10.3873786074  MEMB      111             0.0000000000
     12833       111  SLPC      C37             0.6565094178       18.4901930166      -11.3440779602  MEMB      111             0.0000000000
     12834       111  SLPC      H7X             1.1871858652       17.6106660594      -11.7263986081  MEMB      111             0.0000000000
     12835       111  SLPC      H7Y            -0.1190180708       18.8083277618      -12.0837318344  MEMB      111             0.0000000000
     12836       111  SLPC      C38            -0.1612459096       18.2753274774      -10.0441566773  MEMB      111             0.0000000000
     12837       111  SLPC      H8X            -0.7536417552       17.3572795438      -10.2409490285  MEMB      111             0.0000000000
     12838       111  SLPC      H8Y            -0.8766381643       19.1090458063       -9.8404073633  MEMB      111             0.0000000000
     12839       111  SLPC      C39             0.6570329544       18.0853779123       -8.7649110954  MEMB      111             0.0000000000
     12840       111  SLPC      H9X             1.3485501720       18.9435180630       -8.6142078754  MEMB      111             0.0000000000
     12841       111  SLPC      H9Y             1.2558467822       17.1728090737       -8.9605327370  MEMB      111             0.0000000000
     12842       111  SLPC      C310           -0.2486016059       17.9366321743       -7.5263970822  MEMB      111             0.0000000000
     12843       111  SLPC      H10X           -1.1175618719       17.2978290491       -7.8022251412  MEMB      111             0.0000000000
     12844       111  SLPC      H10Y           -0.6381910316       18.9343331995       -7.2222297992  MEMB      111             0.0000000000
     12845       111  SLPC      C311            0.4239779204       17.2711599467       -6.3252187394  MEMB      111             0.0000000000
     12846       111  SLPC      H11X            1.3782351559       17.7833022700       -6.0749408607  MEMB      111             0.0000000000
     12847       111  SLPC      H11Y            0.6188978461       16.2084024770       -6.6013962686  MEMB      111             0.0000000000
     12848       111  SLPC      C312           -0.4020598712       17.3406723283       -5.0430470003  MEMB      111             0.0000000000
     12849       111  SLPC      H12X           -1.2470622839       16.6305597790       -5.1305444725  MEMB      111             0.0000000000
     12850       111  SLPC      H12Y           -0.8146015071       18.3526744868       -4.8915322782  MEMB      111             0.0000000000
     12851       111  SLPC      C313            0.4308559520       17.0209989600       -3.8172018478  MEMB      111             0.0000000000
     12852       111  SLPC      H13X           -0.0944079183       17.2393834900       -2.8555887164  MEMB      111             0.0000000000
     12853       111  SLPC      H13Y            1.3934648571       17.5598338766       -3.7509674142  MEMB      111             0.0000000000
     12854       111  SLPC      C314            0.7448487977       15.5659972845       -3.8135846534  MEMB      111             0.0000000000
     12855       111  SLPC      H14X            1.3487603069       15.2637946137       -4.7012165289  MEMB      111             0.0000000000
     12856       111  SLPC      H14Y           -0.1248631072       14.9957260341       -4.0549789940  MEMB      111             0.0000000000
     12857       111  SLPC      C315            1.4886910381       15.3901505715       -2.4990694502  MEMB      111             0.0000000000
     12858       111  SLPC      H15X            2.1782161024       16.2222626603       -2.3186478943  MEMB      111             0.0000000000
     12859       111  SLPC      H15Y            2.2847303582       14.9070272799       -2.9073732124  MEMB      111             0.0000000000
     12860       111  SLPC      C316            0.9596737598       14.8798476989       -1.1396461625  MEMB      111             0.0000000000
     12861       111  SLPC      H16X            0.1975591967       15.6173769149       -0.8391082547  MEMB      111             0.0000000000
     12862       111  SLPC      H16Y            1.7771955791       14.8923900059       -0.3978651433  MEMB      111             0.0000000000
     12863       111  SLPC      C317            0.3395731824       13.5215807426       -0.8996021638  MEMB      111             0.0000000000
     12864       111  SLPC      H17X            0.8783077872       12.6349014103       -0.6845445542  MEMB      111             0.0000000000
     12865       111  SLPC      H17Y            0.0852092852       13.1770346194       -1.9244768286  MEMB      111             0.0000000000
     12866       111  SLPC      C318           -0.7101479816       13.5567598451        0.2712880434  MEMB      111             0.0000000000
     12867       111  SLPC      H18X           -1.0985543004       12.5353409961        0.4809700851  MEMB      111             0.0000000000
     12868       111  SLPC      H18Y           -1.5866887646       14.1847368447        0.0171950003  MEMB      111             0.0000000000
     12869       111  SLPC      H18Z           -0.4813834114       14.1346934439        1.1424319276  MEMB      111             0.0000000000
     12870       112  CHL1      C3              8.5938007464       14.1150350415      -17.3500783932  MEMB      112             0.0000000000
     12871       112  CHL1      H3              8.6620992814       13.0491783061      -17.0107112689  MEMB      112             0.0000000000
     12872       112  CHL1      O3              8.1976882018       14.2047597013      -18.6968215067  MEMB      112             0.0000000000
     12873       112  CHL1      H3'             7.7648508772       13.3471568458      -18.7749151922  MEMB      112             0.0000000000
     12874       112  CHL1      C4              7.6036409234       14.8647391622      -16.4627704192  MEMB      112             0.0000000000
     12875       112  CHL1      H4A             7.5105594588       15.9293369552      -16.7754196865  MEMB      112             0.0000000000
     12876       112  CHL1      H4B             6.6539154178       14.3325556507      -16.6570864162  MEMB      112             0.0000000000
     12877       112  CHL1      C5              8.0414488878       14.7139517933      -15.0220422175  MEMB      112             0.0000000000
     12878       112  CHL1      C6              7.3510929583       13.9387589680      -14.1977917802  MEMB      112             0.0000000000
     12879       112  CHL1      H6              6.3745636841       13.6276758937      -14.5618042134  MEMB      112             0.0000000000
     12880       112  CHL1      C7              7.6816599394       13.6950906957      -12.7455727966  MEMB      112             0.0000000000
     12881       112  CHL1      H7A             6.7877274093       13.7629377051      -12.0844756661  MEMB      112             0.0000000000
     12882       112  CHL1      H7B             8.0559425890       12.6732480096      -12.6053311413  MEMB      112             0.0000000000
     12883       112  CHL1      C8              8.6978039456       14.7362084468      -12.2287115368  MEMB      112             0.0000000000
     12884       112  CHL1      H8              8.2691645661       15.7517952348      -12.0912803817  MEMB      112             0.0000000000
     12885       112  CHL1      C14             9.2442316398       14.2742208236      -10.9042649135  MEMB      112             0.0000000000
     12886       112  CHL1      H14             9.7692093442       13.3234428618      -11.1444075152  MEMB      112             0.0000000000
     12887       112  CHL1      C15             8.2915233894       13.9505615450       -9.7620422039  MEMB      112             0.0000000000
     12888       112  CHL1      H15A            7.5081648251       14.7337220281       -9.7558592397  MEMB      112             0.0000000000
     12889       112  CHL1      H15B            7.8855700442       12.9329900481       -9.8694270865  MEMB      112             0.0000000000
     12890       112  CHL1      C16             9.1493948695       14.0587557003       -8.5102603799  MEMB      112             0.0000000000
     12891       112  CHL1      H16A            8.7386678796       14.8485820069       -7.8395582425  MEMB      112             0.0000000000
     12892       112  CHL1      H16B            9.2300283909       13.1111936292       -7.9469160099  MEMB      112             0.0000000000
     12893       112  CHL1      C17            10.5288162925       14.5549613026       -9.0075094312  MEMB      112             0.0000000000
     12894       112  CHL1      H17            11.1932657897       13.6704261983       -9.1489508107  MEMB      112             0.0000000000
     12895       112  CHL1      C13            10.2333600981       15.2053982439      -10.2945072668  MEMB      112             0.0000000000
     12896       112  CHL1      C18             9.6931429327       16.6159074153       -9.9495037500  MEMB      112             0.0000000000
     12897       112  CHL1      H18A            9.0760389570       16.5873784676       -9.0324049047  MEMB      112             0.0000000000
     12898       112  CHL1      H18B           10.5409092861       17.3187119860       -9.7960734339  MEMB      112             0.0000000000
     12899       112  CHL1      H18C            9.0747731853       17.0355867959      -10.7471325777  MEMB      112             0.0000000000
     12900       112  CHL1      C12            11.3738592680       15.2755159629      -11.2080014378  MEMB      112             0.0000000000
     12901       112  CHL1      H12A           12.0811998983       15.9022538988      -10.6976715386  MEMB      112             0.0000000000
     12902       112  CHL1      H12B           11.9417532518       14.3722041377      -11.2875485992  MEMB      112             0.0000000000
     12903       112  CHL1      C11            10.8976746575       15.7734029346      -12.5537681435  MEMB      112             0.0000000000
     12904       112  CHL1      H11A           10.6748365037       16.8392862815      -12.4526805676  MEMB      112             0.0000000000
     12905       112  CHL1      H11B           11.7303577714       15.7962790855      -13.1872770685  MEMB      112             0.0000000000
     12906       112  CHL1      C9              9.8254738466       14.8932690966      -13.2194734750  MEMB      112             0.0000000000
     12907       112  CHL1      H9             10.2406172932       13.8593831284      -13.3318157689  MEMB      112             0.0000000000
     12908       112  CHL1      C10             9.3544694915       15.3351653814      -14.6416471287  MEMB      112             0.0000000000
     12909       112  CHL1      C19             9.3058335984       16.8998737510      -14.7037864868  MEMB      112             0.0000000000
     12910       112  CHL1      H19A            8.9417216618       17.3042389743      -13.7365196893  MEMB      112             0.0000000000
     12911       112  CHL1      H19B           10.2988982507       17.3585968205      -14.8968881889  MEMB      112             0.0000000000
     12912       112  CHL1      H19C            8.6184896185       17.2801532875      -15.4848445042  MEMB      112             0.0000000000
     12913       112  CHL1      C1             10.2327858835       14.6656128879      -15.7181205728  MEMB      112             0.0000000000
     12914       112  CHL1      H1A            11.0333426817       15.3722619095      -15.7886558793  MEMB      112             0.0000000000
     12915       112  CHL1      H1B            10.5741877990       13.6476193230      -15.4005882813  MEMB      112             0.0000000000
     12916       112  CHL1      C2              9.9195073243       14.7165263574      -17.2030138677  MEMB      112             0.0000000000
     12917       112  CHL1      H2A            10.7306996889       14.1890437642      -17.7703974584  MEMB      112             0.0000000000
     12918       112  CHL1      H2B             9.8837139445       15.7828066756      -17.5292434828  MEMB      112             0.0000000000
     12919       112  CHL1      C20            11.1445958867       15.5039864056       -8.0227202184  MEMB      112             0.0000000000
     12920       112  CHL1      H20            10.4611796157       16.2131746212       -7.5235536790  MEMB      112             0.0000000000
     12921       112  CHL1      C21            12.4245063452       16.1058387026       -8.4186441289  MEMB      112             0.0000000000
     12922       112  CHL1      H21A           13.1627359481       15.4408469360       -8.9357998265  MEMB      112             0.0000000000
     12923       112  CHL1      H21B           12.8762716025       16.3412937381       -7.4536214142  MEMB      112             0.0000000000
     12924       112  CHL1      H21C           12.3138737233       17.0682698080       -8.9223605541  MEMB      112             0.0000000000
     12925       112  CHL1      C22            11.5573168193       14.8085405776       -6.8549282276  MEMB      112             0.0000000000
     12926       112  CHL1      H22A           10.7540284624       14.1081460754       -6.8006052193  MEMB      112             0.0000000000
     12927       112  CHL1      H22B           12.4361046030       14.2475406078       -7.2848321253  MEMB      112             0.0000000000
     12928       112  CHL1      C23            11.6869236875       15.7721427606       -5.5531742060  MEMB      112             0.0000000000
     12929       112  CHL1      H23A           12.6449380182       16.1809698762       -5.5524741585  MEMB      112             0.0000000000
     12930       112  CHL1      H23B           10.8702237866       16.4749631406       -5.3490878907  MEMB      112             0.0000000000
     12931       112  CHL1      C24            12.3341960108       15.3300254226       -4.1765559248  MEMB      112             0.0000000000
     12932       112  CHL1      H24A           11.5277706295       14.8737017273       -4.7510675793  MEMB      112             0.0000000000
     12933       112  CHL1      H24B           13.2493835781       14.7852223743       -4.2215155156  MEMB      112             0.0000000000
     12934       112  CHL1      C25            12.1391933195       15.1880108819       -2.5560927852  MEMB      112             0.0000000000
     12935       112  CHL1      H25            12.9846604731       15.7280360842       -2.6130695863  MEMB      112             0.0000000000
     12936       112  CHL1      C26            10.8617563275       15.9504045202       -2.1994097447  MEMB      112             0.0000000000
     12937       112  CHL1      H26A           10.8441823862       16.2647698249       -1.1428031596  MEMB      112             0.0000000000
     12938       112  CHL1      H26B           10.5686062313       16.5572613845       -3.0764748597  MEMB      112             0.0000000000
     12939       112  CHL1      H26C            9.9357397303       15.4097791913       -2.1430032991  MEMB      112             0.0000000000
     12940       112  CHL1      C27            12.8030014878       14.0164746245       -1.4842903064  MEMB      112             0.0000000000
     12941       112  CHL1      H27A           12.0989281139       13.2995233422       -1.0425149916  MEMB      112             0.0000000000
     12942       112  CHL1      H27B           13.5660583836       13.3390755741       -1.9089364755  MEMB      112             0.0000000000
     12943       112  CHL1      H27C           13.1718059455       14.1984503362       -0.4684793781  MEMB      112             0.0000000000
     12944       113  SAPE      N              17.9180678343       -6.3649553631      -21.8902087191  MEMB      113             0.0000000000
     12945       113  SAPE      HN1            18.4798151300       -6.7207217538      -22.7022646903  MEMB      113             0.0000000000
     12946       113  SAPE      HN2            16.9289078852       -6.1854669895      -22.1978598826  MEMB      113             0.0000000000
     12947       113  SAPE      HN3            18.3256796263       -5.4684800734      -21.5445805773  MEMB      113             0.0000000000
     12948       113  SAPE      C12            17.8993236552       -7.3763599336      -20.7589318771  MEMB      113             0.0000000000
     12949       113  SAPE      H12A           18.8902217089       -7.3456689322      -20.2570730050  MEMB      113             0.0000000000
     12950       113  SAPE      H12B           17.7528963191       -8.3809973880      -21.2144197871  MEMB      113             0.0000000000
     12951       113  SAPE      C11            16.7714313318       -7.0921068636      -19.7455038025  MEMB      113             0.0000000000
     12952       113  SAPE      H11A           16.8834227387       -6.0888595865      -19.2772468552  MEMB      113             0.0000000000
     12953       113  SAPE      H11B           16.8635863714       -7.8588872961      -18.9300341754  MEMB      113             0.0000000000
     12954       113  SAPE      P              14.2236851586       -7.7008532059      -19.6032339532  MEMB      113             0.0000000000
     12955       113  SAPE      O13            12.9844088536       -7.6149944466      -20.4052811208  MEMB      113             0.0000000000
     12956       113  SAPE      O14            14.5387632196       -9.0012245610      -19.0027477479  MEMB      113             0.0000000000
     12957       113  SAPE      O12            15.5078437910       -7.1532236216      -20.4037364275  MEMB      113             0.0000000000
     12958       113  SAPE      O11            14.1936325914       -6.6197725334      -18.4601378153  MEMB      113             0.0000000000
     12959       113  SAPE      C1             13.2381373248       -6.8710023232      -17.4430627836  MEMB      113             0.0000000000
     12960       113  SAPE      HA             12.2049559493       -7.0493663320      -17.8416514019  MEMB      113             0.0000000000
     12961       113  SAPE      HB             13.5332048311       -7.7385852639      -16.8045819205  MEMB      113             0.0000000000
     12962       113  SAPE      C2             13.1975396231       -5.6876090578      -16.5007226376  MEMB      113             0.0000000000
     12963       113  SAPE      HS             12.7832716172       -4.8125620655      -17.0691647663  MEMB      113             0.0000000000
     12964       113  SAPE      O21            14.5128406168       -5.4742343700      -15.8759990054  MEMB      113             0.0000000000
     12965       113  SAPE      C21            15.0208443157       -4.2777964240      -15.9323840999  MEMB      113             0.0000000000
     12966       113  SAPE      O22            14.6859549244       -3.4059524335      -16.7143228890  MEMB      113             0.0000000000
     12967       113  SAPE      C22            16.1642524523       -4.0740589806      -14.8981781942  MEMB      113             0.0000000000
     12968       113  SAPE      H2R            16.2254122644       -4.9344994042      -14.2010208954  MEMB      113             0.0000000000
     12969       113  SAPE      H2S            16.9662904754       -4.0445825655      -15.6458377838  MEMB      113             0.0000000000
     12970       113  SAPE      C3             12.2327558402       -6.0727707023      -15.4134875746  MEMB      113             0.0000000000
     12971       113  SAPE      HX             11.2147326018       -6.4055338933      -15.6072794062  MEMB      113             0.0000000000
     12972       113  SAPE      HY             11.9964389770       -5.2957338459      -14.8001741450  MEMB      113             0.0000000000
     12973       113  SAPE      O31            12.9662989540       -6.9631447886      -14.6387327994  MEMB      113             0.0000000000
     12974       113  SAPE      C31            13.5344487881       -6.5882588240      -13.5251947842  MEMB      113             0.0000000000
     12975       113  SAPE      O32            13.4772998722       -5.5058559641      -12.9640433586  MEMB      113             0.0000000000
     12976       113  SAPE      C32            14.1317295553       -7.8871992157      -12.9232640294  MEMB      113             0.0000000000
     12977       113  SAPE      H2X            13.8988708301       -8.7870803185      -13.5307848371  MEMB      113             0.0000000000
     12978       113  SAPE      H2Y            13.8222455088       -8.1916151383      -11.8974904304  MEMB      113             0.0000000000
     12979       113  SAPE      C23            16.3525470620       -2.7828198719      -14.0404468689  MEMB      113             0.0000000000
     12980       113  SAPE      H3R            15.8082047433       -1.9425390998      -14.5005447378  MEMB      113             0.0000000000
     12981       113  SAPE      H3S            17.3376776321       -2.2896465129      -14.1044860880  MEMB      113             0.0000000000
     12982       113  SAPE      C24            16.0501356568       -3.1324212702      -12.5350735684  MEMB      113             0.0000000000
     12983       113  SAPE      H4R            16.7936443537       -3.7994941235      -12.1214611641  MEMB      113             0.0000000000
     12984       113  SAPE      H4S            15.0287849421       -3.5898634354      -12.4628842566  MEMB      113             0.0000000000
     12985       113  SAPE      C25            16.0114100706       -1.9181400633      -11.7051924061  MEMB      113             0.0000000000
     12986       113  SAPE      H5R            15.9819002164       -1.1776111798      -12.4593119245  MEMB      113             0.0000000000
     12987       113  SAPE      C26            16.2336487628       -1.5914137958      -10.4198875799  MEMB      113             0.0000000000
     12988       113  SAPE      H6R            16.0148868028       -0.5884064149      -10.0068070878  MEMB      113             0.0000000000
     12989       113  SAPE      C27            16.6343496942       -2.6188300672       -9.4637792418  MEMB      113             0.0000000000
     12990       113  SAPE      H7R            17.0797158403       -2.1717402792       -8.5518574894  MEMB      113             0.0000000000
     12991       113  SAPE      H7S            17.4537881678       -3.1262893853      -10.0077026744  MEMB      113             0.0000000000
     12992       113  SAPE      C28            15.4433210069       -3.5069361774       -9.2340726739  MEMB      113             0.0000000000
     12993       113  SAPE      H8R            14.9693534720       -3.9094434985      -10.1498802582  MEMB      113             0.0000000000
     12994       113  SAPE      C29            14.8730649651       -3.7129451761       -8.0478336417  MEMB      113             0.0000000000
     12995       113  SAPE      H9R            14.0438613656       -4.4318823246       -7.9967469512  MEMB      113             0.0000000000
     12996       113  SAPE      C210           15.3270236178       -3.0926429491       -6.7508647698  MEMB      113             0.0000000000
     12997       113  SAPE      H10R           14.4045943055       -2.8864866732       -6.1713506323  MEMB      113             0.0000000000
     12998       113  SAPE      H10S           15.7662147599       -2.0791504896       -6.9186307266  MEMB      113             0.0000000000
     12999       113  SAPE      C211           16.3071202768       -3.9404194394       -5.9601748854  MEMB      113             0.0000000000
     13000       113  SAPE      H11R           17.0621048341       -4.5095147933       -6.5058367874  MEMB      113             0.0000000000
     13001       113  SAPE      C212           16.4024305862       -3.9750300673       -4.6333519201  MEMB      113             0.0000000000
     13002       113  SAPE      H12R           17.0688409426       -4.6823184317       -4.1190806545  MEMB      113             0.0000000000
     13003       113  SAPE      C213           15.5328170870       -3.1563678789       -3.7835208794  MEMB      113             0.0000000000
     13004       113  SAPE      H13R           14.5971670500       -3.6815547161       -3.4834823158  MEMB      113             0.0000000000
     13005       113  SAPE      H13S           15.3233203341       -2.2090101138       -4.2913307190  MEMB      113             0.0000000000
     13006       113  SAPE      C214           16.2431088578       -2.7834997258       -2.5918025564  MEMB      113             0.0000000000
     13007       113  SAPE      H14R           17.3285767619       -2.5943600828       -2.4852045290  MEMB      113             0.0000000000
     13008       113  SAPE      C215           15.5534809530       -2.5766729395       -1.5587934702  MEMB      113             0.0000000000
     13009       113  SAPE      H15R           16.2786822240       -2.1627649000       -0.9846255602  MEMB      113             0.0000000000
     13010       113  SAPE      C216           14.1536559909       -2.5795760796       -1.1062120259  MEMB      113             0.0000000000
     13011       113  SAPE      H16R           13.5421453907       -2.1249978272       -1.8991386529  MEMB      113             0.0000000000
     13012       113  SAPE      H16S           14.2323377752       -1.9429570003       -0.2127056553  MEMB      113             0.0000000000
     13013       113  SAPE      C217           13.4374287264       -3.8359628322       -0.7264552856  MEMB      113             0.0000000000
     13014       113  SAPE      H17R           13.7122736230       -4.5516008462       -1.5184792496  MEMB      113             0.0000000000
     13015       113  SAPE      H17S           12.3574492976       -3.6493228911       -0.8554397231  MEMB      113             0.0000000000
     13016       113  SAPE      C218           13.8394402433       -4.2737893823        0.6886678084  MEMB      113             0.0000000000
     13017       113  SAPE      H18R           13.6614129063       -3.5644508692        1.5052232127  MEMB      113             0.0000000000
     13018       113  SAPE      H18S           14.9307563682       -4.3059337134        0.6982932918  MEMB      113             0.0000000000
     13019       113  SAPE      C219           13.3406349918       -5.6272333954        1.1442137077  MEMB      113             0.0000000000
     13020       113  SAPE      H19R           14.0080561019       -6.1328238666        1.8298530120  MEMB      113             0.0000000000
     13021       113  SAPE      H19S           13.2905970569       -6.2825463982        0.2774345065  MEMB      113             0.0000000000
     13022       113  SAPE      C220           12.0233645308       -5.5519861766        1.8105042692  MEMB      113             0.0000000000
     13023       113  SAPE      H20R           11.8915427333       -4.8463429793        2.6148372514  MEMB      113             0.0000000000
     13024       113  SAPE      H20S           11.5040646171       -6.4710880995        2.1269542913  MEMB      113             0.0000000000
     13025       113  SAPE      H20T           11.5003169920       -5.1085484694        0.9742914164  MEMB      113             0.0000000000
     13026       113  SAPE      C33            15.5348212224       -7.6309226907      -12.9925775315  MEMB      113             0.0000000000
     13027       113  SAPE      H3X            15.7283879036       -6.7976181555      -12.2782106576  MEMB      113             0.0000000000
     13028       113  SAPE      H3Y            15.6812175933       -7.3581888935      -14.0682888384  MEMB      113             0.0000000000
     13029       113  SAPE      C34            16.2314149274       -8.9167117712      -12.7019641173  MEMB      113             0.0000000000
     13030       113  SAPE      H4X            17.2729530889       -8.6665830526      -12.9512353487  MEMB      113             0.0000000000
     13031       113  SAPE      H4Y            15.8878073074       -9.7172677538      -13.4042110292  MEMB      113             0.0000000000
     13032       113  SAPE      C35            16.0589321439       -9.4093757521      -11.2676906575  MEMB      113             0.0000000000
     13033       113  SAPE      H5X            16.7806979961      -10.2514295687      -11.1544569512  MEMB      113             0.0000000000
     13034       113  SAPE      H5Y            15.0516401848       -9.8067918092      -11.0187911270  MEMB      113             0.0000000000
     13035       113  SAPE      C36            16.2614025450       -8.4028455654      -10.1623905926  MEMB      113             0.0000000000
     13036       113  SAPE      H6X            15.8019216991       -7.4011649496      -10.1918403151  MEMB      113             0.0000000000
     13037       113  SAPE      H6Y            17.2927605126       -8.0865872299      -10.2058904727  MEMB      113             0.0000000000
     13038       113  SAPE      C37            16.1134200783       -9.1658993509       -8.8491872262  MEMB      113             0.0000000000
     13039       113  SAPE      H7X            16.4711314164       -8.3491199068       -8.2475570500  MEMB      113             0.0000000000
     13040       113  SAPE      H7Y            16.7913051346      -10.0461262384       -8.7727179148  MEMB      113             0.0000000000
     13041       113  SAPE      C38            14.9657079669       -9.0866760356       -7.9042023165  MEMB      113             0.0000000000
     13042       113  SAPE      H8X            15.2136694591       -9.7281473683       -7.0150965903  MEMB      113             0.0000000000
     13043       113  SAPE      H8Y            14.2031877399       -9.5712957631       -8.5310481177  MEMB      113             0.0000000000
     13044       113  SAPE      C39            14.7884719454       -7.5802065353       -7.4711812025  MEMB      113             0.0000000000
     13045       113  SAPE      H9X            14.6476779632       -6.9201820767       -8.3422684966  MEMB      113             0.0000000000
     13046       113  SAPE      H9Y            15.5734621811       -7.2441581528       -6.7468698595  MEMB      113             0.0000000000
     13047       113  SAPE      C310           13.6088395567       -7.3507683759       -6.7026605000  MEMB      113             0.0000000000
     13048       113  SAPE      H10X           13.0752053585       -7.8667751444       -7.5429788670  MEMB      113             0.0000000000
     13049       113  SAPE      H10Y           12.8611541796       -6.5456190572       -6.6505791209  MEMB      113             0.0000000000
     13050       113  SAPE      C311           13.9982490703       -7.9366625020       -5.3413279980  MEMB      113             0.0000000000
     13051       113  SAPE      H11X           14.0948613246       -9.0482049816       -5.2114525134  MEMB      113             0.0000000000
     13052       113  SAPE      H11Y           13.0936429481       -7.6306817707       -4.9006006900  MEMB      113             0.0000000000
     13053       113  SAPE      C312           14.2787217411       -7.1155992745       -4.1302111126  MEMB      113             0.0000000000
     13054       113  SAPE      H12X           13.5950101365       -6.2582947764       -3.8649005811  MEMB      113             0.0000000000
     13055       113  SAPE      H12Y           15.1323385953       -6.5981434137       -4.5649454570  MEMB      113             0.0000000000
     13056       113  SAPE      C313           14.5009347805       -8.0905118631       -2.9627005610  MEMB      113             0.0000000000
     13057       113  SAPE      H13X           14.8917870798       -9.0676971371       -3.3503065778  MEMB      113             0.0000000000
     13058       113  SAPE      H13Y           13.7055972500       -8.3659701398       -2.2505924367  MEMB      113             0.0000000000
     13059       113  SAPE      C314           15.5401320805       -7.3727274924       -2.1971538705  MEMB      113             0.0000000000
     13060       113  SAPE      H14X           15.4061143378       -6.3024375865       -2.0149811527  MEMB      113             0.0000000000
     13061       113  SAPE      H14Y           16.1713447491       -7.2777548952       -3.0889256015  MEMB      113             0.0000000000
     13062       113  SAPE      C315           15.9421766834       -8.0952282906       -0.9186694253  MEMB      113             0.0000000000
     13063       113  SAPE      H15X           16.1440178434       -9.1449749467       -1.1167097095  MEMB      113             0.0000000000
     13064       113  SAPE      H15Y           15.0965926592       -8.3114282639       -0.2498189172  MEMB      113             0.0000000000
     13065       113  SAPE      C316           17.0681662092       -7.3534092252       -0.1855955877  MEMB      113             0.0000000000
     13066       113  SAPE      H16X           16.7204525395       -6.3383540736        0.0859229369  MEMB      113             0.0000000000
     13067       113  SAPE      H16Y           17.9882598697       -7.2503541455       -0.8089918953  MEMB      113             0.0000000000
     13068       113  SAPE      C317           17.4180840307       -8.0086201104        1.1201006743  MEMB      113             0.0000000000
     13069       113  SAPE      H17X           16.6037038001       -7.8800723608        1.8595803147  MEMB      113             0.0000000000
     13070       113  SAPE      H17Y           18.3287070005       -7.5163774255        1.5492342063  MEMB      113             0.0000000000
     13071       113  SAPE      C318           17.6187142905       -9.4815849820        0.9222402565  MEMB      113             0.0000000000
     13072       113  SAPE      H18X           17.8163598842       -9.8503447913        1.9249125573  MEMB      113             0.0000000000
     13073       113  SAPE      H18Y           18.4246450550       -9.6238769723        0.1860949754  MEMB      113             0.0000000000
     13074       113  SAPE      H18Z           16.8151531276      -10.1361562482        0.5751859225  MEMB      113             0.0000000000
     13075       114  OSM       N               9.6578716361      -12.6179019596      -22.2092533121  MEMB      114             0.0000000000
     13076       114  OSM       C15            11.1410632115      -12.5259258909      -22.4184535355  MEMB      114             0.0000000000
     13077       114  OSM       H15A           11.6782379600      -13.1562002454      -21.7052679325  MEMB      114             0.0000000000
     13078       114  OSM       H15B           11.5322293426      -11.5332201081      -22.2207955289  MEMB      114             0.0000000000
     13079       114  OSM       H15C           11.3850721411      -12.8513867268      -23.4134155437  MEMB      114             0.0000000000
     13080       114  OSM       C14             9.3385937091      -12.1818845581      -20.8102179234  MEMB      114             0.0000000000
     13081       114  OSM       H14A            9.8177850101      -11.2459260833      -20.5692219844  MEMB      114             0.0000000000
     13082       114  OSM       H14B            9.7232091367      -12.9355794778      -20.1046330892  MEMB      114             0.0000000000
     13083       114  OSM       H14C            8.2722456046      -12.0700545422      -20.6623468227  MEMB      114             0.0000000000
     13084       114  OSM       C13             8.9871636744      -11.7278876963      -23.1646668841  MEMB      114             0.0000000000
     13085       114  OSM       H13A            7.9059404119      -11.8098288717      -23.0885387145  MEMB      114             0.0000000000
     13086       114  OSM       H13B            9.2187688466      -11.9869910833      -24.1874925654  MEMB      114             0.0000000000
     13087       114  OSM       H13C            9.2928688978      -10.7101148158      -22.9695543505  MEMB      114             0.0000000000
     13088       114  OSM       C12             9.1896318633      -14.0450595020      -22.4086277860  MEMB      114             0.0000000000
     13089       114  OSM       H12A            9.1059905980      -14.2362625475      -23.4672281642  MEMB      114             0.0000000000
     13090       114  OSM       H12B            8.1878305674      -14.1456006698      -22.0042911789  MEMB      114             0.0000000000
     13091       114  OSM       C11            10.0810141044      -15.1390516493      -21.7991975166  MEMB      114             0.0000000000
     13092       114  OSM       H11A           10.9344206937      -15.3104292468      -22.5005332104  MEMB      114             0.0000000000
     13093       114  OSM       H11B            9.5038368008      -16.0976063139      -21.7379472304  MEMB      114             0.0000000000
     13094       114  OSM       P              11.4103075167      -15.7984602187      -19.7478779751  MEMB      114             0.0000000000
     13095       114  OSM       O13            12.2238545030      -16.5139998701      -20.7732669848  MEMB      114             0.0000000000
     13096       114  OSM       O14            12.0683952287      -15.2386033565      -18.5517848852  MEMB      114             0.0000000000
     13097       114  OSM       O11            10.1856953640      -16.6635551867      -19.2614259628  MEMB      114             0.0000000000
     13098       114  OSM       O12            10.5648135426      -14.7173583068      -20.5171000958  MEMB      114             0.0000000000
     13099       114  OSM       C1S             8.8927477307      -16.0838835651      -18.9190279666  MEMB      114             0.0000000000
     13100       114  OSM       H1S             8.2283752767      -16.6143079010      -19.6472786814  MEMB      114             0.0000000000
     13101       114  OSM       H1T             8.7530149126      -15.0662476332      -19.1827540037  MEMB      114             0.0000000000
     13102       114  OSM       NF              9.2915174125      -15.5179225448      -16.4232579284  MEMB      114             0.0000000000
     13103       114  OSM       HNF             9.8226174790      -16.1325354498      -15.8246834754  MEMB      114             0.0000000000
     13104       114  OSM       C2S             8.5004488750      -16.1386313833      -17.2896346916  MEMB      114             0.0000000000
     13105       114  OSM       H2S             7.3854999380      -15.9826701011      -17.1287554908  MEMB      114             0.0000000000
     13106       114  OSM       C3S             8.6965888115      -17.4060503143      -16.9825967993  MEMB      114             0.0000000000
     13107       114  OSM       H3S             9.5905096264      -17.4948563375      -17.3710440019  MEMB      114             0.0000000000
     13108       114  OSM       O3              7.6502751944      -17.8232482451      -18.0363022241  MEMB      114             0.0000000000
     13109       114  OSM       HO3             6.7497913712      -18.2328674710      -18.0537768120  MEMB      114             0.0000000000
     13110       114  OSM       C4S             8.9424961088      -17.6406668217      -15.1234489002  MEMB      114             0.0000000000
     13111       114  OSM       H4S             9.9615299824      -18.1734050770      -14.8500533772  MEMB      114             0.0000000000
     13112       114  OSM       C5S             8.1422512963      -17.8023620830      -13.9928352154  MEMB      114             0.0000000000
     13113       114  OSM       H5S             7.1113353284      -18.1037635628      -13.8628203318  MEMB      114             0.0000000000
     13114       114  OSM       C6S             7.9602187449      -18.2962717917      -12.6262142769  MEMB      114             0.0000000000
     13115       114  OSM       H6S             7.5986022280      -19.4075066009      -12.5818246802  MEMB      114             0.0000000000
     13116       114  OSM       H6T             6.9870880552      -18.0624308751      -12.1397022995  MEMB      114             0.0000000000
     13117       114  OSM       C7S             9.1283138502      -18.0955749951      -12.0043033864  MEMB      114             0.0000000000
     13118       114  OSM       H7S             9.8937241883      -18.6307984166      -12.5932868122  MEMB      114             0.0000000000
     13119       114  OSM       H7T             8.7543400451      -18.7182513023      -11.1573574981  MEMB      114             0.0000000000
     13120       114  OSM       C8S             8.9868993864      -16.5908159716      -12.0344187783  MEMB      114             0.0000000000
     13121       114  OSM       H8S             8.6193602964      -15.9530714078      -12.8938127126  MEMB      114             0.0000000000
     13122       114  OSM       H8T            10.0391431400      -16.3901875545      -11.9805531720  MEMB      114             0.0000000000
     13123       114  OSM       C9S             8.0018527258      -16.1730971327      -10.9925444536  MEMB      114             0.0000000000
     13124       114  OSM       H9S             6.9551091869      -16.5259655304      -11.1437397009  MEMB      114             0.0000000000
     13125       114  OSM       H9T             7.9907673905      -15.0758548047      -11.0410073168  MEMB      114             0.0000000000
     13126       114  OSM       C10S            8.5447121524      -16.6404524344       -9.6934411284  MEMB      114             0.0000000000
     13127       114  OSM       H10S            9.6110387839      -16.3048171173       -9.6891869921  MEMB      114             0.0000000000
     13128       114  OSM       H10T            8.5419607779      -17.7448442981       -9.5693021551  MEMB      114             0.0000000000
     13129       114  OSM       C11S            7.7889313468      -16.0013823704       -8.5659090069  MEMB      114             0.0000000000
     13130       114  OSM       H11S            6.7644632590      -16.4282761160       -8.4870363262  MEMB      114             0.0000000000
     13131       114  OSM       H11T            7.6670297063      -14.9164602135       -8.7905840776  MEMB      114             0.0000000000
     13132       114  OSM       C12S            8.6538303045      -16.2652177208       -7.3447757404  MEMB      114             0.0000000000
     13133       114  OSM       H12S            9.6592698704      -15.8237313270       -7.5443002752  MEMB      114             0.0000000000
     13134       114  OSM       H12T            8.7941683752      -17.3650527006       -7.2392498331  MEMB      114             0.0000000000
     13135       114  OSM       C13S            8.1431987322      -15.6434969293       -6.0577852081  MEMB      114             0.0000000000
     13136       114  OSM       H13S            7.1635670754      -16.0988285763       -5.7875593565  MEMB      114             0.0000000000
     13137       114  OSM       H13T            7.9864822098      -14.5619096516       -6.2700099569  MEMB      114             0.0000000000
     13138       114  OSM       C14S            9.1573492007      -15.7981939008       -4.9138056558  MEMB      114             0.0000000000
     13139       114  OSM       H14S            8.8781171727      -15.1249565578       -4.0745060190  MEMB      114             0.0000000000
     13140       114  OSM       H14T           10.1757341778      -15.4810640473       -5.2385357121  MEMB      114             0.0000000000
     13141       114  OSM       C15S            9.2885827403      -17.2480089448       -4.4418619067  MEMB      114             0.0000000000
     13142       114  OSM       H15S            9.9116526078      -17.7956281587       -5.1835687510  MEMB      114             0.0000000000
     13143       114  OSM       H15T            8.3422046553      -17.7836889024       -4.3950638286  MEMB      114             0.0000000000
     13144       114  OSM       C16S           10.0045575643      -17.3735446658       -3.1291909017  MEMB      114             0.0000000000
     13145       114  OSM       H16S            9.8884555946      -18.4031005697       -2.7094864108  MEMB      114             0.0000000000
     13146       114  OSM       H16T            9.6267108667      -16.6649755147       -2.3508388809  MEMB      114             0.0000000000
     13147       114  OSM       C17S           11.4459648951      -17.1219088879       -3.5166756107  MEMB      114             0.0000000000
     13148       114  OSM       H17S           11.6680068416      -16.0248946189       -3.5770912126  MEMB      114             0.0000000000
     13149       114  OSM       H17T           11.8176331435      -17.7185359853       -4.3666084781  MEMB      114             0.0000000000
     13150       114  OSM       C18S           12.2793808456      -17.4857599571       -2.4382663295  MEMB      114             0.0000000000
     13151       114  OSM       H18S           12.3328212682      -18.5183322453       -2.0954030965  MEMB      114             0.0000000000
     13152       114  OSM       H18T           11.6930435175      -16.9621596437       -1.7161985243  MEMB      114             0.0000000000
     13153       114  OSM       H18U           13.2492093121      -17.0019844086       -2.4795425141  MEMB      114             0.0000000000
     13154       114  OSM       C1F             9.4697144832      -14.3491651049      -16.4789297889  MEMB      114             0.0000000000
     13155       114  OSM       OF              8.6703351399      -13.6827276803      -17.1108563541  MEMB      114             0.0000000000
     13156       114  OSM       C2F            10.6890545250      -13.9959246265      -15.7358079218  MEMB      114             0.0000000000
     13157       114  OSM       H2F            11.4035821354      -13.6406667498      -16.5079439430  MEMB      114             0.0000000000
     13158       114  OSM       H2G            11.1137496981      -14.8437002405      -15.1573736819  MEMB      114             0.0000000000
     13159       114  OSM       C3F            10.3420191986      -12.9803645539      -14.6811193013  MEMB      114             0.0000000000
     13160       114  OSM       H3F             9.9828533362      -12.2831151711      -15.4710294017  MEMB      114             0.0000000000
     13161       114  OSM       H3G            11.2289973722      -12.4961825122      -14.2662303683  MEMB      114             0.0000000000
     13162       114  OSM       C4F             9.3541033451      -13.4344992835      -13.4976623212  MEMB      114             0.0000000000
     13163       114  OSM       H4F             9.9093089438      -14.2155801075      -12.9628140351  MEMB      114             0.0000000000
     13164       114  OSM       H4G             8.4531327987      -13.8644142717      -13.9972058727  MEMB      114             0.0000000000
     13165       114  OSM       C5F             8.7830708382      -12.4536543548      -12.3445654736  MEMB      114             0.0000000000
     13166       114  OSM       H5F             8.2051137922      -12.9833494122      -11.5871484155  MEMB      114             0.0000000000
     13167       114  OSM       H5G             7.8798814422      -11.8694751299      -12.6299715587  MEMB      114             0.0000000000
     13168       114  OSM       C6F             9.8291889052      -11.5600595085      -11.6638882869  MEMB      114             0.0000000000
     13169       114  OSM       H6F             9.4699484830      -10.6586665954      -11.1351455248  MEMB      114             0.0000000000
     13170       114  OSM       H6G            10.4673641029      -11.0575558753      -12.3239198853  MEMB      114             0.0000000000
     13171       114  OSM       C7F            10.8965341960      -12.4395499976      -11.0448530687  MEMB      114             0.0000000000
     13172       114  OSM       H7F            11.3108305703      -13.0917207143      -11.8488156470  MEMB      114             0.0000000000
     13173       114  OSM       H7G            10.2995334987      -13.0466620911      -10.3412213919  MEMB      114             0.0000000000
     13174       114  OSM       C8F            12.0764317711      -11.7102767669      -10.3864770116  MEMB      114             0.0000000000
     13175       114  OSM       H8F            11.6622290167      -10.8073057740       -9.9150505450  MEMB      114             0.0000000000
     13176       114  OSM       H8G            12.7497057320      -11.2761702622      -11.1622143475  MEMB      114             0.0000000000
     13177       114  OSM       C9F            12.8676342277      -12.6836710224       -9.5039326411  MEMB      114             0.0000000000
     13178       114  OSM       H9F            13.6694470841      -13.1551065174      -10.0781485264  MEMB      114             0.0000000000
     13179       114  OSM       C10F           12.7390992329      -13.1387738642       -8.2072463376  MEMB      114             0.0000000000
     13180       114  OSM       H10F           13.2976764075      -13.9955433491       -7.8578172342  MEMB      114             0.0000000000
     13181       114  OSM       C11F           11.7698035847      -12.8860976408       -7.0905623366  MEMB      114             0.0000000000
     13182       114  OSM       H11F           11.1130720783      -13.6757432789       -6.7143592799  MEMB      114             0.0000000000
     13183       114  OSM       H11G           11.1228857949      -12.6764048914       -7.9029952809  MEMB      114             0.0000000000
     13184       114  OSM       C12F           11.8419938494      -11.8305285193       -5.9272560801  MEMB      114             0.0000000000
     13185       114  OSM       H12F           12.5268283268      -11.2576324607       -6.6158518950  MEMB      114             0.0000000000
     13186       114  OSM       H12G           12.6501889604      -11.5950013765       -5.2411712538  MEMB      114             0.0000000000
     13187       114  OSM       C13F           10.4027302497      -11.3116477162       -5.3227075788  MEMB      114             0.0000000000
     13188       114  OSM       H13F            9.9470887905      -10.5344965860       -5.8248029340  MEMB      114             0.0000000000
     13189       114  OSM       H13G            9.9095474093      -10.3052478156       -5.1919530547  MEMB      114             0.0000000000
     13190       114  OSM       C14F            9.5547302795      -11.7484027831       -4.2841788250  MEMB      114             0.0000000000
     13191       114  OSM       H14F            9.2836250184      -12.6864120911       -4.7818662813  MEMB      114             0.0000000000
     13192       114  OSM       H14G            8.6303756021      -11.0679859733       -4.2355117337  MEMB      114             0.0000000000
     13193       114  OSM       C15F           10.5303986624      -11.6173523681       -3.1675786204  MEMB      114             0.0000000000
     13194       114  OSM       H15F           10.9569697071      -10.6506125724       -2.8303297343  MEMB      114             0.0000000000
     13195       114  OSM       H15G           11.4490499872      -12.1478615181       -3.4733304504  MEMB      114             0.0000000000
     13196       114  OSM       C16F            9.8553384464      -11.9615400986       -1.9233564233  MEMB      114             0.0000000000
     13197       114  OSM       H16F            8.9477959062      -12.5395233398       -2.1878901913  MEMB      114             0.0000000000
     13198       114  OSM       H16G            9.5116085135      -10.9861554580       -1.4885211446  MEMB      114             0.0000000000
     13199       114  OSM       C17F           10.8781581471      -12.7018321756       -1.0907395341  MEMB      114             0.0000000000
     13200       114  OSM       H17F           10.3973652945      -12.8390723290       -0.1081240986  MEMB      114             0.0000000000
     13201       114  OSM       H17G           11.7799610392      -12.0582607179       -0.9539458466  MEMB      114             0.0000000000
     13202       114  OSM       C18F           11.3033845371      -14.0778556203       -1.6292080989  MEMB      114             0.0000000000
     13203       114  OSM       H18F           11.7990894171      -14.6519824453       -0.8268375788  MEMB      114             0.0000000000
     13204       114  OSM       H18G           12.0250844785      -14.0729206372       -2.4575943696  MEMB      114             0.0000000000
     13205       114  OSM       H18H           10.4340822285      -14.6475027429       -2.0059723844  MEMB      114             0.0000000000
     13206       115  CHL1      C3            -12.7349538142       12.6058279865      -17.4060945571  MEMB      115             0.0000000000
     13207       115  CHL1      H3            -13.6930405306       12.0561967437      -17.5907042781  MEMB      115             0.0000000000
     13208       115  CHL1      O3            -12.0903049997       12.9384373690      -18.6268805856  MEMB      115             0.0000000000
     13209       115  CHL1      H3'           -11.9737052040       12.1068861462      -19.1315512259  MEMB      115             0.0000000000
     13210       115  CHL1      C4            -12.9787927348       13.9458075358      -16.6922801143  MEMB      115             0.0000000000
     13211       115  CHL1      H4A           -12.0033465818       14.4776406808      -16.7269129976  MEMB      115             0.0000000000
     13212       115  CHL1      H4B           -13.6599979259       14.5789489574      -17.3025141425  MEMB      115             0.0000000000
     13213       115  CHL1      C5            -13.4278102325       13.7948907619      -15.2532077416  MEMB      115             0.0000000000
     13214       115  CHL1      C6            -14.6259631921       14.2346728448      -14.8046641426  MEMB      115             0.0000000000
     13215       115  CHL1      H6            -15.3292383712       14.7242967551      -15.4947930795  MEMB      115             0.0000000000
     13216       115  CHL1      C7            -15.0816088854       14.1041877873      -13.3722807487  MEMB      115             0.0000000000
     13217       115  CHL1      H7A           -15.5709770788       15.0012041920      -12.9546879396  MEMB      115             0.0000000000
     13218       115  CHL1      H7B           -15.8823313469       13.3376445745      -13.2967674043  MEMB      115             0.0000000000
     13219       115  CHL1      C8            -13.8935303151       13.7834979240      -12.4313894375  MEMB      115             0.0000000000
     13220       115  CHL1      H8            -13.2397457378       14.6800673581      -12.3284836061  MEMB      115             0.0000000000
     13221       115  CHL1      C14           -14.4861538816       13.3778655101      -11.0934301292  MEMB      115             0.0000000000
     13222       115  CHL1      H14           -15.1374694148       12.5062629830      -11.3559569235  MEMB      115             0.0000000000
     13223       115  CHL1      C15           -15.4073714487       14.3754102405      -10.3612162858  MEMB      115             0.0000000000
     13224       115  CHL1      H15A          -14.9348286360       15.3822804618      -10.3237585550  MEMB      115             0.0000000000
     13225       115  CHL1      H15B          -16.3937060635       14.4680590028      -10.8551679548  MEMB      115             0.0000000000
     13226       115  CHL1      C16           -15.4681662976       13.8325436764       -8.9265006194  MEMB      115             0.0000000000
     13227       115  CHL1      H16A          -15.1319811001       14.6582159764       -8.2580098150  MEMB      115             0.0000000000
     13228       115  CHL1      H16B          -16.4825954798       13.5168844261       -8.6143473128  MEMB      115             0.0000000000
     13229       115  CHL1      C17           -14.4363659941       12.6598674302       -8.8371285802  MEMB      115             0.0000000000
     13230       115  CHL1      H17           -14.9872127840       11.7072579762       -9.0294848342  MEMB      115             0.0000000000
     13231       115  CHL1      C13           -13.5074698368       12.8540072676      -10.0567273382  MEMB      115             0.0000000000
     13232       115  CHL1      C18           -12.4772802192       13.9562582198       -9.7245738220  MEMB      115             0.0000000000
     13233       115  CHL1      H18A          -11.7415614148       13.5938779991       -8.9800496193  MEMB      115             0.0000000000
     13234       115  CHL1      H18B          -11.9069102224       14.2781702569      -10.6152906953  MEMB      115             0.0000000000
     13235       115  CHL1      H18C          -12.9989820619       14.8465690838       -9.3330575218  MEMB      115             0.0000000000
     13236       115  CHL1      C12           -12.8359108138       11.6114579979      -10.6580652766  MEMB      115             0.0000000000
     13237       115  CHL1      H12A          -12.1140500113       11.1979593287       -9.9318885618  MEMB      115             0.0000000000
     13238       115  CHL1      H12B          -13.5778885264       10.8171846330      -10.8966558462  MEMB      115             0.0000000000
     13239       115  CHL1      C11           -12.1012015729       11.9935675240      -11.9567233989  MEMB      115             0.0000000000
     13240       115  CHL1      H11A          -11.2893132995       12.7034500656      -11.7041094595  MEMB      115             0.0000000000
     13241       115  CHL1      H11B          -11.6156548478       11.0730433899      -12.3330038203  MEMB      115             0.0000000000
     13242       115  CHL1      C9            -13.0537069836       12.6423032243      -13.0087238750  MEMB      115             0.0000000000
     13243       115  CHL1      H9            -13.8084489557       11.8485953790      -13.2405826669  MEMB      115             0.0000000000
     13244       115  CHL1      C10           -12.4268974879       12.9902032549      -14.3849777873  MEMB      115             0.0000000000
     13245       115  CHL1      C19           -11.0832548794       13.7713414715      -14.2031376702  MEMB      115             0.0000000000
     13246       115  CHL1      H19A          -10.4094848281       13.2494143489      -13.4969470642  MEMB      115             0.0000000000
     13247       115  CHL1      H19B          -10.5172525001       13.8318345342      -15.1532695971  MEMB      115             0.0000000000
     13248       115  CHL1      H19C          -11.2450200057       14.8140853676      -13.8580368897  MEMB      115             0.0000000000
     13249       115  CHL1      C1            -12.1987988008       11.6322798046      -15.1160813109  MEMB      115             0.0000000000
     13250       115  CHL1      H1A           -11.4432007911       11.0237694674      -14.5748037277  MEMB      115             0.0000000000
     13251       115  CHL1      H1B           -13.1639977252       11.0772530562      -15.1154648964  MEMB      115             0.0000000000
     13252       115  CHL1      C2            -11.7793049887       11.7308914515      -16.5862184430  MEMB      115             0.0000000000
     13253       115  CHL1      H2A           -11.7366118222       10.7064297006      -17.0154235627  MEMB      115             0.0000000000
     13254       115  CHL1      H2B           -10.7704540154       12.1906902371      -16.6045253940  MEMB      115             0.0000000000
     13255       115  CHL1      C20           -13.8466922732       12.5601051488       -7.4180163374  MEMB      115             0.0000000000
     13256       115  CHL1      H20           -13.3423238365       13.5197240863       -7.1603662754  MEMB      115             0.0000000000
     13257       115  CHL1      C21           -12.8035543893       11.4293958049       -7.3326650564  MEMB      115             0.0000000000
     13258       115  CHL1      H21A          -12.5152923659       11.1524181302       -6.2996350276  MEMB      115             0.0000000000
     13259       115  CHL1      H21B          -11.8515983555       11.7233270275       -7.8179657492  MEMB      115             0.0000000000
     13260       115  CHL1      H21C          -13.1956978467       10.5213019801       -7.8311300641  MEMB      115             0.0000000000
     13261       115  CHL1      C22           -14.9946110159       12.3306429757       -6.4044999727  MEMB      115             0.0000000000
     13262       115  CHL1      H22A          -15.6870731820       13.2041524217       -6.3971043828  MEMB      115             0.0000000000
     13263       115  CHL1      H22B          -15.5881537401       11.4605309417       -6.7677280226  MEMB      115             0.0000000000
     13264       115  CHL1      C23           -14.5579848665       12.0493881955       -4.9541031922  MEMB      115             0.0000000000
     13265       115  CHL1      H23A          -15.3605799114       11.3996053131       -4.5555345317  MEMB      115             0.0000000000
     13266       115  CHL1      H23B          -13.7220589208       11.3487821742       -4.8576378583  MEMB      115             0.0000000000
     13267       115  CHL1      C24           -14.2613034260       13.3569597867       -4.1561505108  MEMB      115             0.0000000000
     13268       115  CHL1      H24A          -13.6605327201       14.0083395395       -4.8014481860  MEMB      115             0.0000000000
     13269       115  CHL1      H24B          -15.1718462166       13.9841957077       -4.0814926477  MEMB      115             0.0000000000
     13270       115  CHL1      C25           -13.5289161978       13.2193423657       -2.7632296795  MEMB      115             0.0000000000
     13271       115  CHL1      H25           -12.5134247315       12.8609857192       -3.0230932500  MEMB      115             0.0000000000
     13272       115  CHL1      C26           -13.4633082709       14.5094740802       -1.9713365146  MEMB      115             0.0000000000
     13273       115  CHL1      H26A          -14.4844804968       14.8429949835       -1.6748357282  MEMB      115             0.0000000000
     13274       115  CHL1      H26B          -12.8798155582       14.3264886894       -1.0415551259  MEMB      115             0.0000000000
     13275       115  CHL1      H26C          -12.9616791215       15.2642357732       -2.6007359824  MEMB      115             0.0000000000
     13276       115  CHL1      C27           -14.0408706698       12.1900921584       -1.7788366352  MEMB      115             0.0000000000
     13277       115  CHL1      H27A          -14.1619015408       11.3056027174       -2.3957589949  MEMB      115             0.0000000000
     13278       115  CHL1      H27B          -13.5006682958       11.9375753350       -0.9269529230  MEMB      115             0.0000000000
     13279       115  CHL1      H27C          -14.9693436160       12.4144056674       -1.2218705736  MEMB      115             0.0000000000
     13280       116  OSM       N             -15.1990674886        6.0333441999      -20.9053274764  MEMB      116             0.0000000000
     13281       116  OSM       C15           -14.7202610698        5.7107282010      -22.2799194295  MEMB      116             0.0000000000
     13282       116  OSM       H15A          -14.1520538566        4.7865795549      -22.2828754711  MEMB      116             0.0000000000
     13283       116  OSM       H15B          -14.0463386597        6.4853991003      -22.6189091028  MEMB      116             0.0000000000
     13284       116  OSM       H15C          -15.5578241308        5.5924747059      -22.9509744571  MEMB      116             0.0000000000
     13285       116  OSM       C14           -16.1700120108        4.9959585509      -20.4730272034  MEMB      116             0.0000000000
     13286       116  OSM       H14A          -15.7677144200        4.0005789321      -20.4325337083  MEMB      116             0.0000000000
     13287       116  OSM       H14B          -16.9778085398        5.0402477576      -21.2004887126  MEMB      116             0.0000000000
     13288       116  OSM       H14C          -16.6303059317        5.2660361221      -19.5249271474  MEMB      116             0.0000000000
     13289       116  OSM       C13           -13.9916003602        6.0231998799      -20.0331119143  MEMB      116             0.0000000000
     13290       116  OSM       H13A          -14.2160301770        6.2184509330      -18.9944849752  MEMB      116             0.0000000000
     13291       116  OSM       H13B          -13.3221838810        6.8164579359      -20.3607959375  MEMB      116             0.0000000000
     13292       116  OSM       H13C          -13.4440452426        5.0914797503      -20.1262952165  MEMB      116             0.0000000000
     13293       116  OSM       C12           -15.8687777359        7.4019573061      -20.8177135915  MEMB      116             0.0000000000
     13294       116  OSM       H12A          -15.1495754562        8.1868580577      -21.0449481098  MEMB      116             0.0000000000
     13295       116  OSM       H12B          -16.1465818396        7.5660908368      -19.7774888882  MEMB      116             0.0000000000
     13296       116  OSM       C11           -17.1638983775        7.6588400459      -21.6434391688  MEMB      116             0.0000000000
     13297       116  OSM       H11A          -16.9127765156        7.7345644094      -22.7233576843  MEMB      116             0.0000000000
     13298       116  OSM       H11B          -17.5197820206        8.6682765875      -21.3189149780  MEMB      116             0.0000000000
     13299       116  OSM       P             -19.6740565707        6.9042265986      -21.0436221919  MEMB      116             0.0000000000
     13300       116  OSM       O13           -20.4559165392        7.4666910774      -22.1495360613  MEMB      116             0.0000000000
     13301       116  OSM       O14           -20.1744862115        5.6956712016      -20.3432307322  MEMB      116             0.0000000000
     13302       116  OSM       O11           -19.5209923274        8.0499945642      -20.0237024138  MEMB      116             0.0000000000
     13303       116  OSM       O12           -18.1589534775        6.6482532314      -21.4534695419  MEMB      116             0.0000000000
     13304       116  OSM       C1S           -18.7210920842        7.9625757320      -18.8712469756  MEMB      116             0.0000000000
     13305       116  OSM       H1S           -18.2010324848        8.9485993380      -18.8289295632  MEMB      116             0.0000000000
     13306       116  OSM       H1T           -17.9739636153        7.1543136691      -18.9153363365  MEMB      116             0.0000000000
     13307       116  OSM       NF            -19.8218840001        6.4075696954      -17.1812205307  MEMB      116             0.0000000000
     13308       116  OSM       HNF           -20.7880802163        6.1808409503      -17.2068839376  MEMB      116             0.0000000000
     13309       116  OSM       C2S           -19.5899067612        7.7180761182      -17.6092933243  MEMB      116             0.0000000000
     13310       116  OSM       H2S           -18.9521164415        8.1564786476      -16.7980297301  MEMB      116             0.0000000000
     13311       116  OSM       C3S           -21.0025979387        8.2561427135      -17.8450327531  MEMB      116             0.0000000000
     13312       116  OSM       H3S           -21.6035460244        7.9193855849      -18.6745873061  MEMB      116             0.0000000000
     13313       116  OSM       O3            -20.9453189819        9.5373136304      -18.4068906171  MEMB      116             0.0000000000
     13314       116  OSM       HO3           -20.0433787095        9.8143657946      -18.1785783606  MEMB      116             0.0000000000
     13315       116  OSM       C4S           -21.8189335509        8.3581255710      -16.5798954253  MEMB      116             0.0000000000
     13316       116  OSM       H4S           -22.7541349426        8.0074697064      -16.4901602050  MEMB      116             0.0000000000
     13317       116  OSM       C5S           -21.4971713651        8.5089214888      -15.3590131427  MEMB      116             0.0000000000
     13318       116  OSM       H5S           -20.4121847235        8.6273678571      -15.4686505881  MEMB      116             0.0000000000
     13319       116  OSM       C6S           -22.3964122069        8.7221900827      -14.0853148485  MEMB      116             0.0000000000
     13320       116  OSM       H6S           -23.4460193407        8.6829644902      -14.2500797107  MEMB      116             0.0000000000
     13321       116  OSM       H6T           -22.6333737550        9.8185488224      -13.8550288641  MEMB      116             0.0000000000
     13322       116  OSM       C7S           -22.0822847557        8.1165480290      -12.6742987807  MEMB      116             0.0000000000
     13323       116  OSM       H7S           -21.7104670249        7.0895381332      -12.7454095715  MEMB      116             0.0000000000
     13324       116  OSM       H7T           -22.7810014884        8.5431171255      -11.9216758910  MEMB      116             0.0000000000
     13325       116  OSM       C8S           -21.2548856440        8.9058514024      -11.7377420017  MEMB      116             0.0000000000
     13326       116  OSM       H8S           -21.4359854287        9.8773577482      -12.2699173749  MEMB      116             0.0000000000
     13327       116  OSM       H8T           -20.7596804258        8.6664960919      -12.7323067122  MEMB      116             0.0000000000
     13328       116  OSM       C9S           -20.1363705261        8.7600526092      -10.2558393526  MEMB      116             0.0000000000
     13329       116  OSM       H9S           -20.0387253768        7.7057535054      -10.0944694554  MEMB      116             0.0000000000
     13330       116  OSM       H9T           -20.5597907472        9.3733443025       -9.4481744494  MEMB      116             0.0000000000
     13331       116  OSM       C10S          -18.4280664723        9.3925621371       -9.9145894608  MEMB      116             0.0000000000
     13332       116  OSM       H10S          -17.9505166773       10.3136304051      -10.3594568602  MEMB      116             0.0000000000
     13333       116  OSM       H10T          -17.5441671566        8.9978423266      -10.5015926429  MEMB      116             0.0000000000
     13334       116  OSM       C11S          -17.9060050163        9.5744308339       -8.6336070448  MEMB      116             0.0000000000
     13335       116  OSM       H11S          -18.8217342340       10.0152057325       -8.2683044163  MEMB      116             0.0000000000
     13336       116  OSM       H11T          -17.0503065706       10.3153150903       -8.6211060234  MEMB      116             0.0000000000
     13337       116  OSM       C12S          -17.6279204588        8.1248060855       -8.5152077759  MEMB      116             0.0000000000
     13338       116  OSM       H12S          -16.7318459200        7.8992052113       -9.1391929438  MEMB      116             0.0000000000
     13339       116  OSM       H12T          -18.4767414852        7.5244255651       -8.9333835604  MEMB      116             0.0000000000
     13340       116  OSM       C13S          -17.4962085945        7.7965320287       -7.0982117494  MEMB      116             0.0000000000
     13341       116  OSM       H13S          -16.5268383136        8.2542500984       -6.7968841725  MEMB      116             0.0000000000
     13342       116  OSM       H13T          -17.5701802031        6.7120429705       -6.9589905855  MEMB      116             0.0000000000
     13343       116  OSM       C14S          -18.5770530547        8.4271851920       -6.2830124185  MEMB      116             0.0000000000
     13344       116  OSM       H14S          -19.6188214555        8.2817471953       -6.6636577227  MEMB      116             0.0000000000
     13345       116  OSM       H14T          -18.2820438922        9.4765007586       -6.3269382717  MEMB      116             0.0000000000
     13346       116  OSM       C15S          -18.5149421772        8.0675617685       -4.8250709512  MEMB      116             0.0000000000
     13347       116  OSM       H15S          -18.6770123174        6.9860220145       -4.7600723052  MEMB      116             0.0000000000
     13348       116  OSM       H15T          -19.4739660957        8.4845927386       -4.4786470710  MEMB      116             0.0000000000
     13349       116  OSM       C16S          -17.1721844143        8.4928290653       -4.1159627277  MEMB      116             0.0000000000
     13350       116  OSM       H16S          -16.7562968444        9.4421350908       -4.4983952940  MEMB      116             0.0000000000
     13351       116  OSM       H16T          -16.5371268687        7.6958093407       -4.5467308956  MEMB      116             0.0000000000
     13352       116  OSM       C17S          -17.0727717317        8.5893721528       -2.5199383332  MEMB      116             0.0000000000
     13353       116  OSM       H17S          -17.2523910201        7.6297683428       -2.2813168160  MEMB      116             0.0000000000
     13354       116  OSM       H17T          -17.8347478732        8.6203489664       -1.7424086897  MEMB      116             0.0000000000
     13355       116  OSM       C18S          -16.1616502794        9.2997743611       -1.5959846721  MEMB      116             0.0000000000
     13356       116  OSM       H18S          -16.0080610855        8.6443516066       -0.6967056868  MEMB      116             0.0000000000
     13357       116  OSM       H18T          -15.8943642032       10.3354288907       -1.5195398993  MEMB      116             0.0000000000
     13358       116  OSM       H18U          -15.2659195005        9.2531780216       -2.1063129026  MEMB      116             0.0000000000
     13359       116  OSM       C1F           -18.9245205983        5.5169052970      -16.9561024745  MEMB      116             0.0000000000
     13360       116  OSM       OF            -17.7414808971        5.8166474278      -16.8635516044  MEMB      116             0.0000000000
     13361       116  OSM       C2F           -19.4850308363        4.1425040736      -16.8776319576  MEMB      116             0.0000000000
     13362       116  OSM       H2F           -19.4155649830        3.6670084656      -17.8790333341  MEMB      116             0.0000000000
     13363       116  OSM       H2G           -20.5690653125        4.2033199688      -16.6104209690  MEMB      116             0.0000000000
     13364       116  OSM       C3F           -18.6819975882        3.3174214521      -15.8752683465  MEMB      116             0.0000000000
     13365       116  OSM       H3F           -17.6311380833        3.2597209508      -16.2296353640  MEMB      116             0.0000000000
     13366       116  OSM       H3G           -19.0946927337        2.2819509931      -15.8703205464  MEMB      116             0.0000000000
     13367       116  OSM       C4F           -18.6335609230        3.9158102716      -14.4653933684  MEMB      116             0.0000000000
     13368       116  OSM       H4F           -18.4958623577        5.0118322023      -14.4216711798  MEMB      116             0.0000000000
     13369       116  OSM       H4G           -17.7972827115        3.4086976636      -13.9224173039  MEMB      116             0.0000000000
     13370       116  OSM       C5F           -19.8900317839        3.6022864131      -13.7127369642  MEMB      116             0.0000000000
     13371       116  OSM       H5F           -19.7935542261        2.5051636403      -13.8039246878  MEMB      116             0.0000000000
     13372       116  OSM       H5G           -20.8303765453        3.8794083986      -14.2323606720  MEMB      116             0.0000000000
     13373       116  OSM       C6F           -19.9140422001        4.2442974196      -12.3177001945  MEMB      116             0.0000000000
     13374       116  OSM       H6F           -19.7934511523        5.3396305481      -12.4390173402  MEMB      116             0.0000000000
     13375       116  OSM       H6G           -19.0608712672        3.9083339373      -11.6833347849  MEMB      116             0.0000000000
     13376       116  OSM       C7F           -21.2912656622        4.1410417378      -11.6607103064  MEMB      116             0.0000000000
     13377       116  OSM       H7F           -21.5255059340        3.1390115271      -11.4557048052  MEMB      116             0.0000000000
     13378       116  OSM       H7G           -22.1289936372        4.3299691724      -12.3473213100  MEMB      116             0.0000000000
     13379       116  OSM       C8F           -21.4152116825        4.7634375185      -10.2803084467  MEMB      116             0.0000000000
     13380       116  OSM       H8F           -21.4903592511        5.8501470491      -10.4834771324  MEMB      116             0.0000000000
     13381       116  OSM       H8G           -20.4741729573        4.5696126199       -9.7138417380  MEMB      116             0.0000000000
     13382       116  OSM       C9F           -22.6653606618        4.2539282662       -9.5814539661  MEMB      116             0.0000000000
     13383       116  OSM       H9F           -23.5933308452        4.5290370028      -10.0897601848  MEMB      116             0.0000000000
     13384       116  OSM       C10F          -22.8368741271        3.5287194761       -8.4770968498  MEMB      116             0.0000000000
     13385       116  OSM       H10F          -23.8590198776        3.3615361102       -8.1151067383  MEMB      116             0.0000000000
     13386       116  OSM       C11F          -21.7640279476        2.9970258245       -7.6049520807  MEMB      116             0.0000000000
     13387       116  OSM       H11F          -20.8247950293        3.1212704778       -8.1766306772  MEMB      116             0.0000000000
     13388       116  OSM       H11G          -22.0246397784        1.9241917114       -7.4320836787  MEMB      116             0.0000000000
     13389       116  OSM       C12F          -21.5524315323        3.6970564034       -6.2612014499  MEMB      116             0.0000000000
     13390       116  OSM       H12F          -22.5274787856        3.5744538461       -5.7352370036  MEMB      116             0.0000000000
     13391       116  OSM       H12G          -21.2990942389        4.7574049374       -6.4411638376  MEMB      116             0.0000000000
     13392       116  OSM       C13F          -20.5000733274        3.1417158442       -5.2896578074  MEMB      116             0.0000000000
     13393       116  OSM       H13F          -20.8704635016        2.1855812311       -5.0340439189  MEMB      116             0.0000000000
     13394       116  OSM       H13G          -20.6537079958        3.5050225452       -4.2607298135  MEMB      116             0.0000000000
     13395       116  OSM       C14F          -19.0094158985        3.2923782782       -5.6532083521  MEMB      116             0.0000000000
     13396       116  OSM       H14F          -18.9165465015        4.1623630650       -6.3403224972  MEMB      116             0.0000000000
     13397       116  OSM       H14G          -18.5268742151        2.4213998986       -6.1399973790  MEMB      116             0.0000000000
     13398       116  OSM       C15F          -18.1538105025        3.5347053245       -4.4181088712  MEMB      116             0.0000000000
     13399       116  OSM       H15F          -18.0400961941        2.5845951269       -3.8527661638  MEMB      116             0.0000000000
     13400       116  OSM       H15G          -18.7166762050        4.1919035232       -3.7459969631  MEMB      116             0.0000000000
     13401       116  OSM       C16F          -16.8054294473        4.1686491827       -4.7682374766  MEMB      116             0.0000000000
     13402       116  OSM       H16F          -16.9230384547        5.1585017565       -5.2610586156  MEMB      116             0.0000000000
     13403       116  OSM       H16G          -16.2271112241        3.4874417155       -5.4251969415  MEMB      116             0.0000000000
     13404       116  OSM       C17F          -15.9994934325        4.3865886670       -3.5287767202  MEMB      116             0.0000000000
     13405       116  OSM       H17F          -16.6186767345        4.9918989001       -2.8573653132  MEMB      116             0.0000000000
     13406       116  OSM       H17G          -15.0904975704        4.9848956279       -3.7138195928  MEMB      116             0.0000000000
     13407       116  OSM       C18F          -15.5720580675        3.0861348604       -2.9415521395  MEMB      116             0.0000000000
     13408       116  OSM       H18F          -16.3221822724        2.2904279676       -2.8406352305  MEMB      116             0.0000000000
     13409       116  OSM       H18G          -15.2892629697        3.2696397320       -1.8855246330  MEMB      116             0.0000000000
     13410       116  OSM       H18H          -14.7242942430        2.6991368761       -3.5651588371  MEMB      116             0.0000000000
     13411       117  CHL1      C3             -2.9007810673      -18.6231334194      -17.2959834204  MEMB      117             0.0000000000
     13412       117  CHL1      H3             -3.9754237049      -18.3868299041      -17.1487481546  MEMB      117             0.0000000000
     13413       117  CHL1      O3             -2.6769310534      -18.6478358644      -18.6952185194  MEMB      117             0.0000000000
     13414       117  CHL1      H3'            -3.1664219556      -19.4221945561      -19.0027387966  MEMB      117             0.0000000000
     13415       117  CHL1      C4             -2.1058893859      -17.4868712903      -16.6181511966  MEMB      117             0.0000000000
     13416       117  CHL1      H4A            -1.0496319511      -17.4463708216      -16.9744377764  MEMB      117             0.0000000000
     13417       117  CHL1      H4B            -2.5637384614      -16.5425866119      -16.9696795035  MEMB      117             0.0000000000
     13418       117  CHL1      C5             -2.1645857715      -17.5156778849      -15.1044974373  MEMB      117             0.0000000000
     13419       117  CHL1      C6             -2.3400324675      -16.4441475979      -14.3518653799  MEMB      117             0.0000000000
     13420       117  CHL1      H6             -2.5407937528      -15.4982796569      -14.8458958470  MEMB      117             0.0000000000
     13421       117  CHL1      C7             -2.2209592791      -16.4576977858      -12.8618004930  MEMB      117             0.0000000000
     13422       117  CHL1      H7A            -1.6423739714      -15.5980083723      -12.4678072912  MEMB      117             0.0000000000
     13423       117  CHL1      H7B            -3.2497519602      -16.4180994126      -12.4452157640  MEMB      117             0.0000000000
     13424       117  CHL1      C8             -1.5374968924      -17.6956496080      -12.2704243876  MEMB      117             0.0000000000
     13425       117  CHL1      H8             -0.4249046309      -17.6252759765      -12.3659252984  MEMB      117             0.0000000000
     13426       117  CHL1      C14            -1.8774177051      -17.6555022193      -10.8332206301  MEMB      117             0.0000000000
     13427       117  CHL1      H14            -2.9919586337      -17.7410562237      -10.7691083754  MEMB      117             0.0000000000
     13428       117  CHL1      C15            -1.5385246258      -16.3736789501      -10.0170633273  MEMB      117             0.0000000000
     13429       117  CHL1      H15A           -0.5225550123      -15.9633795500      -10.2179246417  MEMB      117             0.0000000000
     13430       117  CHL1      H15B           -2.3048724423      -15.5845353382      -10.0941746926  MEMB      117             0.0000000000
     13431       117  CHL1      C16            -1.5940329878      -16.8582767737       -8.6056322203  MEMB      117             0.0000000000
     13432       117  CHL1      H16A           -0.5973171759      -16.6738697355       -8.1844606881  MEMB      117             0.0000000000
     13433       117  CHL1      H16B           -2.2982861999      -16.4017977773       -7.8938040175  MEMB      117             0.0000000000
     13434       117  CHL1      C17            -1.8960031677      -18.3453640248       -8.7486334355  MEMB      117             0.0000000000
     13435       117  CHL1      H17            -2.9910760131      -18.5238736895       -8.6411933648  MEMB      117             0.0000000000
     13436       117  CHL1      C13            -1.4297159522      -18.8691474932      -10.1141068621  MEMB      117             0.0000000000
     13437       117  CHL1      C18             0.0789050492      -19.0428137578      -10.2027299366  MEMB      117             0.0000000000
     13438       117  CHL1      H18A            0.5309895217      -19.8589999647       -9.5979384433  MEMB      117             0.0000000000
     13439       117  CHL1      H18B            0.4954483188      -19.1776360768      -11.2048381325  MEMB      117             0.0000000000
     13440       117  CHL1      H18C            0.4501881147      -18.0808093909       -9.8651636636  MEMB      117             0.0000000000
     13441       117  CHL1      C12            -2.0800331192      -20.1052381862      -10.7222489105  MEMB      117             0.0000000000
     13442       117  CHL1      H12A           -1.7261246216      -21.0031859619      -10.2118451235  MEMB      117             0.0000000000
     13443       117  CHL1      H12B           -3.1736051856      -20.0014518852      -10.6582158465  MEMB      117             0.0000000000
     13444       117  CHL1      C11            -1.7194061471      -20.2786677955      -12.1704337507  MEMB      117             0.0000000000
     13445       117  CHL1      H11A           -0.6372268471      -20.5318960562      -12.1926677954  MEMB      117             0.0000000000
     13446       117  CHL1      H11B           -2.2317791256      -21.1672169849      -12.5891855196  MEMB      117             0.0000000000
     13447       117  CHL1      C9             -2.1404432298      -18.9526923715      -12.9023685369  MEMB      117             0.0000000000
     13448       117  CHL1      H9             -3.2286836380      -18.9028648232      -12.7264564372  MEMB      117             0.0000000000
     13449       117  CHL1      C10            -2.0733740651      -18.8501714530      -14.4424725985  MEMB      117             0.0000000000
     13450       117  CHL1      C19            -0.7035816714      -18.9711983657      -14.6489065152  MEMB      117             0.0000000000
     13451       117  CHL1      H19A           -0.3403228160      -19.1261351374      -15.6831232192  MEMB      117             0.0000000000
     13452       117  CHL1      H19B            0.0526769417      -18.3795354006      -14.0971265863  MEMB      117             0.0000000000
     13453       117  CHL1      H19C           -0.7244640567      -19.9771745892      -14.1731690433  MEMB      117             0.0000000000
     13454       117  CHL1      C1             -2.7740395820      -20.0189734808      -15.1808483059  MEMB      117             0.0000000000
     13455       117  CHL1      H1A            -2.4296170575      -21.0152775266      -14.8101806594  MEMB      117             0.0000000000
     13456       117  CHL1      H1B            -3.8279595404      -19.8630740681      -14.9052354688  MEMB      117             0.0000000000
     13457       117  CHL1      C2             -2.6104766716      -20.0150916538      -16.7172040903  MEMB      117             0.0000000000
     13458       117  CHL1      H2A            -3.3152551809      -20.7609543860      -17.1485531556  MEMB      117             0.0000000000
     13459       117  CHL1      H2B            -1.5839627750      -20.3401852970      -17.0182991431  MEMB      117             0.0000000000
     13460       117  CHL1      C20            -1.2128405144      -18.9302889031       -7.6359272476  MEMB      117             0.0000000000
     13461       117  CHL1      H20            -0.1831752459      -19.0990406663       -7.7977984199  MEMB      117             0.0000000000
     13462       117  CHL1      C21            -1.0450734435      -20.3871677644       -7.8371544244  MEMB      117             0.0000000000
     13463       117  CHL1      H21A           -0.8100069090      -20.8672937363       -6.8939721004  MEMB      117             0.0000000000
     13464       117  CHL1      H21B           -0.5872937284      -20.9809315291       -8.5906903307  MEMB      117             0.0000000000
     13465       117  CHL1      H21C           -2.0505086839      -20.4260950244       -8.2297662645  MEMB      117             0.0000000000
     13466       117  CHL1      C22            -1.5875070825      -18.5074867310       -6.1480411969  MEMB      117             0.0000000000
     13467       117  CHL1      H22A           -1.4030968523      -17.4213939271       -5.9401275519  MEMB      117             0.0000000000
     13468       117  CHL1      H22B           -2.5349081761      -18.0854164803       -5.8875737905  MEMB      117             0.0000000000
     13469       117  CHL1      C23            -1.0521099469      -19.8382572982       -5.0149576837  MEMB      117             0.0000000000
     13470       117  CHL1      H23A           -1.9686687975      -19.2436048329       -4.5330976100  MEMB      117             0.0000000000
     13471       117  CHL1      H23B           -1.2312495194      -20.7694502898       -4.8892285875  MEMB      117             0.0000000000
     13472       117  CHL1      C24             0.9656530969      -20.3172773345       -4.2334966701  MEMB      117             0.0000000000
     13473       117  CHL1      H24A            1.1634707271      -21.0454559706       -4.9313349367  MEMB      117             0.0000000000
     13474       117  CHL1      H24B            1.8782796370      -19.6088549256       -4.4204280561  MEMB      117             0.0000000000
     13475       117  CHL1      C25             1.8999091307      -19.8752556627       -2.6021666531  MEMB      117             0.0000000000
     13476       117  CHL1      H25             1.5230403310      -20.6970063969       -2.0086346644  MEMB      117             0.0000000000
     13477       117  CHL1      C26             3.1721584988      -20.0123516707       -2.6077441980  MEMB      117             0.0000000000
     13478       117  CHL1      H26A            3.3923575627      -19.0127454316       -3.1021093041  MEMB      117             0.0000000000
     13479       117  CHL1      H26B            3.5377272974      -20.2346365399       -1.5955458764  MEMB      117             0.0000000000
     13480       117  CHL1      H26C            3.1859081978      -20.8421202193       -3.3126835255  MEMB      117             0.0000000000
     13481       117  CHL1      C27             1.8165667688      -18.3469407666       -1.6323971745  MEMB      117             0.0000000000
     13482       117  CHL1      H27A            2.0017565842      -18.4889145831       -0.5752130755  MEMB      117             0.0000000000
     13483       117  CHL1      H27B            2.0112463744      -17.3468576193       -2.1074923135  MEMB      117             0.0000000000
     13484       117  CHL1      H27C            0.7728227275      -17.8907740697       -1.4665894727  MEMB      117             0.0000000000
     13485       118  CHL1      C3             18.2069991243        7.3834520532      -17.5063711407  MEMB      118             0.0000000000
     13486       118  CHL1      H3             18.7812661651        8.2586687644      -17.8320291390  MEMB      118             0.0000000000
     13487       118  CHL1      O3             18.0101143066        6.5684192926      -18.6488980935  MEMB      118             0.0000000000
     13488       118  CHL1      H3'            17.8323936792        7.1905271699      -19.3748194050  MEMB      118             0.0000000000
     13489       118  CHL1      C4             19.0233289133        6.8304425733      -16.3610011725  MEMB      118             0.0000000000
     13490       118  CHL1      H4A            18.4191152018        5.9485705360      -16.1624054249  MEMB      118             0.0000000000
     13491       118  CHL1      H4B            20.0245272656        6.7028326998      -16.7652452902  MEMB      118             0.0000000000
     13492       118  CHL1      C5             19.1436825204        7.3062897718      -14.9884531081  MEMB      118             0.0000000000
     13493       118  CHL1      C6             20.3097752300        7.5061893635      -14.4376800699  MEMB      118             0.0000000000
     13494       118  CHL1      H6             21.1322122307        7.2828569646      -15.0981480801  MEMB      118             0.0000000000
     13495       118  CHL1      C7             20.5576491504        8.0085140799      -13.0627277701  MEMB      118             0.0000000000
     13496       118  CHL1      H7A            21.2729766876        7.4252892573      -12.4680677120  MEMB      118             0.0000000000
     13497       118  CHL1      H7B            20.9729793694        9.0242938905      -13.1700937754  MEMB      118             0.0000000000
     13498       118  CHL1      C8             19.2342638100        7.9634984195      -12.3160917646  MEMB      118             0.0000000000
     13499       118  CHL1      H8             18.9633708707        6.9061368575      -12.1193017667  MEMB      118             0.0000000000
     13500       118  CHL1      C14            19.3934968952        8.7114950582      -11.0184855083  MEMB      118             0.0000000000
     13501       118  CHL1      H14            19.6137672284        9.7717616371      -11.3195752602  MEMB      118             0.0000000000
     13502       118  CHL1      C15            20.5393410855        8.3409719871      -10.0373574935  MEMB      118             0.0000000000
     13503       118  CHL1      H15A           20.7199913528        7.2512718682      -10.0145149303  MEMB      118             0.0000000000
     13504       118  CHL1      H15B           21.4520938776        8.9194828405      -10.2883490813  MEMB      118             0.0000000000
     13505       118  CHL1      C16            20.0450194291        8.7429161983       -8.6666294096  MEMB      118             0.0000000000
     13506       118  CHL1      H16A           19.8499993300        7.8761691129       -7.9925548499  MEMB      118             0.0000000000
     13507       118  CHL1      H16B           20.6955618938        9.4608175000       -8.1296992143  MEMB      118             0.0000000000
     13508       118  CHL1      C17            18.6661670160        9.3088277251       -8.9429053761  MEMB      118             0.0000000000
     13509       118  CHL1      H17            18.8027426605       10.3236515927       -9.3463510190  MEMB      118             0.0000000000
     13510       118  CHL1      C13            18.1122474106        8.7321551652      -10.2347066825  MEMB      118             0.0000000000
     13511       118  CHL1      C18            17.6238755584        7.3248623768       -9.8274452658  MEMB      118             0.0000000000
     13512       118  CHL1      H18A           18.1307627250        6.9714533077       -8.9085026225  MEMB      118             0.0000000000
     13513       118  CHL1      H18B           16.5350696678        7.3546279058       -9.6227217316  MEMB      118             0.0000000000
     13514       118  CHL1      H18C           17.7984927403        6.5869157998      -10.6030208467  MEMB      118             0.0000000000
     13515       118  CHL1      C12            17.1263807768        9.5607545020      -11.1250485944  MEMB      118             0.0000000000
     13516       118  CHL1      H12A           16.1430230667        9.7341996745      -10.6622676541  MEMB      118             0.0000000000
     13517       118  CHL1      H12B           17.5155055205       10.5676581209      -11.4015183132  MEMB      118             0.0000000000
     13518       118  CHL1      C11            16.8446112525        8.8209547894      -12.4271405170  MEMB      118             0.0000000000
     13519       118  CHL1      H11A           16.2960714162        7.8947453674      -12.1699064158  MEMB      118             0.0000000000
     13520       118  CHL1      H11B           16.1952322270        9.4475170217      -13.0629813512  MEMB      118             0.0000000000
     13521       118  CHL1      C9             18.1167589326        8.5129712029      -13.2102172490  MEMB      118             0.0000000000
     13522       118  CHL1      H9             18.5086978900        9.4878339269      -13.6131385310  MEMB      118             0.0000000000
     13523       118  CHL1      C10            17.8394676627        7.5980372076      -14.4176817643  MEMB      118             0.0000000000
     13524       118  CHL1      C19            17.2027210581        6.2190871509      -14.0441231863  MEMB      118             0.0000000000
     13525       118  CHL1      H19A           16.8802762163        5.6706387067      -14.9510853698  MEMB      118             0.0000000000
     13526       118  CHL1      H19B           17.8876095668        5.5341169265      -13.4975380368  MEMB      118             0.0000000000
     13527       118  CHL1      H19C           16.2948459420        6.3594231635      -13.4473947947  MEMB      118             0.0000000000
     13528       118  CHL1      C1             17.0832535304        8.3347063194      -15.5710863694  MEMB      118             0.0000000000
     13529       118  CHL1      H1A            16.1030131043        8.6362231765      -15.1934995239  MEMB      118             0.0000000000
     13530       118  CHL1      H1B            17.6707436955        9.2429208890      -15.8545131813  MEMB      118             0.0000000000
     13531       118  CHL1      C2             16.8626206812        7.5739026970      -16.8932800858  MEMB      118             0.0000000000
     13532       118  CHL1      H2A            16.2948621962        8.1417125961      -17.6468017059  MEMB      118             0.0000000000
     13533       118  CHL1      H2B            16.3532330227        6.5903850579      -16.7207107547  MEMB      118             0.0000000000
     13534       118  CHL1      C20            17.9039500023        9.1418513489       -7.6446002918  MEMB      118             0.0000000000
     13535       118  CHL1      H20            17.6988162585        8.1313666525       -7.2588961017  MEMB      118             0.0000000000
     13536       118  CHL1      C21            16.5664889928        9.4966054412       -8.1198575416  MEMB      118             0.0000000000
     13537       118  CHL1      H21A           16.0002031109        8.9716451203       -8.8722437543  MEMB      118             0.0000000000
     13538       118  CHL1      H21B           16.5873328010       10.4607680763       -8.6989974178  MEMB      118             0.0000000000
     13539       118  CHL1      H21C           15.8996958188        9.4685272512       -7.2392754544  MEMB      118             0.0000000000
     13540       118  CHL1      C22            18.5925717303        9.9053969450       -6.4566312608  MEMB      118             0.0000000000
     13541       118  CHL1      H22A           19.6856651545        9.9207688736       -6.4794017552  MEMB      118             0.0000000000
     13542       118  CHL1      H22B           18.4443577752       10.9649299547       -6.3767105057  MEMB      118             0.0000000000
     13543       118  CHL1      C23            18.0926609203        9.7908082548       -5.0803046048  MEMB      118             0.0000000000
     13544       118  CHL1      H23A           17.0270127126        9.4702129916       -5.1283318066  MEMB      118             0.0000000000
     13545       118  CHL1      H23B           18.5458648880        8.9236109671       -4.6093016511  MEMB      118             0.0000000000
     13546       118  CHL1      C24            18.4860025343       11.1633538370       -4.3803487399  MEMB      118             0.0000000000
     13547       118  CHL1      H24A           18.0379073006       12.1418651387       -4.2824448301  MEMB      118             0.0000000000
     13548       118  CHL1      H24B           17.6711688010       11.1587410677       -3.6562961994  MEMB      118             0.0000000000
     13549       118  CHL1      C25            20.0098862486       11.5310329465       -4.3145397495  MEMB      118             0.0000000000
     13550       118  CHL1      H25            20.2891311781       11.8616564588       -5.3329917561  MEMB      118             0.0000000000
     13551       118  CHL1      C26            20.3661156889       12.6765417519       -3.3128277695  MEMB      118             0.0000000000
     13552       118  CHL1      H26A           19.9314099844       12.6236287760       -2.2916070659  MEMB      118             0.0000000000
     13553       118  CHL1      H26B           21.4487719805       12.5875348213       -3.0997867303  MEMB      118             0.0000000000
     13554       118  CHL1      H26C           20.0972820168       13.6617929284       -3.7201332607  MEMB      118             0.0000000000
     13555       118  CHL1      C27            20.9377134945       10.3476887307       -3.9627286478  MEMB      118             0.0000000000
     13556       118  CHL1      H27A           20.6555863400        9.3283744396       -4.3106207849  MEMB      118             0.0000000000
     13557       118  CHL1      H27B           21.9956721260       10.5489341650       -3.7810683469  MEMB      118             0.0000000000
     13558       118  CHL1      H27C           20.8984052715       10.2936538087       -2.8944771103  MEMB      118             0.0000000000
     13559       119  SAPC      N              -9.2056173228      -16.2410465215      -21.8621435295  MEMB      119             0.0000000000
     13560       119  SAPC      C12           -10.3372338178      -17.2492682856      -21.7467008203  MEMB      119             0.0000000000
     13561       119  SAPC      H12A           -9.8985914158      -18.2379611928      -21.7647295650  MEMB      119             0.0000000000
     13562       119  SAPC      H12B          -10.9786937990      -17.1632233126      -22.6185257388  MEMB      119             0.0000000000
     13563       119  SAPC      C13            -8.1954107680      -16.4222307273      -20.7539513309  MEMB      119             0.0000000000
     13564       119  SAPC      H13A           -8.6840768165      -16.4142661111      -19.7749004196  MEMB      119             0.0000000000
     13565       119  SAPC      H13B           -7.7360725532      -17.4094261644      -20.8009849141  MEMB      119             0.0000000000
     13566       119  SAPC      H13C           -7.4006656395      -15.6942979323      -20.7617015394  MEMB      119             0.0000000000
     13567       119  SAPC      C14            -8.5400992120      -16.4222475855      -23.1896222785  MEMB      119             0.0000000000
     13568       119  SAPC      H14A           -7.8703562348      -17.2758579461      -23.2009106838  MEMB      119             0.0000000000
     13569       119  SAPC      H14B           -9.2835253846      -16.6288145165      -23.9533258516  MEMB      119             0.0000000000
     13570       119  SAPC      H14C           -8.0489407439      -15.5249259024      -23.5228591447  MEMB      119             0.0000000000
     13571       119  SAPC      C15            -9.8165601541      -14.8865201053      -21.8268213660  MEMB      119             0.0000000000
     13572       119  SAPC      H15A          -10.5808972066      -14.7941439654      -22.5932422276  MEMB      119             0.0000000000
     13573       119  SAPC      H15B          -10.2800793217      -14.7559344405      -20.8512511349  MEMB      119             0.0000000000
     13574       119  SAPC      H15C           -9.0585240308      -14.1579992916      -22.0275070498  MEMB      119             0.0000000000
     13575       119  SAPC      C11           -11.3115178022      -17.1613337214      -20.5530510009  MEMB      119             0.0000000000
     13576       119  SAPC      H11A          -12.0608275650      -17.9742163585      -20.7181356506  MEMB      119             0.0000000000
     13577       119  SAPC      H11B          -11.8590526429      -16.1915609334      -20.5547831980  MEMB      119             0.0000000000
     13578       119  SAPC      P             -11.6368021835      -17.4601485913      -18.0620531797  MEMB      119             0.0000000000
     13579       119  SAPC      O13           -12.6551430075      -16.3951904317      -18.2145821270  MEMB      119             0.0000000000
     13580       119  SAPC      O14           -12.0590932540      -18.8717515616      -17.9495987988  MEMB      119             0.0000000000
     13581       119  SAPC      O12           -10.6462123005      -17.3546235475      -19.3133661526  MEMB      119             0.0000000000
     13582       119  SAPC      O11           -10.6285037703      -17.0513405964      -16.9526137406  MEMB      119             0.0000000000
     13583       119  SAPC      C1             -9.8257041581      -15.8884037369      -17.0169483079  MEMB      119             0.0000000000
     13584       119  SAPC      HA             -9.1009585508      -15.9382688275      -17.8593756288  MEMB      119             0.0000000000
     13585       119  SAPC      HB            -10.5000134518      -15.0240272352      -17.1945324844  MEMB      119             0.0000000000
     13586       119  SAPC      C2             -8.9343325607      -15.6953023221      -15.7380382940  MEMB      119             0.0000000000
     13587       119  SAPC      HS             -8.1106704371      -15.0203340903      -16.0252448889  MEMB      119             0.0000000000
     13588       119  SAPC      O21            -8.3547793844      -16.9477476089      -15.2902767382  MEMB      119             0.0000000000
     13589       119  SAPC      C21            -7.3278756876      -16.8673787259      -14.4207539615  MEMB      119             0.0000000000
     13590       119  SAPC      O22            -6.7725501324      -15.8517395866      -14.0737297122  MEMB      119             0.0000000000
     13591       119  SAPC      C22            -7.0163019729      -18.2008992349      -13.8195344642  MEMB      119             0.0000000000
     13592       119  SAPC      H2R            -6.8961135137      -19.0189713612      -14.5729190157  MEMB      119             0.0000000000
     13593       119  SAPC      H2S            -6.2660395727      -18.2227627847      -13.0174056694  MEMB      119             0.0000000000
     13594       119  SAPC      C3             -9.7609409937      -15.0276599665      -14.5896948078  MEMB      119             0.0000000000
     13595       119  SAPC      HX            -10.1211736910      -14.0361608665      -14.9375308044  MEMB      119             0.0000000000
     13596       119  SAPC      HY             -9.0832965707      -14.8490942066      -13.7335093940  MEMB      119             0.0000000000
     13597       119  SAPC      O31           -10.8393293425      -15.8441832616      -14.1595070599  MEMB      119             0.0000000000
     13598       119  SAPC      C31           -12.0915360261      -15.4248982410      -14.4494819269  MEMB      119             0.0000000000
     13599       119  SAPC      O32           -12.4088634723      -14.2960536069      -14.7293852940  MEMB      119             0.0000000000
     13600       119  SAPC      C32           -13.0762875161      -16.4606426046      -14.2819219539  MEMB      119             0.0000000000
     13601       119  SAPC      H2X           -13.4258985283      -16.9061177018      -15.2572078819  MEMB      119             0.0000000000
     13602       119  SAPC      H2Y           -13.9927712992      -16.1418966531      -13.7203353712  MEMB      119             0.0000000000
     13603       119  SAPC      C23            -8.1825022189      -18.5022938286      -12.9869963286  MEMB      119             0.0000000000
     13604       119  SAPC      H3R            -8.0460841752      -19.6000996160      -12.8314040545  MEMB      119             0.0000000000
     13605       119  SAPC      H3S            -9.0952906400      -18.2035773439      -13.5928469935  MEMB      119             0.0000000000
     13606       119  SAPC      C24            -8.7081814182      -17.7270618742      -11.9172983244  MEMB      119             0.0000000000
     13607       119  SAPC      H4R            -9.6928641175      -18.1111995354      -11.6369667211  MEMB      119             0.0000000000
     13608       119  SAPC      H4S            -9.0810787743      -16.7510828228      -12.2905154634  MEMB      119             0.0000000000
     13609       119  SAPC      C25            -7.8583896981      -17.9862836651      -10.7574721897  MEMB      119             0.0000000000
     13610       119  SAPC      H5R            -7.8064472622      -19.0247678989      -10.3834350892  MEMB      119             0.0000000000
     13611       119  SAPC      C26            -7.6641374932      -16.9750316622       -9.9843512940  MEMB      119             0.0000000000
     13612       119  SAPC      H6R            -7.4205091734      -17.2410031606       -8.9534000028  MEMB      119             0.0000000000
     13613       119  SAPC      C27            -8.2879720905      -15.6607134870      -10.3888187659  MEMB      119             0.0000000000
     13614       119  SAPC      H7R            -9.4048462191      -15.6087725170      -10.4153402791  MEMB      119             0.0000000000
     13615       119  SAPC      H7S            -7.9583877620      -15.4325187820      -11.4316157746  MEMB      119             0.0000000000
     13616       119  SAPC      C28            -7.7045431687      -14.6316964025       -9.5226611942  MEMB      119             0.0000000000
     13617       119  SAPC      H8R            -6.8029722131      -14.1878775941       -9.9432886260  MEMB      119             0.0000000000
     13618       119  SAPC      C29            -8.2199052845      -14.1293452085       -8.4035259330  MEMB      119             0.0000000000
     13619       119  SAPC      H9R            -7.6393483576      -13.3818518458       -7.8804930063  MEMB      119             0.0000000000
     13620       119  SAPC      C210           -9.4874674885      -14.4069881382       -7.6854815523  MEMB      119             0.0000000000
     13621       119  SAPC      H10R           -9.4157073501      -13.8931835370       -6.7047817182  MEMB      119             0.0000000000
     13622       119  SAPC      H10S           -9.5427367888      -15.4944788872       -7.4831078948  MEMB      119             0.0000000000
     13623       119  SAPC      C211          -10.6336817943      -13.7662307669       -8.4372179314  MEMB      119             0.0000000000
     13624       119  SAPC      H11R          -10.6199743466      -12.6780585821       -8.4559258396  MEMB      119             0.0000000000
     13625       119  SAPC      C212          -11.6900219204      -14.3135859232       -9.0285066534  MEMB      119             0.0000000000
     13626       119  SAPC      H12R          -12.3873441482      -13.7047461266       -9.6058079270  MEMB      119             0.0000000000
     13627       119  SAPC      C213          -12.0079665210      -15.7353377084       -9.0923054660  MEMB      119             0.0000000000
     13628       119  SAPC      H13R          -11.1155775241      -16.3072029056       -8.8043716966  MEMB      119             0.0000000000
     13629       119  SAPC      H13S          -12.2565302539      -15.9868557663      -10.1516995139  MEMB      119             0.0000000000
     13630       119  SAPC      C214          -13.1910075196      -15.9881176819       -8.2070804643  MEMB      119             0.0000000000
     13631       119  SAPC      H14R          -14.0308586364      -16.2847529541       -8.7776395521  MEMB      119             0.0000000000
     13632       119  SAPC      C215          -13.4981220147      -15.8846002861       -6.9206017469  MEMB      119             0.0000000000
     13633       119  SAPC      H15R          -14.4352640411      -16.3071913480       -6.5409709649  MEMB      119             0.0000000000
     13634       119  SAPC      C216          -12.6545535317      -15.4286560455       -5.8451818006  MEMB      119             0.0000000000
     13635       119  SAPC      H16R          -11.6262143286      -15.4073884438       -6.2380215768  MEMB      119             0.0000000000
     13636       119  SAPC      H16S          -12.7659008974      -16.1635166259       -5.0375180621  MEMB      119             0.0000000000
     13637       119  SAPC      C217          -13.1277595864      -14.0716417559       -5.3713145283  MEMB      119             0.0000000000
     13638       119  SAPC      H17R          -14.1589231573      -14.0915647139       -4.9582762573  MEMB      119             0.0000000000
     13639       119  SAPC      H17S          -13.1783367088      -13.3709455067       -6.2410857299  MEMB      119             0.0000000000
     13640       119  SAPC      C218          -12.1749395092      -13.5332796993       -4.3059613022  MEMB      119             0.0000000000
     13641       119  SAPC      H18R          -12.4253226801      -12.4678347362       -4.2866693094  MEMB      119             0.0000000000
     13642       119  SAPC      H18S          -11.1127926776      -13.6211833273       -4.6225309017  MEMB      119             0.0000000000
     13643       119  SAPC      C219          -12.3283821905      -14.1027047703       -2.8828305902  MEMB      119             0.0000000000
     13644       119  SAPC      H19R          -11.8521695118      -13.3761346746       -2.1814265528  MEMB      119             0.0000000000
     13645       119  SAPC      H19S          -11.7355794049      -15.0417046270       -2.8074297466  MEMB      119             0.0000000000
     13646       119  SAPC      C220          -13.7698170969      -14.3801810262       -2.4319890385  MEMB      119             0.0000000000
     13647       119  SAPC      H20R          -14.1612682365      -15.3004445458       -2.9186914719  MEMB      119             0.0000000000
     13648       119  SAPC      H20S          -14.4422145876      -13.5334179840       -2.6902396401  MEMB      119             0.0000000000
     13649       119  SAPC      H20T          -13.8119089478      -14.5299457780       -1.3351381303  MEMB      119             0.0000000000
     13650       119  SAPC      C33           -12.3270970736      -17.4579183347      -13.5454259980  MEMB      119             0.0000000000
     13651       119  SAPC      H3X           -11.9452037902      -17.3668985746      -12.5014240053  MEMB      119             0.0000000000
     13652       119  SAPC      H3Y           -11.6084836639      -18.0256752005      -14.2322526400  MEMB      119             0.0000000000
     13653       119  SAPC      C34           -13.5023569121      -18.1570740171      -13.4845889379  MEMB      119             0.0000000000
     13654       119  SAPC      H4X           -12.8006290687      -19.0679732365      -13.4051833564  MEMB      119             0.0000000000
     13655       119  SAPC      H4Y           -13.7080481714      -18.6954460619      -14.4375114531  MEMB      119             0.0000000000
     13656       119  SAPC      C35           -14.8014158229      -17.9174294255      -12.2215397756  MEMB      119             0.0000000000
     13657       119  SAPC      H5X           -15.5686305126      -17.2256419420      -12.2306798084  MEMB      119             0.0000000000
     13658       119  SAPC      H5Y           -13.9355114444      -17.3334256308      -11.8413221392  MEMB      119             0.0000000000
     13659       119  SAPC      C36           -15.6595897573      -19.3346042361      -11.1042490834  MEMB      119             0.0000000000
     13660       119  SAPC      H6X           -16.2496216448      -19.9864073243      -11.5628835855  MEMB      119             0.0000000000
     13661       119  SAPC      H6Y           -16.3736865211      -18.6760354189      -10.8636676351  MEMB      119             0.0000000000
     13662       119  SAPC      C37           -14.8547258614      -20.7594193097      -10.1370900393  MEMB      119             0.0000000000
     13663       119  SAPC      H7X           -14.2328645466      -21.5376275803      -10.6962978153  MEMB      119             0.0000000000
     13664       119  SAPC      H7Y           -15.2879401554      -21.4665922745       -9.6874927849  MEMB      119             0.0000000000
     13665       119  SAPC      C38           -13.8989464106      -20.7553686125       -8.8466132130  MEMB      119             0.0000000000
     13666       119  SAPC      H8X           -14.4209952991      -20.9384748124       -7.9356119610  MEMB      119             0.0000000000
     13667       119  SAPC      H8Y           -13.6526576744      -19.8223953933       -8.3711212978  MEMB      119             0.0000000000
     13668       119  SAPC      C39           -12.5171927772      -21.0106046460       -8.9675850382  MEMB      119             0.0000000000
     13669       119  SAPC      H9X           -12.1491363296      -20.9904867449       -9.9437213031  MEMB      119             0.0000000000
     13670       119  SAPC      H9Y           -12.3956727867      -22.0789192884       -8.7717069908  MEMB      119             0.0000000000
     13671       119  SAPC      C310          -11.7323860147      -20.1459679948       -7.9661240050  MEMB      119             0.0000000000
     13672       119  SAPC      H10X          -11.1961847210      -20.8071181184       -7.3083672066  MEMB      119             0.0000000000
     13673       119  SAPC      H10Y          -12.4338858269      -20.4770216406       -7.3014049362  MEMB      119             0.0000000000
     13674       119  SAPC      C311          -11.1155512640      -18.6551633161       -8.1018118793  MEMB      119             0.0000000000
     13675       119  SAPC      H11X          -11.9695261991      -18.0634315543       -7.8572736862  MEMB      119             0.0000000000
     13676       119  SAPC      H11Y          -11.0545892872      -18.1745191919       -9.1470264169  MEMB      119             0.0000000000
     13677       119  SAPC      C312           -9.8986265037      -18.3376446718       -7.1074514035  MEMB      119             0.0000000000
     13678       119  SAPC      H12X           -9.2224217302      -17.5293336412       -7.3547372214  MEMB      119             0.0000000000
     13679       119  SAPC      H12Y           -9.1435926311      -19.1028045779       -6.8380243771  MEMB      119             0.0000000000
     13680       119  SAPC      C313          -10.4735183709      -18.3231184769       -5.7300573707  MEMB      119             0.0000000000
     13681       119  SAPC      H13X          -10.6130110499      -19.4407328810       -5.5786738693  MEMB      119             0.0000000000
     13682       119  SAPC      H13Y          -11.3808124006      -17.7351393933       -5.9020445392  MEMB      119             0.0000000000
     13683       119  SAPC      C314          -10.0176645105      -17.7157165801       -4.3907742047  MEMB      119             0.0000000000
     13684       119  SAPC      H14X           -9.7160856646      -18.5493472596       -3.8422339862  MEMB      119             0.0000000000
     13685       119  SAPC      H14Y          -10.7591232101      -17.6129399824       -3.5790115752  MEMB      119             0.0000000000
     13686       119  SAPC      C315           -9.2311849635      -16.4498840828       -4.4060790624  MEMB      119             0.0000000000
     13687       119  SAPC      H15X          -10.0374853019      -15.7419642611       -4.6961474678  MEMB      119             0.0000000000
     13688       119  SAPC      H15Y           -8.4757240102      -16.5947557432       -5.2076264904  MEMB      119             0.0000000000
     13689       119  SAPC      C316           -8.6110229320      -16.0426722424       -3.0561639999  MEMB      119             0.0000000000
     13690       119  SAPC      H16X           -8.3575575288      -16.9141467131       -2.4492369022  MEMB      119             0.0000000000
     13691       119  SAPC      H16Y           -9.3255266264      -15.5722578931       -2.3577228175  MEMB      119             0.0000000000
     13692       119  SAPC      C317           -7.3453694475      -15.1931671120       -3.1825865942  MEMB      119             0.0000000000
     13693       119  SAPC      H17X           -7.6573985976      -14.1858949244       -3.5367172941  MEMB      119             0.0000000000
     13694       119  SAPC      H17Y           -6.6425662145      -15.5910700235       -3.9483505162  MEMB      119             0.0000000000
     13695       119  SAPC      C318           -6.6083533470      -15.1461275689       -1.8446917282  MEMB      119             0.0000000000
     13696       119  SAPC      H18X           -7.3005565337      -14.8312024173       -1.0331753262  MEMB      119             0.0000000000
     13697       119  SAPC      H18Y           -5.7464645630      -14.4484478071       -1.8892346684  MEMB      119             0.0000000000
     13698       119  SAPC      H18Z           -6.2236331731      -16.1466067196       -1.5574308065  MEMB      119             0.0000000000
     13699       120  CHL1      C3             -7.1664678352       19.2205191013      -17.3387026872  MEMB      120             0.0000000000
     13700       120  CHL1      H3             -6.4861159858       20.0961245124      -17.2044914310  MEMB      120             0.0000000000
     13701       120  CHL1      O3             -7.4017098643       19.0399323432      -18.7173101874  MEMB      120             0.0000000000
     13702       120  CHL1      H3'            -6.5354932589       18.8931298447      -19.1192033777  MEMB      120             0.0000000000
     13703       120  CHL1      C4             -6.4901991211       17.9412437549      -16.8516886063  MEMB      120             0.0000000000
     13704       120  CHL1      H4A            -7.1004934331       17.0785128613      -17.1968216067  MEMB      120             0.0000000000
     13705       120  CHL1      H4B            -5.5084752150       17.8758859362      -17.3746271292  MEMB      120             0.0000000000
     13706       120  CHL1      C5             -6.3162586907       17.8949363288      -15.3546052803  MEMB      120             0.0000000000
     13707       120  CHL1      C6             -5.0867222182       17.7114935480      -14.8482036266  MEMB      120             0.0000000000
     13708       120  CHL1      H6             -4.2223724513       17.5467508568      -15.5103392433  MEMB      120             0.0000000000
     13709       120  CHL1      C7             -4.7809362372       17.6671733383      -13.3888722523  MEMB      120             0.0000000000
     13710       120  CHL1      H7A            -4.1083809606       16.8050530927      -13.1891162981  MEMB      120             0.0000000000
     13711       120  CHL1      H7B            -4.1983713074       18.5775902213      -13.1308685758  MEMB      120             0.0000000000
     13712       120  CHL1      C8             -6.0712361154       17.6208608928      -12.5149408675  MEMB      120             0.0000000000
     13713       120  CHL1      H8             -6.5384938502       16.6275424545      -12.5266541846  MEMB      120             0.0000000000
     13714       120  CHL1      C14            -5.7594978663       18.0202165016      -11.0890988112  MEMB      120             0.0000000000
     13715       120  CHL1      H14            -5.3968080814       19.0652784869      -11.1645900714  MEMB      120             0.0000000000
     13716       120  CHL1      C15            -4.5879589353       17.3989306859      -10.3541802849  MEMB      120             0.0000000000
     13717       120  CHL1      H15A           -5.0845576269       16.5128431620      -10.1220780603  MEMB      120             0.0000000000
     13718       120  CHL1      H15B           -3.6216856618       17.1584529103      -10.8261287199  MEMB      120             0.0000000000
     13719       120  CHL1      C16            -4.7225321990       17.7725305354       -8.9078138443  MEMB      120             0.0000000000
     13720       120  CHL1      H16A           -4.6697409306       16.9086135039       -8.2026771520  MEMB      120             0.0000000000
     13721       120  CHL1      H16B           -3.9270258854       18.4751673663       -8.6586624710  MEMB      120             0.0000000000
     13722       120  CHL1      C17            -6.1399377917       18.3949418356       -8.8102774835  MEMB      120             0.0000000000
     13723       120  CHL1      H17            -5.9661811193       19.4770790286       -8.9651991006  MEMB      120             0.0000000000
     13724       120  CHL1      C13            -6.9358271819       18.0119810879      -10.0846455646  MEMB      120             0.0000000000
     13725       120  CHL1      C18            -7.6422233799       16.6437275160       -9.8264797902  MEMB      120             0.0000000000
     13726       120  CHL1      H18A           -6.9225667171       15.9205691889       -9.4363200093  MEMB      120             0.0000000000
     13727       120  CHL1      H18B           -8.3810853050       16.6775563227       -9.0028920070  MEMB      120             0.0000000000
     13728       120  CHL1      H18C           -8.1422444708       16.2452257052      -10.7329731390  MEMB      120             0.0000000000
     13729       120  CHL1      C12            -7.9325270385       19.0428253284      -10.6272616497  MEMB      120             0.0000000000
     13730       120  CHL1      H12A           -8.8541813064       19.0135453002      -10.0131827772  MEMB      120             0.0000000000
     13731       120  CHL1      H12B           -7.4881474400       20.0618920232      -10.6367998520  MEMB      120             0.0000000000
     13732       120  CHL1      C11            -8.3327049131       18.7344478374      -12.0748714869  MEMB      120             0.0000000000
     13733       120  CHL1      H11A           -8.9386413848       17.8108857255      -12.0094252786  MEMB      120             0.0000000000
     13734       120  CHL1      H11B           -8.9768327729       19.5586650360      -12.4453194890  MEMB      120             0.0000000000
     13735       120  CHL1      C9             -7.1341459249       18.5739641161      -13.0482172546  MEMB      120             0.0000000000
     13736       120  CHL1      H9             -6.6219337436       19.5688380503      -13.0593888147  MEMB      120             0.0000000000
     13737       120  CHL1      C10            -7.5645031963       18.2387821754      -14.4990987183  MEMB      120             0.0000000000
     13738       120  CHL1      C19            -8.5556064509       17.0299620715      -14.4636155456  MEMB      120             0.0000000000
     13739       120  CHL1      H19A           -8.0834006846       16.1396269017      -14.0005778613  MEMB      120             0.0000000000
     13740       120  CHL1      H19B           -9.4725990596       17.2567697377      -13.8849095531  MEMB      120             0.0000000000
     13741       120  CHL1      H19C           -8.9220960308       16.7619056529      -15.4706815705  MEMB      120             0.0000000000
     13742       120  CHL1      C1             -8.2732265772       19.4912767153      -15.0993265326  MEMB      120             0.0000000000
     13743       120  CHL1      H1A            -9.2637485205       19.6399770314      -14.6156509257  MEMB      120             0.0000000000
     13744       120  CHL1      H1B            -7.6348481600       20.3812161191      -14.8983511244  MEMB      120             0.0000000000
     13745       120  CHL1      C2             -8.4975398851       19.4360511621      -16.6127435784  MEMB      120             0.0000000000
     13746       120  CHL1      H2A            -9.0227267021       20.3514481199      -16.9611032109  MEMB      120             0.0000000000
     13747       120  CHL1      H2B            -9.1622209022       18.5716626786      -16.8195295928  MEMB      120             0.0000000000
     13748       120  CHL1      C20            -6.6907429730       18.1879441588       -7.4037814770  MEMB      120             0.0000000000
     13749       120  CHL1      H20            -6.9384996455       17.1127748110       -7.2278503105  MEMB      120             0.0000000000
     13750       120  CHL1      C21            -7.9430568429       19.0501625858       -7.1910393021  MEMB      120             0.0000000000
     13751       120  CHL1      H21A           -8.2192480844       19.0342359977       -6.1157475115  MEMB      120             0.0000000000
     13752       120  CHL1      H21B           -8.7810300083       18.6520030073       -7.7923093307  MEMB      120             0.0000000000
     13753       120  CHL1      H21C           -7.7513360306       20.1111358272       -7.4591902639  MEMB      120             0.0000000000
     13754       120  CHL1      C22            -5.6560736135       18.5866522577       -6.3277694300  MEMB      120             0.0000000000
     13755       120  CHL1      H22A           -4.6495379932       18.8251983330       -6.7205904544  MEMB      120             0.0000000000
     13756       120  CHL1      H22B           -6.0285632810       19.5334983128       -5.8778008839  MEMB      120             0.0000000000
     13757       120  CHL1      C23            -5.5364437587       17.5987600486       -5.1669597375  MEMB      120             0.0000000000
     13758       120  CHL1      H23A           -6.5781761718       17.3944606125       -4.8332947512  MEMB      120             0.0000000000
     13759       120  CHL1      H23B           -5.0640038692       16.6313167304       -5.4553546024  MEMB      120             0.0000000000
     13760       120  CHL1      C24            -4.7285569028       18.2935789651       -4.0675552937  MEMB      120             0.0000000000
     13761       120  CHL1      H24A           -3.6803124404       18.4288993091       -4.4201110571  MEMB      120             0.0000000000
     13762       120  CHL1      H24B           -5.1760962378       19.2957819628       -3.8990275287  MEMB      120             0.0000000000
     13763       120  CHL1      C25            -4.7042971991       17.5904999326       -2.7185965192  MEMB      120             0.0000000000
     13764       120  CHL1      H25            -4.4963145173       16.5222421168       -2.9180651867  MEMB      120             0.0000000000
     13765       120  CHL1      C26            -3.6679586113       18.2151437434       -1.7996297108  MEMB      120             0.0000000000
     13766       120  CHL1      H26A           -3.5169026335       17.5716193981       -0.8992403708  MEMB      120             0.0000000000
     13767       120  CHL1      H26B           -2.6794334435       18.3679589530       -2.2842216684  MEMB      120             0.0000000000
     13768       120  CHL1      H26C           -4.0341007442       19.1980014039       -1.4266461886  MEMB      120             0.0000000000
     13769       120  CHL1      C27            -6.0312386611       17.6487485774       -1.9876797428  MEMB      120             0.0000000000
     13770       120  CHL1      H27A           -6.8117173085       17.1553880905       -2.5978519756  MEMB      120             0.0000000000
     13771       120  CHL1      H27B           -5.9215471791       17.1178853984       -1.0159362427  MEMB      120             0.0000000000
     13772       120  CHL1      H27C           -6.2921292916       18.7130549872       -1.8050166487  MEMB      120             0.0000000000
     13773       121  SAPC      N              18.6757554434       -1.2848237792      -19.6423645086  MEMB      121             0.0000000000
     13774       121  SAPC      C12            19.7882216847       -1.1707784748      -18.5828159769  MEMB      121             0.0000000000
     13775       121  SAPC      H12A           20.2144522068       -2.1490898248      -18.4361609118  MEMB      121             0.0000000000
     13776       121  SAPC      H12B           19.3610175017       -0.8316112668      -17.6555598064  MEMB      121             0.0000000000
     13777       121  SAPC      C13            18.1112512450        0.0872858852      -19.9633094781  MEMB      121             0.0000000000
     13778       121  SAPC      H13A           18.8911588757        0.7994930904      -20.2332431354  MEMB      121             0.0000000000
     13779       121  SAPC      H13B           17.4131269784        0.0731504242      -20.7963362668  MEMB      121             0.0000000000
     13780       121  SAPC      H13C           17.5550920578        0.5155628379      -19.1308480747  MEMB      121             0.0000000000
     13781       121  SAPC      C14            19.1572455992       -1.9146136594      -20.9304241190  MEMB      121             0.0000000000
     13782       121  SAPC      H14A           18.3466700721       -2.1189695054      -21.6039557115  MEMB      121             0.0000000000
     13783       121  SAPC      H14B           19.8536226466       -1.2311301481      -21.4296314525  MEMB      121             0.0000000000
     13784       121  SAPC      H14C           19.7316151077       -2.8150087543      -20.7865022231  MEMB      121             0.0000000000
     13785       121  SAPC      C15            17.5872566794       -2.1473657505      -19.0956791138  MEMB      121             0.0000000000
     13786       121  SAPC      H15A           16.7444501342       -2.1633803468      -19.7762813121  MEMB      121             0.0000000000
     13787       121  SAPC      H15B           17.9200280814       -3.1633921145      -18.9718291893  MEMB      121             0.0000000000
     13788       121  SAPC      H15C           17.2198068192       -1.7980645183      -18.1377851680  MEMB      121             0.0000000000
     13789       121  SAPC      C11            21.0320236085       -0.3236331509      -18.8181510053  MEMB      121             0.0000000000
     13790       121  SAPC      H11A           21.8579913681       -0.6768053400      -18.1453271902  MEMB      121             0.0000000000
     13791       121  SAPC      H11B           20.8524170712        0.7607103480      -18.5712321276  MEMB      121             0.0000000000
     13792       121  SAPC      P              22.6905743080        0.0814625114      -20.5978032949  MEMB      121             0.0000000000
     13793       121  SAPC      O13            23.7920770383       -0.0775539594      -19.6266484333  MEMB      121             0.0000000000
     13794       121  SAPC      O14            22.9993017649        0.0334835433      -22.0483251046  MEMB      121             0.0000000000
     13795       121  SAPC      O12            21.3955423586       -0.5996405415      -20.1626355491  MEMB      121             0.0000000000
     13796       121  SAPC      O11            22.0605819787        1.5219464350      -20.2246440250  MEMB      121             0.0000000000
     13797       121  SAPC      C1             23.0463411167        2.4967241179      -20.2444549700  MEMB      121             0.0000000000
     13798       121  SAPC      HA             24.0476848211        2.0694207612      -20.5093961326  MEMB      121             0.0000000000
     13799       121  SAPC      HB             22.7790914826        2.8053573574      -21.2603022280  MEMB      121             0.0000000000
     13800       121  SAPC      C2             23.3062199886        3.6410982285      -19.0631022217  MEMB      121             0.0000000000
     13801       121  SAPC      HS             24.3207797361        4.1034484961      -19.0946995047  MEMB      121             0.0000000000
     13802       121  SAPC      O21            23.1591217833        3.1090889137      -17.7781282703  MEMB      121             0.0000000000
     13803       121  SAPC      C21            24.1796885635        2.3584397779      -17.3792951920  MEMB      121             0.0000000000
     13804       121  SAPC      O22            25.1954346067        2.0923621008      -17.9798916756  MEMB      121             0.0000000000
     13805       121  SAPC      C22            23.7544578956        1.9486073985      -15.9913228889  MEMB      121             0.0000000000
     13806       121  SAPC      H2R            23.4241661759        2.8842423880      -15.4852904068  MEMB      121             0.0000000000
     13807       121  SAPC      H2S            22.8689008697        1.3160203174      -16.1570178281  MEMB      121             0.0000000000
     13808       121  SAPC      C3             22.4167219755        4.9810198933      -19.1505178862  MEMB      121             0.0000000000
     13809       121  SAPC      HX             22.2112719430        5.4725396465      -20.0937465517  MEMB      121             0.0000000000
     13810       121  SAPC      HY             22.8526232390        5.9204272899      -18.7796111136  MEMB      121             0.0000000000
     13811       121  SAPC      O31            21.0978818688        4.7503239505      -18.8796884628  MEMB      121             0.0000000000
     13812       121  SAPC      C31            20.9346339311        4.7583144033      -17.6276787869  MEMB      121             0.0000000000
     13813       121  SAPC      O32            21.6968759608        5.1175349122      -16.7557959561  MEMB      121             0.0000000000
     13814       121  SAPC      C32            19.6006750787        4.2191106527      -17.4017786813  MEMB      121             0.0000000000
     13815       121  SAPC      H2X            19.2477337582        3.5508756788      -18.1846458465  MEMB      121             0.0000000000
     13816       121  SAPC      H2Y            18.8974411380        4.9452266235      -17.6640517933  MEMB      121             0.0000000000
     13817       121  SAPC      C23            24.8293174708        1.2107166688      -15.1715564170  MEMB      121             0.0000000000
     13818       121  SAPC      H3R            25.8018334798        1.7389098998      -15.3403675927  MEMB      121             0.0000000000
     13819       121  SAPC      H3S            24.9572325220        0.1783440173      -15.5471007575  MEMB      121             0.0000000000
     13820       121  SAPC      C24            24.4903362334        1.1496082427      -13.6746717095  MEMB      121             0.0000000000
     13821       121  SAPC      H4R            25.2232892223        0.5523927660      -13.1067843687  MEMB      121             0.0000000000
     13822       121  SAPC      H4S            23.4553806702        0.7984522105      -13.5039934338  MEMB      121             0.0000000000
     13823       121  SAPC      C25            24.6297791392        2.5540364774      -13.2909613049  MEMB      121             0.0000000000
     13824       121  SAPC      H5R            23.7175835386        3.1227919893      -13.4669602627  MEMB      121             0.0000000000
     13825       121  SAPC      C26            25.6605749746        3.0789219892      -12.6508176917  MEMB      121             0.0000000000
     13826       121  SAPC      H6R            25.7643108484        4.1404733904      -12.8006629399  MEMB      121             0.0000000000
     13827       121  SAPC      C27            26.9327103363        2.5422072431      -12.1041153321  MEMB      121             0.0000000000
     13828       121  SAPC      H7R            27.6759038116        3.3783729939      -12.0578580463  MEMB      121             0.0000000000
     13829       121  SAPC      H7S            27.2976416125        1.8826173996      -12.9029906137  MEMB      121             0.0000000000
     13830       121  SAPC      C28            26.8510826847        1.7101633903      -10.8246287303  MEMB      121             0.0000000000
     13831       121  SAPC      H8R            26.9587634274        0.6881906267      -11.0291446445  MEMB      121             0.0000000000
     13832       121  SAPC      C29            26.5029123393        1.8956487328       -9.5369261419  MEMB      121             0.0000000000
     13833       121  SAPC      H9R            26.7477743094        1.2377386960       -8.7018738832  MEMB      121             0.0000000000
     13834       121  SAPC      C210           26.0722633513        3.1105246996       -8.9682825982  MEMB      121             0.0000000000
     13835       121  SAPC      H10R           25.9895221937        3.6571028043       -9.8701775865  MEMB      121             0.0000000000
     13836       121  SAPC      H10S           26.9738748465        3.3253377368       -8.4139794113  MEMB      121             0.0000000000
     13837       121  SAPC      C211           24.9018156498        3.6886499918       -8.3305285711  MEMB      121             0.0000000000
     13838       121  SAPC      H11R           24.4755022291        4.5471601863       -8.8418829142  MEMB      121             0.0000000000
     13839       121  SAPC      C212           24.7038357233        3.6227266680       -7.0647759327  MEMB      121             0.0000000000
     13840       121  SAPC      H12R           23.8004039953        4.1384711535       -6.6873991269  MEMB      121             0.0000000000
     13841       121  SAPC      C213           25.6661000594        2.9302618390       -6.1634068782  MEMB      121             0.0000000000
     13842       121  SAPC      H13R           26.7424415330        2.7464650416       -6.4286528483  MEMB      121             0.0000000000
     13843       121  SAPC      H13S           25.2057224034        2.0240134306       -5.7554285060  MEMB      121             0.0000000000
     13844       121  SAPC      C214           25.5528937770        4.0684473075       -5.2820330597  MEMB      121             0.0000000000
     13845       121  SAPC      H14R           26.1556638126        4.9988405451       -5.5039196591  MEMB      121             0.0000000000
     13846       121  SAPC      C215           25.2632314650        3.8217062270       -4.0547608146  MEMB      121             0.0000000000
     13847       121  SAPC      H15R           25.7250960606        4.7230600798       -3.6206202730  MEMB      121             0.0000000000
     13848       121  SAPC      C216           24.9941075445        2.5039872561       -3.2193839886  MEMB      121             0.0000000000
     13849       121  SAPC      H16R           25.9872045357        1.9806322085       -3.0320124953  MEMB      121             0.0000000000
     13850       121  SAPC      H16S           24.5714455076        1.6706459169       -3.7905205066  MEMB      121             0.0000000000
     13851       121  SAPC      C217           24.1004652276        2.7481343936       -1.8727875274  MEMB      121             0.0000000000
     13852       121  SAPC      H17R           23.1044998570        3.0807610406       -2.1042701954  MEMB      121             0.0000000000
     13853       121  SAPC      H17S           24.3678241661        3.6590004210       -1.2741498272  MEMB      121             0.0000000000
     13854       121  SAPC      C218           24.1151260632        1.7075047080       -0.6997884021  MEMB      121             0.0000000000
     13855       121  SAPC      H18R           25.1216714346        1.5155486775       -0.4000401385  MEMB      121             0.0000000000
     13856       121  SAPC      H18S           23.9467572959        0.6939304267       -1.0537233601  MEMB      121             0.0000000000
     13857       121  SAPC      C219           23.6370040027        2.1502719495        0.7097124909  MEMB      121             0.0000000000
     13858       121  SAPC      H19R           24.2547113884        2.9582575697        1.2092279951  MEMB      121             0.0000000000
     13859       121  SAPC      H19S           23.6570597153        1.2915189437        1.4356423365  MEMB      121             0.0000000000
     13860       121  SAPC      C220           22.2548246616        2.5632750633        0.5959387759  MEMB      121             0.0000000000
     13861       121  SAPC      H20R           21.8967828399        2.7784249464        1.6144420042  MEMB      121             0.0000000000
     13862       121  SAPC      H20S           21.7663415628        1.6782040371        0.1272575156  MEMB      121             0.0000000000
     13863       121  SAPC      H20T           22.2251852730        3.4558154378       -0.0579666926  MEMB      121             0.0000000000
     13864       121  SAPC      C33            19.4459967102        3.9683548822      -15.9115772664  MEMB      121             0.0000000000
     13865       121  SAPC      H3X            18.3593388277        3.9323845652      -15.6873374052  MEMB      121             0.0000000000
     13866       121  SAPC      H3Y            19.8975461147        4.7313744499      -15.2196123946  MEMB      121             0.0000000000
     13867       121  SAPC      C34            20.1338016617        2.7120259630      -15.7472979112  MEMB      121             0.0000000000
     13868       121  SAPC      H4X            21.2201737659        2.9249283668      -15.9105240238  MEMB      121             0.0000000000
     13869       121  SAPC      H4Y            19.7018621195        2.0980091261      -16.5729328727  MEMB      121             0.0000000000
     13870       121  SAPC      C35            19.9278788434        2.1566960411      -14.3896361511  MEMB      121             0.0000000000
     13871       121  SAPC      H5X            18.8595393985        2.1676583515      -14.0805115617  MEMB      121             0.0000000000
     13872       121  SAPC      H5Y            20.4988938222        2.8176454564      -13.6937781597  MEMB      121             0.0000000000
     13873       121  SAPC      C36            20.4760174580        0.7562362977      -14.4952654736  MEMB      121             0.0000000000
     13874       121  SAPC      H6X            21.4974081609        0.8314307924      -14.9160101676  MEMB      121             0.0000000000
     13875       121  SAPC      H6Y            19.8590291774        0.1548041352      -15.1972848402  MEMB      121             0.0000000000
     13876       121  SAPC      C37            20.5596331279        0.0794431186      -13.1574681211  MEMB      121             0.0000000000
     13877       121  SAPC      H7X            19.5387686646        0.0555270124      -12.7193880966  MEMB      121             0.0000000000
     13878       121  SAPC      H7Y            21.2314832093        0.7181084615      -12.5370597641  MEMB      121             0.0000000000
     13879       121  SAPC      C38            21.0822419162       -1.3525885817      -13.2658124084  MEMB      121             0.0000000000
     13880       121  SAPC      H8X            22.0394525245       -1.3407527505      -13.8363177814  MEMB      121             0.0000000000
     13881       121  SAPC      H8Y            20.3476937034       -1.9406569869      -13.8615052478  MEMB      121             0.0000000000
     13882       121  SAPC      C39            21.2971600924       -2.0057463954      -11.8843590270  MEMB      121             0.0000000000
     13883       121  SAPC      H9X            21.9067299422       -2.9208533068      -12.0277119867  MEMB      121             0.0000000000
     13884       121  SAPC      H9Y            20.3199754817       -2.3240430034      -11.4652543715  MEMB      121             0.0000000000
     13885       121  SAPC      C310           21.9107708659       -1.0331883861      -10.8597440394  MEMB      121             0.0000000000
     13886       121  SAPC      H10X           21.1804263063       -0.2242492227      -10.6507848619  MEMB      121             0.0000000000
     13887       121  SAPC      H10Y           22.7720096763       -0.5075461343      -11.3293910029  MEMB      121             0.0000000000
     13888       121  SAPC      C311           22.2645318819       -1.5751322649       -9.4556482275  MEMB      121             0.0000000000
     13889       121  SAPC      H11X           22.9753633245       -2.4253817047       -9.4340661500  MEMB      121             0.0000000000
     13890       121  SAPC      H11Y           21.3944692478       -2.0742606313       -9.0118375606  MEMB      121             0.0000000000
     13891       121  SAPC      C312           22.7739583512       -0.3811175800       -8.6156381596  MEMB      121             0.0000000000
     13892       121  SAPC      H12X           21.9617881394        0.3678840809       -8.5763427935  MEMB      121             0.0000000000
     13893       121  SAPC      H12Y           23.6421302446        0.1337671333       -9.1059254021  MEMB      121             0.0000000000
     13894       121  SAPC      C313           23.2129412715       -0.7523943485       -7.2030788499  MEMB      121             0.0000000000
     13895       121  SAPC      H13X           24.1173796347       -0.1501171257       -6.9582816551  MEMB      121             0.0000000000
     13896       121  SAPC      H13Y           23.4636637870       -1.8408806602       -7.2269101089  MEMB      121             0.0000000000
     13897       121  SAPC      C314           22.2556534066       -0.4734328238       -6.0440241108  MEMB      121             0.0000000000
     13898       121  SAPC      H14X           22.6444815590       -1.0201718558       -5.1512774459  MEMB      121             0.0000000000
     13899       121  SAPC      H14Y           21.2592083688       -0.8824599086       -6.2919998959  MEMB      121             0.0000000000
     13900       121  SAPC      C315           22.1152242951        0.9972326459       -5.6213527633  MEMB      121             0.0000000000
     13901       121  SAPC      H15X           21.5969096323        1.5598614774       -6.4266587246  MEMB      121             0.0000000000
     13902       121  SAPC      H15Y           23.1138215677        1.4708128985       -5.4828337159  MEMB      121             0.0000000000
     13903       121  SAPC      C316           21.3501227180        1.0767867334       -4.2846822737  MEMB      121             0.0000000000
     13904       121  SAPC      H16X           21.9813515232        0.5710555409       -3.5202619256  MEMB      121             0.0000000000
     13905       121  SAPC      H16Y           20.3887871763        0.5210067465       -4.3512574922  MEMB      121             0.0000000000
     13906       121  SAPC      C317           21.0495727092        2.5082384445       -3.8237416400  MEMB      121             0.0000000000
     13907       121  SAPC      H17X           20.5028552360        2.9961434305       -4.6575609973  MEMB      121             0.0000000000
     13908       121  SAPC      H17Y           22.0164881770        3.0424649943       -3.7191893039  MEMB      121             0.0000000000
     13909       121  SAPC      C318           20.2387079190        2.6152397020       -2.5179970629  MEMB      121             0.0000000000
     13910       121  SAPC      H18X           19.1637478124        2.3953916999       -2.6922799818  MEMB      121             0.0000000000
     13911       121  SAPC      H18Y           20.2985037189        3.6300985898       -2.0687487358  MEMB      121             0.0000000000
     13912       121  SAPC      H18Z           20.6275206308        1.9007327254       -1.7632243411  MEMB      121             0.0000000000
     13913       122  SOPE      N               7.5438465566      -20.1090719723      -22.4959520493  MEMB      122             0.0000000000
     13914       122  SOPE      HN1             8.3343625536      -20.6961508649      -22.8697828321  MEMB      122             0.0000000000
     13915       122  SOPE      HN2             6.6820211119      -20.2270555005      -23.0621783640  MEMB      122             0.0000000000
     13916       122  SOPE      HN3             7.8002954934      -19.1114489706      -22.3743388830  MEMB      122             0.0000000000
     13917       122  SOPE      C12             7.1842688186      -20.5785804736      -21.1397675047  MEMB      122             0.0000000000
     13918       122  SOPE      H12A            6.8560781685      -19.7177013446      -20.5277459533  MEMB      122             0.0000000000
     13919       122  SOPE      H12B            8.1373485843      -20.9375687017      -20.7073010657  MEMB      122             0.0000000000
     13920       122  SOPE      C11             6.0876636826      -21.6515742337      -21.2369993926  MEMB      122             0.0000000000
     13921       122  SOPE      H11A            6.0012692819      -22.1234395845      -20.2715712721  MEMB      122             0.0000000000
     13922       122  SOPE      H11B            6.4063158789      -22.4939228201      -21.8961856149  MEMB      122             0.0000000000
     13923       122  SOPE      P               3.8672650468      -20.1628749672      -20.7580563362  MEMB      122             0.0000000000
     13924       122  SOPE      O13             2.5784826935      -20.1294793111      -21.4592672832  MEMB      122             0.0000000000
     13925       122  SOPE      O14             4.6950352692      -18.9374639908      -20.6269143305  MEMB      122             0.0000000000
     13926       122  SOPE      O12             4.8008798565      -21.1606090477      -21.6151909439  MEMB      122             0.0000000000
     13927       122  SOPE      O11             3.6608645872      -20.8487853160      -19.4107251646  MEMB      122             0.0000000000
     13928       122  SOPE      C1              3.0596810933      -22.1146906875      -19.2176170479  MEMB      122             0.0000000000
     13929       122  SOPE      HA              3.6594869273      -22.9087763801      -19.7595990537  MEMB      122             0.0000000000
     13930       122  SOPE      HB              2.0308966818      -22.1614563140      -19.5639337048  MEMB      122             0.0000000000
     13931       122  SOPE      C2              3.0792301233      -22.4039256363      -17.6918545864  MEMB      122             0.0000000000
     13932       122  SOPE      HS              2.4188609200      -23.2987898340      -17.4979289626  MEMB      122             0.0000000000
     13933       122  SOPE      O21             2.8689315430      -21.4806201027      -16.7263617733  MEMB      122             0.0000000000
     13934       122  SOPE      C21             1.8557788555      -20.8546157458      -16.8598119549  MEMB      122             0.0000000000
     13935       122  SOPE      O22             0.8205213322      -21.1257243884      -17.4409725776  MEMB      122             0.0000000000
     13936       122  SOPE      C22             2.0405375461      -19.9681643806      -15.7095396536  MEMB      122             0.0000000000
     13937       122  SOPE      H2R             1.6252458846      -18.9999692384      -16.0630189082  MEMB      122             0.0000000000
     13938       122  SOPE      H2S             3.0186686344      -19.7716332011      -15.3467586104  MEMB      122             0.0000000000
     13939       122  SOPE      C3              4.3719242560      -22.7327976011      -17.3910343946  MEMB      122             0.0000000000
     13940       122  SOPE      HX              4.2738940717      -23.4759543766      -18.1377614648  MEMB      122             0.0000000000
     13941       122  SOPE      HY              4.4831465524      -23.1830839953      -16.3319284427  MEMB      122             0.0000000000
     13942       122  SOPE      O31             5.3156493219      -21.7698578695      -18.0395657764  MEMB      122             0.0000000000
     13943       122  SOPE      C31             6.5580000896      -22.5233348571      -18.1076759137  MEMB      122             0.0000000000
     13944       122  SOPE      O32             6.2801332966      -23.4917883246      -17.5358092440  MEMB      122             0.0000000000
     13945       122  SOPE      C32             8.4248109145      -22.1066410899      -18.1292391881  MEMB      122             0.0000000000
     13946       122  SOPE      H2X             7.9776955057      -21.3506232530      -18.8637511605  MEMB      122             0.0000000000
     13947       122  SOPE      H2Y             8.9950232263      -22.2423651654      -19.0052882343  MEMB      122             0.0000000000
     13948       122  SOPE      C23             1.2635348610      -20.6743401378      -14.6273908469  MEMB      122             0.0000000000
     13949       122  SOPE      H3R             0.3224342229      -20.9965196228      -15.1800274337  MEMB      122             0.0000000000
     13950       122  SOPE      H3S             1.2533104285      -19.8962456156      -13.8163414890  MEMB      122             0.0000000000
     13951       122  SOPE      C24             1.2923010469      -21.8759986453      -13.7789131810  MEMB      122             0.0000000000
     13952       122  SOPE      H4R             0.2585453936      -22.0796544778      -13.3551790936  MEMB      122             0.0000000000
     13953       122  SOPE      H4S             1.5187196333      -22.6730162511      -14.4939810789  MEMB      122             0.0000000000
     13954       122  SOPE      C25             2.2371087223      -21.5663742287      -12.6649800030  MEMB      122             0.0000000000
     13955       122  SOPE      H5R             3.0959927838      -21.0309282215      -13.1350694146  MEMB      122             0.0000000000
     13956       122  SOPE      H5S             1.8387758878      -20.8568624055      -11.8951842203  MEMB      122             0.0000000000
     13957       122  SOPE      C26             2.6230455899      -22.9008567966      -12.1017166850  MEMB      122             0.0000000000
     13958       122  SOPE      H6R             1.7171675382      -23.4035595967      -11.6953276567  MEMB      122             0.0000000000
     13959       122  SOPE      H6S             2.9989772540      -23.5140152461      -12.9526642608  MEMB      122             0.0000000000
     13960       122  SOPE      C27             3.7037701059      -22.6882462945      -11.0641061221  MEMB      122             0.0000000000
     13961       122  SOPE      H7R             4.5579242806      -22.2168914689      -11.6046223074  MEMB      122             0.0000000000
     13962       122  SOPE      H7S             3.3238808687      -21.9614782319      -10.3132052613  MEMB      122             0.0000000000
     13963       122  SOPE      C28             4.1317011342      -23.9373594024      -10.2943845487  MEMB      122             0.0000000000
     13964       122  SOPE      H8R             4.6123361223      -24.6519858961      -11.0005006819  MEMB      122             0.0000000000
     13965       122  SOPE      H8S             4.9027999980      -23.6012818402       -9.5670324458  MEMB      122             0.0000000000
     13966       122  SOPE      C29             2.9600392997      -24.5744836218       -9.5850055772  MEMB      122             0.0000000000
     13967       122  SOPE      H91             2.1953032922      -25.0082531414      -10.2473978338  MEMB      122             0.0000000000
     13968       122  SOPE      C210            2.6884585366      -24.5692606306       -8.2702379843  MEMB      122             0.0000000000
     13969       122  SOPE      H101            1.7957806789      -25.1229345964       -7.9404325645  MEMB      122             0.0000000000
     13970       122  SOPE      C211            3.4740779406      -23.9296653936       -7.1564412047  MEMB      122             0.0000000000
     13971       122  SOPE      H11R            4.4125941585      -23.4351928801       -7.4934047058  MEMB      122             0.0000000000
     13972       122  SOPE      H11S            3.7760240555      -24.7161923911       -6.4291580601  MEMB      122             0.0000000000
     13973       122  SOPE      C212            2.6252644802      -22.9298374882       -6.3717202373  MEMB      122             0.0000000000
     13974       122  SOPE      H12R            1.7370349219      -23.4644329393       -5.9521541172  MEMB      122             0.0000000000
     13975       122  SOPE      H12S            2.2065586906      -22.0896593455       -6.9731019216  MEMB      122             0.0000000000
     13976       122  SOPE      C213            3.4218861208      -22.3602214616       -5.1932652119  MEMB      122             0.0000000000
     13977       122  SOPE      H13R            3.8803652257      -23.1217893193       -4.5438182395  MEMB      122             0.0000000000
     13978       122  SOPE      H13S            2.5940087122      -22.0375584621       -4.5765518041  MEMB      122             0.0000000000
     13979       122  SOPE      C214            4.4515927995      -21.2578109420       -5.5658352362  MEMB      122             0.0000000000
     13980       122  SOPE      H14R            3.9280873123      -20.5008427628       -6.1999395686  MEMB      122             0.0000000000
     13981       122  SOPE      H14S            5.2948175324      -21.7166327646       -6.0954889732  MEMB      122             0.0000000000
     13982       122  SOPE      C215            5.2412073675      -20.5667590856       -4.4342626982  MEMB      122             0.0000000000
     13983       122  SOPE      H15R            5.4039069953      -21.1541954977       -3.5048397129  MEMB      122             0.0000000000
     13984       122  SOPE      H15S            4.4684401453      -19.8717938186       -4.2838658373  MEMB      122             0.0000000000
     13985       122  SOPE      C216            5.8793265812      -19.1785844543       -4.5663792930  MEMB      122             0.0000000000
     13986       122  SOPE      H16R            5.2758718301      -18.4712216240       -5.2025871978  MEMB      122             0.0000000000
     13987       122  SOPE      H16S            6.7701297238      -19.4833144979       -5.1283499651  MEMB      122             0.0000000000
     13988       122  SOPE      C217            6.2247219158      -18.4413152233       -3.2251085073  MEMB      122             0.0000000000
     13989       122  SOPE      H17R            6.6929366426      -17.4932851379       -3.5531256585  MEMB      122             0.0000000000
     13990       122  SOPE      H17S            6.9509884896      -19.1100502421       -2.7211843539  MEMB      122             0.0000000000
     13991       122  SOPE      C218            5.2570429533      -17.9572847513       -2.1190838726  MEMB      122             0.0000000000
     13992       122  SOPE      H18R            4.9883985588      -18.7948423230       -1.4387627719  MEMB      122             0.0000000000
     13993       122  SOPE      H18S            4.3378011555      -17.4940253393       -2.5317681646  MEMB      122             0.0000000000
     13994       122  SOPE      H18T            5.7126760957      -17.1790305450       -1.4821926111  MEMB      122             0.0000000000
     13995       122  SOPE      C33             9.3375071749      -21.4030675911      -16.2264871343  MEMB      122             0.0000000000
     13996       122  SOPE      H3X             9.9113936486      -21.5647116546      -17.0228175288  MEMB      122             0.0000000000
     13997       122  SOPE      H3Y            10.3377629714      -21.1059622796      -15.9118620103  MEMB      122             0.0000000000
     13998       122  SOPE      C34             8.0205193939      -20.1743980490      -14.8916094021  MEMB      122             0.0000000000
     13999       122  SOPE      H4X             8.8562067697      -19.8686987276      -15.3225777570  MEMB      122             0.0000000000
     14000       122  SOPE      H4Y             7.0013901982      -20.5043004251      -14.7889960331  MEMB      122             0.0000000000
     14001       122  SOPE      C35             6.3015626195      -18.9535393490      -15.4906078380  MEMB      122             0.0000000000
     14002       122  SOPE      H5X             5.7182894878      -18.7883442798      -16.4557354149  MEMB      122             0.0000000000
     14003       122  SOPE      H5Y             6.9845668525      -18.4329952942      -16.1018164488  MEMB      122             0.0000000000
     14004       122  SOPE      C36             5.7118299711      -17.4796592119      -15.2339451515  MEMB      122             0.0000000000
     14005       122  SOPE      H6X             5.5971431240      -16.8501211536      -16.1111619658  MEMB      122             0.0000000000
     14006       122  SOPE      H6Y             6.1151794815      -16.4417635498      -14.8937982920  MEMB      122             0.0000000000
     14007       122  SOPE      C37             5.0198823892      -18.2963345364      -14.2143201332  MEMB      122             0.0000000000
     14008       122  SOPE      H7X             5.5500732362      -19.1534035306      -13.6630641683  MEMB      122             0.0000000000
     14009       122  SOPE      H7Y             4.4203215791      -18.9725966969      -14.7821583862  MEMB      122             0.0000000000
     14010       122  SOPE      C38             4.7085542338      -17.3868416800      -13.1570570839  MEMB      122             0.0000000000
     14011       122  SOPE      H8X             4.3253344777      -16.5136887339      -13.7031170280  MEMB      122             0.0000000000
     14012       122  SOPE      H8Y             5.5493279900      -16.9164753934      -12.6065718846  MEMB      122             0.0000000000
     14013       122  SOPE      C39             3.8136613515      -18.1113484946      -12.2375679416  MEMB      122             0.0000000000
     14014       122  SOPE      H9X             4.2681250034      -19.0054667695      -11.7402692100  MEMB      122             0.0000000000
     14015       122  SOPE      H9Y             2.9944876136      -18.4945022723      -12.8898391363  MEMB      122             0.0000000000
     14016       122  SOPE      C310            3.5160289136      -17.0130907980      -11.2512872506  MEMB      122             0.0000000000
     14017       122  SOPE      H10X            2.9428690622      -16.2350355854      -11.8055279692  MEMB      122             0.0000000000
     14018       122  SOPE      H10Y            4.4669731920      -16.5551682453      -10.9004575521  MEMB      122             0.0000000000
     14019       122  SOPE      C311            2.7317755841      -17.5242433537      -10.0863672677  MEMB      122             0.0000000000
     14020       122  SOPE      H11X            2.2578122499      -18.3989159886      -10.5527166050  MEMB      122             0.0000000000
     14021       122  SOPE      H11Y            1.9818219662      -16.7454084868       -9.8224943127  MEMB      122             0.0000000000
     14022       122  SOPE      C312            3.5473779892      -17.9847827714       -8.8746629630  MEMB      122             0.0000000000
     14023       122  SOPE      H12X            4.1863505642      -17.1199226463       -8.6143063256  MEMB      122             0.0000000000
     14024       122  SOPE      H12Y            4.1408247978      -18.8872306506       -9.1260797672  MEMB      122             0.0000000000
     14025       122  SOPE      C313            2.7971211846      -18.2959933181       -7.5955494905  MEMB      122             0.0000000000
     14026       122  SOPE      H13X            3.3569272873      -18.0131969497       -6.6828012646  MEMB      122             0.0000000000
     14027       122  SOPE      H13Y            2.5499584354      -19.3898740742       -7.5319357904  MEMB      122             0.0000000000
     14028       122  SOPE      C314            1.5789168217      -17.4446566671       -7.4899975346  MEMB      122             0.0000000000
     14029       122  SOPE      H14X            0.9456233684      -17.9508532381       -8.1505492344  MEMB      122             0.0000000000
     14030       122  SOPE      H14Y            1.4649641416      -16.4423268546       -7.8964271980  MEMB      122             0.0000000000
     14031       122  SOPE      C315            1.0825696820      -17.1985233123       -6.1200622027  MEMB      122             0.0000000000
     14032       122  SOPE      H15X            0.2043273631      -16.5699868167       -6.1024805654  MEMB      122             0.0000000000
     14033       122  SOPE      H15Y            1.7833976476      -17.0613012511       -5.3034946301  MEMB      122             0.0000000000
     14034       122  SOPE      C316            0.7193013809      -18.2789305463       -5.4475173996  MEMB      122             0.0000000000
     14035       122  SOPE      H16X            1.1511446895      -19.1885458376       -6.1049716113  MEMB      122             0.0000000000
     14036       122  SOPE      H16Y            0.5176049892      -19.2417158212       -6.1246884647  MEMB      122             0.0000000000
     14037       122  SOPE      C317           -0.1764634646      -18.1214957252       -3.6737109035  MEMB      122             0.0000000000
     14038       122  SOPE      H17X           -1.1967805234      -18.7202829531       -3.2063754977  MEMB      122             0.0000000000
     14039       122  SOPE      H17Y           -0.8146654114      -17.3130963224       -3.6663422298  MEMB      122             0.0000000000
     14040       122  SOPE      C318           -0.5858103999      -19.3341563636       -2.5274702750  MEMB      122             0.0000000000
     14041       122  SOPE      H18X           -0.1905317427      -19.5559469422       -1.5327084699  MEMB      122             0.0000000000
     14042       122  SOPE      H18Y            0.3428374134      -18.6809213610       -3.0292945616  MEMB      122             0.0000000000
     14043       122  SOPE      H18Z           -0.4760411449      -20.5029344943       -2.7776564277  MEMB      122             0.0000000000
     14044       123  SOPE      N              14.4737308639       16.6488009752      -23.5439631880  MEMB      123             0.0000000000
     14045       123  SOPE      HN1            15.2905601429       17.2907705590      -23.5074907981  MEMB      123             0.0000000000
     14046       123  SOPE      HN2            14.5114082068       16.0427996202      -24.3947914264  MEMB      123             0.0000000000
     14047       123  SOPE      HN3            13.6138167676       17.2292536958      -23.5258528400  MEMB      123             0.0000000000
     14048       123  SOPE      C12            14.5560350160       15.8083385751      -22.3020768234  MEMB      123             0.0000000000
     14049       123  SOPE      H12A           15.4554849265       15.1733345721      -22.4160809228  MEMB      123             0.0000000000
     14050       123  SOPE      H12B           13.6872018708       15.1244337850      -22.2642439832  MEMB      123             0.0000000000
     14051       123  SOPE      C11            14.7194035130       16.6956470473      -21.0490372682  MEMB      123             0.0000000000
     14052       123  SOPE      H11A           14.5484427691       16.0483657930      -20.1546020200  MEMB      123             0.0000000000
     14053       123  SOPE      H11B           13.9494499993       17.4965612256      -20.9754796041  MEMB      123             0.0000000000
     14054       123  SOPE      P              17.2188431461       16.5573135504      -20.2857832553  MEMB      123             0.0000000000
     14055       123  SOPE      O13            18.4446463847       17.2461533189      -20.6905561993  MEMB      123             0.0000000000
     14056       123  SOPE      O14            17.0825057330       15.1299250629      -20.6568942226  MEMB      123             0.0000000000
     14057       123  SOPE      O12            16.0187905719       17.3064644859      -21.0362588495  MEMB      123             0.0000000000
     14058       123  SOPE      O11            16.9240293044       16.8296832739      -18.7470096180  MEMB      123             0.0000000000
     14059       123  SOPE      C1             16.8648913915       18.2031049959      -18.3255274219  MEMB      123             0.0000000000
     14060       123  SOPE      HA             15.9704340783       18.6723385964      -18.7959372250  MEMB      123             0.0000000000
     14061       123  SOPE      HB             17.7602771609       18.7845993726      -18.6609403976  MEMB      123             0.0000000000
     14062       123  SOPE      C2             16.7842720659       18.3650813422      -16.7729796818  MEMB      123             0.0000000000
     14063       123  SOPE      HS             17.2512411559       19.3427080837      -16.4913002527  MEMB      123             0.0000000000
     14064       123  SOPE      O21            17.4461294919       17.2664614026      -16.0937687584  MEMB      123             0.0000000000
     14065       123  SOPE      C21            17.5855872038       17.2455088331      -14.7741696168  MEMB      123             0.0000000000
     14066       123  SOPE      O22            17.3001140058       18.1507276006      -14.0118348008  MEMB      123             0.0000000000
     14067       123  SOPE      C22            18.2095676864       15.9043165669      -14.3537485716  MEMB      123             0.0000000000
     14068       123  SOPE      H2R            19.1246630653       15.7373526894      -14.9610756713  MEMB      123             0.0000000000
     14069       123  SOPE      H2S            17.4939159107       15.0815267384      -14.5522417816  MEMB      123             0.0000000000
     14070       123  SOPE      C3             15.2995395699       18.4568691225      -16.3689814362  MEMB      123             0.0000000000
     14071       123  SOPE      HX             14.8477302098       19.3756772977      -16.8258887059  MEMB      123             0.0000000000
     14072       123  SOPE      HY             15.3372677496       18.5138781297      -15.2687915623  MEMB      123             0.0000000000
     14073       123  SOPE      O31            14.6021910059       17.2680994466      -16.6851237973  MEMB      123             0.0000000000
     14074       123  SOPE      C31            13.3827360631       17.2517507455      -17.1135901673  MEMB      123             0.0000000000
     14075       123  SOPE      O32            12.5927628951       18.1483293261      -17.2861453355  MEMB      123             0.0000000000
     14076       123  SOPE      C32            12.9766471784       15.8504294830      -17.3863041048  MEMB      123             0.0000000000
     14077       123  SOPE      H2X            13.2888286721       15.6013557839      -18.4063056667  MEMB      123             0.0000000000
     14078       123  SOPE      H2Y            11.8917061365       15.9721893713      -17.4236908867  MEMB      123             0.0000000000
     14079       123  SOPE      C23            18.5803969957       15.8895459637      -12.8580106165  MEMB      123             0.0000000000
     14080       123  SOPE      H3R            17.6949109848       15.7900208787      -12.2007086644  MEMB      123             0.0000000000
     14081       123  SOPE      H3S            19.0858896636       16.8562244404      -12.6306984492  MEMB      123             0.0000000000
     14082       123  SOPE      C24            19.6068821727       14.8250818767      -12.5067839039  MEMB      123             0.0000000000
     14083       123  SOPE      H4R            19.3520703403       13.7841587214      -12.7906956190  MEMB      123             0.0000000000
     14084       123  SOPE      H4S            20.4037765122       15.1210775025      -13.1985515082  MEMB      123             0.0000000000
     14085       123  SOPE      C25            19.8670569137       14.7927099273      -10.9912292941  MEMB      123             0.0000000000
     14086       123  SOPE      H5R            20.1763855338       15.7317567440      -10.5272790002  MEMB      123             0.0000000000
     14087       123  SOPE      H5S            18.8692155861       14.5657937398      -10.5831564277  MEMB      123             0.0000000000
     14088       123  SOPE      C26            20.7995366534       13.6806561231      -10.5349147180  MEMB      123             0.0000000000
     14089       123  SOPE      H6R            20.4412314550       12.7100985348      -10.9098542814  MEMB      123             0.0000000000
     14090       123  SOPE      H6S            21.6393138143       13.7844379228      -11.1802721899  MEMB      123             0.0000000000
     14091       123  SOPE      C27            21.1896976791       13.5828201101       -9.0355773968  MEMB      123             0.0000000000
     14092       123  SOPE      H7R            21.7615740014       12.6228234748       -8.9667131809  MEMB      123             0.0000000000
     14093       123  SOPE      H7S            21.8557223577       14.3475455462       -8.6110667457  MEMB      123             0.0000000000
     14094       123  SOPE      C28            20.0324715219       13.6873563571       -8.0922987841  MEMB      123             0.0000000000
     14095       123  SOPE      H8R            20.2319124338       13.7935148739       -7.0111055636  MEMB      123             0.0000000000
     14096       123  SOPE      H8S            19.2872527503       14.4375785649       -8.4441794612  MEMB      123             0.0000000000
     14097       123  SOPE      C29            19.5080216005       12.3789154077       -8.2842509443  MEMB      123             0.0000000000
     14098       123  SOPE      H91            20.0948359675       11.4442480000       -8.1585295133  MEMB      123             0.0000000000
     14099       123  SOPE      C210           18.2670217211       12.3242005309       -8.0440836041  MEMB      123             0.0000000000
     14100       123  SOPE      H101           17.8922950511       11.3815941230       -8.0525604105  MEMB      123             0.0000000000
     14101       123  SOPE      C211           17.2103731206       13.1608320549       -7.6265411077  MEMB      123             0.0000000000
     14102       123  SOPE      H11R           16.7207703515       12.7919572513       -8.5276148944  MEMB      123             0.0000000000
     14103       123  SOPE      H11S           17.3625041357       14.1811005720       -7.9339443305  MEMB      123             0.0000000000
     14104       123  SOPE      C212           16.7412268358       13.0980055370       -6.0720489860  MEMB      123             0.0000000000
     14105       123  SOPE      H12R           16.1196896958       13.9813727156       -6.0594884875  MEMB      123             0.0000000000
     14106       123  SOPE      H12S           17.6004043289       13.3912614754       -5.4796706496  MEMB      123             0.0000000000
     14107       123  SOPE      C213           15.9033121484       12.1007474396       -5.0889847018  MEMB      123             0.0000000000
     14108       123  SOPE      H13R           16.3106083306       11.1273287347       -5.0685529046  MEMB      123             0.0000000000
     14109       123  SOPE      H13S           15.5437691132       11.1068092046       -5.4302509889  MEMB      123             0.0000000000
     14110       123  SOPE      C214           14.5051380993       12.5768704678       -4.3817936209  MEMB      123             0.0000000000
     14111       123  SOPE      H14R           14.7849630214       13.2019451580       -3.5805264632  MEMB      123             0.0000000000
     14112       123  SOPE      H14S           14.5982956516       11.5775561102       -3.8322099338  MEMB      123             0.0000000000
     14113       123  SOPE      C215           12.8583821707       13.0179192794       -5.1821756820  MEMB      123             0.0000000000
     14114       123  SOPE      H15R           12.3773812984       12.5823210629       -6.0709279261  MEMB      123             0.0000000000
     14115       123  SOPE      H15S           13.2444277380       13.8170625407       -5.7410225019  MEMB      123             0.0000000000
     14116       123  SOPE      C216           11.2251759711       12.7082080848       -5.0912189839  MEMB      123             0.0000000000
     14117       123  SOPE      H16R           10.9942216637       11.7076605671       -5.5141170139  MEMB      123             0.0000000000
     14118       123  SOPE      H16S           10.5159435371       12.6954631839       -5.8881911621  MEMB      123             0.0000000000
     14119       123  SOPE      C217           10.8729954940       13.1580422815       -3.7158520642  MEMB      123             0.0000000000
     14120       123  SOPE      H17R           10.3753543241       14.1382603290       -3.7816835427  MEMB      123             0.0000000000
     14121       123  SOPE      H17S           11.9220046870       13.1393527039       -3.3823603567  MEMB      123             0.0000000000
     14122       123  SOPE      C218           10.1757348996       13.0867734263       -2.4994627003  MEMB      123             0.0000000000
     14123       123  SOPE      H18R           10.3677232388       12.1773581335       -2.0284950855  MEMB      123             0.0000000000
     14124       123  SOPE      H18S            9.1806588236       13.4991959722       -2.5545751204  MEMB      123             0.0000000000
     14125       123  SOPE      H18T           10.4374335904       13.7034248843       -1.6177633473  MEMB      123             0.0000000000
     14126       123  SOPE      C33            13.4852233925       14.8651707518      -16.3224252360  MEMB      123             0.0000000000
     14127       123  SOPE      H3X            14.5912692413       14.8319273926      -16.3275097439  MEMB      123             0.0000000000
     14128       123  SOPE      H3Y            13.0860451291       13.8402101983      -16.5142214999  MEMB      123             0.0000000000
     14129       123  SOPE      C34            13.0784909346       15.2599789493      -14.9258404263  MEMB      123             0.0000000000
     14130       123  SOPE      H4X            12.2532227089       14.5603810482      -14.6381955286  MEMB      123             0.0000000000
     14131       123  SOPE      H4Y            12.7274468582       16.3101989827      -14.7940557524  MEMB      123             0.0000000000
     14132       123  SOPE      C35            13.8811851808       14.7334409288      -13.8256537518  MEMB      123             0.0000000000
     14133       123  SOPE      H5X            14.2447889619       13.7549565284      -14.1800764702  MEMB      123             0.0000000000
     14134       123  SOPE      H5Y            13.2294559442       14.6683493575      -12.9405492133  MEMB      123             0.0000000000
     14135       123  SOPE      C36            14.8010522158       15.6647402630      -13.1960393543  MEMB      123             0.0000000000
     14136       123  SOPE      H6X            15.3092123185       16.1413458139      -14.0400648575  MEMB      123             0.0000000000
     14137       123  SOPE      H6Y            15.4382294279       15.0251233734      -12.5350405742  MEMB      123             0.0000000000
     14138       123  SOPE      C37            14.1493343657       16.7638388523      -12.3876063540  MEMB      123             0.0000000000
     14139       123  SOPE      H7X            13.2558794548       16.5300046415      -11.8564908830  MEMB      123             0.0000000000
     14140       123  SOPE      H7Y            13.7667225594       17.5760191856      -13.0347203580  MEMB      123             0.0000000000
     14141       123  SOPE      C38            15.1600595819       17.0764457055      -11.3131871381  MEMB      123             0.0000000000
     14142       123  SOPE      H8X            16.1095073037       17.2833880491      -11.8489596801  MEMB      123             0.0000000000
     14143       123  SOPE      H8Y            15.2805220300       16.2496375676      -10.5879812439  MEMB      123             0.0000000000
     14144       123  SOPE      C39            14.7453289391       18.2561432435      -10.5368791778  MEMB      123             0.0000000000
     14145       123  SOPE      H9X            13.6749571835       18.1760110776      -10.2300452937  MEMB      123             0.0000000000
     14146       123  SOPE      H9Y            14.7444974457       18.9713669666      -11.3927318938  MEMB      123             0.0000000000
     14147       123  SOPE      C310           15.7010246284       18.6868525707       -9.3750264385  MEMB      123             0.0000000000
     14148       123  SOPE      H10X           15.3331445298       19.4673415707       -8.6747150367  MEMB      123             0.0000000000
     14149       123  SOPE      H10Y           16.6328409872       19.1043799397       -9.7823164632  MEMB      123             0.0000000000
     14150       123  SOPE      C311           16.0046869270       17.7279119963       -8.2709409602  MEMB      123             0.0000000000
     14151       123  SOPE      H11X           16.7487260184       18.1889839980       -7.5994284698  MEMB      123             0.0000000000
     14152       123  SOPE      H11Y           16.3551584298       16.7749058386       -8.7264126157  MEMB      123             0.0000000000
     14153       123  SOPE      C312           14.8328550682       17.4880361372       -7.3823696132  MEMB      123             0.0000000000
     14154       123  SOPE      H12X           14.5327226623       16.7156031821       -8.0942502380  MEMB      123             0.0000000000
     14155       123  SOPE      H12Y           13.9876403239       18.2209744813       -7.2828400056  MEMB      123             0.0000000000
     14156       123  SOPE      C313           15.1789899253       16.7378870140       -6.1158711244  MEMB      123             0.0000000000
     14157       123  SOPE      H13X           15.7404529018       15.8262092789       -6.2980286581  MEMB      123             0.0000000000
     14158       123  SOPE      H13Y           14.2906887451       16.4513092891       -5.6368216604  MEMB      123             0.0000000000
     14159       123  SOPE      C314           15.7531125034       17.5262168296       -4.9867748493  MEMB      123             0.0000000000
     14160       123  SOPE      H14X           14.9586940926       18.2553449806       -4.7564089285  MEMB      123             0.0000000000
     14161       123  SOPE      H14Y           16.6132473731       18.0753338126       -5.4015571527  MEMB      123             0.0000000000
     14162       123  SOPE      C315           16.1933435809       16.6902705733       -3.7481841648  MEMB      123             0.0000000000
     14163       123  SOPE      H15X           16.7923036581       17.2976911554       -3.0587873975  MEMB      123             0.0000000000
     14164       123  SOPE      H15Y           16.7962305669       15.8382789249       -4.1211914234  MEMB      123             0.0000000000
     14165       123  SOPE      C316           15.1384393244       16.1037861279       -2.8064797782  MEMB      123             0.0000000000
     14166       123  SOPE      H16X           15.4658749983       15.2512890054       -2.2026458999  MEMB      123             0.0000000000
     14167       123  SOPE      H16Y           14.6023721093       15.6298813310       -3.6100776270  MEMB      123             0.0000000000
     14168       123  SOPE      C317           14.3624291790       17.1150996608       -1.8620328301  MEMB      123             0.0000000000
     14169       123  SOPE      H17X           13.6195496798       17.6062443072       -2.5814516785  MEMB      123             0.0000000000
     14170       123  SOPE      H17Y           15.1212791100       17.7157614843       -1.3924182437  MEMB      123             0.0000000000
     14171       123  SOPE      C318           13.5059599291       16.8559161774       -0.6130557441  MEMB      123             0.0000000000
     14172       123  SOPE      H18X           12.5728982178       16.9227308089       -1.1196453455  MEMB      123             0.0000000000
     14173       123  SOPE      H18Y           12.8354493906       17.5345865424       -0.0806207057  MEMB      123             0.0000000000
     14174       123  SOPE      H18Z           13.6224761062       15.8738521202       -0.1775849350  MEMB      123             0.0000000000
     14175       124  SAPS      N             -19.5788576469       -5.9398855406      -21.5439665856  MEMB      124             0.0000000000
     14176       124  SAPS      HN1           -18.7866833983       -5.2587828178      -21.5272761652  MEMB      124             0.0000000000
     14177       124  SAPS      HN2           -19.3652686096       -6.8176729139      -22.0385346652  MEMB      124             0.0000000000
     14178       124  SAPS      HN3           -20.3694815932       -5.4245331773      -21.9777720196  MEMB      124             0.0000000000
     14179       124  SAPS      C12           -19.9062305874       -6.2648029185      -20.1166202532  MEMB      124             0.0000000000
     14180       124  SAPS      H12A          -19.2597402227       -7.0635847038      -19.7780983953  MEMB      124             0.0000000000
     14181       124  SAPS      C13           -19.6752186565       -5.0720965117      -19.1703231062  MEMB      124             0.0000000000
     14182       124  SAPS      O13A          -19.1851913328       -4.0285691628      -19.6760353997  MEMB      124             0.0000000000
     14183       124  SAPS      O13B          -19.5574139222       -5.3621340504      -17.9524794735  MEMB      124             0.0000000000
     14184       124  SAPS      C11           -21.3758244438       -6.7443988335      -19.9923154442  MEMB      124             0.0000000000
     14185       124  SAPS      H11A          -22.0653982385       -5.9274193381      -20.2354938376  MEMB      124             0.0000000000
     14186       124  SAPS      H11B          -21.5613565329       -6.9388582134      -18.8997213766  MEMB      124             0.0000000000
     14187       124  SAPS      P             -21.3856614173       -9.3232000456      -20.5195523820  MEMB      124             0.0000000000
     14188       124  SAPS      O13           -22.6838548222       -9.9963460728      -20.2374558943  MEMB      124             0.0000000000
     14189       124  SAPS      O14           -20.4375019020       -9.9833398917      -21.4260593053  MEMB      124             0.0000000000
     14190       124  SAPS      O12           -21.6626875253       -7.8423167675      -20.8880594773  MEMB      124             0.0000000000
     14191       124  SAPS      O11           -20.6155275296       -8.9561876060      -19.2046105622  MEMB      124             0.0000000000
     14192       124  SAPS      C1            -20.4417075325       -9.9721362614      -18.3067179314  MEMB      124             0.0000000000
     14193       124  SAPS      HA            -21.3584361184      -10.5946353442      -18.3646815622  MEMB      124             0.0000000000
     14194       124  SAPS      HB            -19.6482197840      -10.5971289610      -18.7471282811  MEMB      124             0.0000000000
     14195       124  SAPS      C2            -20.2005174221       -9.4934338499      -16.8212066348  MEMB      124             0.0000000000
     14196       124  SAPS      HS            -20.3901255464      -10.1336107522      -15.9770742945  MEMB      124             0.0000000000
     14197       124  SAPS      O21           -20.9667506883       -8.3236201638      -16.5631900666  MEMB      124             0.0000000000
     14198       124  SAPS      C21           -22.3036596899       -8.4092708764      -16.6100532738  MEMB      124             0.0000000000
     14199       124  SAPS      O22           -22.9620533143       -9.2558525498      -17.1922478038  MEMB      124             0.0000000000
     14200       124  SAPS      C22           -22.8070318071       -7.0656439609      -15.9439908925  MEMB      124             0.0000000000
     14201       124  SAPS      H2R           -21.9099865002       -6.4896846023      -15.7329603672  MEMB      124             0.0000000000
     14202       124  SAPS      H2S           -23.1711901240       -6.6156407503      -16.8899362216  MEMB      124             0.0000000000
     14203       124  SAPS      C3            -18.6744004537       -9.2978633102      -16.5186039427  MEMB      124             0.0000000000
     14204       124  SAPS      HX            -18.2619893737       -9.0048080552      -17.4960837954  MEMB      124             0.0000000000
     14205       124  SAPS      HY            -18.1763217277      -10.2820736669      -16.2446450617  MEMB      124             0.0000000000
     14206       124  SAPS      O31           -18.4486015209       -8.2686528697      -15.5345165783  MEMB      124             0.0000000000
     14207       124  SAPS      C31           -18.5754965853       -8.5834256776      -14.2492201205  MEMB      124             0.0000000000
     14208       124  SAPS      O32           -18.6169023398       -9.6965149113      -13.7848564927  MEMB      124             0.0000000000
     14209       124  SAPS      C32           -18.6187537518       -7.3484826633      -13.3520353548  MEMB      124             0.0000000000
     14210       124  SAPS      H2X           -19.3622698891       -6.6427451745      -13.7675617983  MEMB      124             0.0000000000
     14211       124  SAPS      H2Y           -17.6128789540       -6.8968091275      -13.4392340740  MEMB      124             0.0000000000
     14212       124  SAPS      C23           -23.8763417087       -6.6793382659      -14.7485349702  MEMB      124             0.0000000000
     14213       124  SAPS      H3R           -24.9457746297       -6.3047988537      -15.1091820834  MEMB      124             0.0000000000
     14214       124  SAPS      H3S           -23.6991251732       -5.8372584693      -15.2694885212  MEMB      124             0.0000000000
     14215       124  SAPS      C24           -23.5374681402       -7.3884657311      -13.3959929497  MEMB      124             0.0000000000
     14216       124  SAPS      H4R           -22.4389610172       -7.3057468595      -13.4310078699  MEMB      124             0.0000000000
     14217       124  SAPS      H4S           -23.6218495237       -8.4899983111      -13.2229072214  MEMB      124             0.0000000000
     14218       124  SAPS      C25           -24.2977385257       -6.7710533422      -12.2630901080  MEMB      124             0.0000000000
     14219       124  SAPS      H5R           -25.3286298203       -7.0649421560      -12.0755583308  MEMB      124             0.0000000000
     14220       124  SAPS      C26           -24.2024942277       -5.6407075954      -11.6625223690  MEMB      124             0.0000000000
     14221       124  SAPS      H6R           -24.9832597150       -4.9497709659      -11.5483530778  MEMB      124             0.0000000000
     14222       124  SAPS      C27           -23.4749727900       -4.5545127317      -11.7010967197  MEMB      124             0.0000000000
     14223       124  SAPS      H7R           -22.3975244451       -5.1271645269      -11.8364101882  MEMB      124             0.0000000000
     14224       124  SAPS      H7S           -22.6156486793       -5.0200610476      -10.9779135859  MEMB      124             0.0000000000
     14225       124  SAPS      C28           -23.9794823770       -2.6421467749      -11.6064694514  MEMB      124             0.0000000000
     14226       124  SAPS      H8R           -24.3903424677       -2.2829636979      -12.5206815915  MEMB      124             0.0000000000
     14227       124  SAPS      C29           -22.9772395558       -1.4943862136      -10.7015331758  MEMB      124             0.0000000000
     14228       124  SAPS      H9R           -22.8221753062       -0.4758244037      -10.7364584567  MEMB      124             0.0000000000
     14229       124  SAPS      C210          -21.3856122203       -2.0892185010       -9.7434664677  MEMB      124             0.0000000000
     14230       124  SAPS      H10R          -20.3314017242       -2.1418260282      -10.2205226682  MEMB      124             0.0000000000
     14231       124  SAPS      H10S          -21.0135118612       -3.2386604060       -9.8772418219  MEMB      124             0.0000000000
     14232       124  SAPS      C211          -21.4618022089       -2.2159861159       -8.3002488840  MEMB      124             0.0000000000
     14233       124  SAPS      H11R          -21.9986466707       -1.2904745689       -8.2708010354  MEMB      124             0.0000000000
     14234       124  SAPS      C212          -21.4625649854       -3.0292867715       -7.2261411885  MEMB      124             0.0000000000
     14235       124  SAPS      H12R          -21.7636252594       -2.5413050896       -6.2943819047  MEMB      124             0.0000000000
     14236       124  SAPS      C213          -21.2759337265       -4.4979472260       -7.0960657262  MEMB      124             0.0000000000
     14237       124  SAPS      H13R          -21.0825870470       -4.7021881704       -6.0416358515  MEMB      124             0.0000000000
     14238       124  SAPS      H13S          -20.4821659602       -4.8388801682       -7.7785549742  MEMB      124             0.0000000000
     14239       124  SAPS      C214          -22.5069551718       -5.2667889169       -7.3450802813  MEMB      124             0.0000000000
     14240       124  SAPS      H14R          -23.0435693235       -5.2015247448       -8.2452773847  MEMB      124             0.0000000000
     14241       124  SAPS      C215          -23.0406512519       -6.3090004420       -6.9110330822  MEMB      124             0.0000000000
     14242       124  SAPS      H15R          -23.9687396799       -6.4235053441       -7.4313685412  MEMB      124             0.0000000000
     14243       124  SAPS      C216          -22.6530206016       -7.2724785626       -5.9046342359  MEMB      124             0.0000000000
     14244       124  SAPS      H16R          -21.8281856991       -6.7436322106       -5.4198453718  MEMB      124             0.0000000000
     14245       124  SAPS      H16S          -22.3027958354       -8.1772328219       -6.4368782691  MEMB      124             0.0000000000
     14246       124  SAPS      C217          -23.7116701062       -7.7400102108       -4.9128178246  MEMB      124             0.0000000000
     14247       124  SAPS      H17R          -24.4952045825       -8.3573664431       -5.4017355815  MEMB      124             0.0000000000
     14248       124  SAPS      H17S          -24.1842283372       -6.8493389733       -4.4210524703  MEMB      124             0.0000000000
     14249       124  SAPS      C218          -23.2227020180       -8.7328146279       -3.9094328096  MEMB      124             0.0000000000
     14250       124  SAPS      H18R          -23.1829139192       -9.7406133734       -4.3375313898  MEMB      124             0.0000000000
     14251       124  SAPS      H18S          -23.9660243444       -8.7547270423       -3.0966196725  MEMB      124             0.0000000000
     14252       124  SAPS      C219          -21.7961493581       -8.4775827729       -3.5192844351  MEMB      124             0.0000000000
     14253       124  SAPS      H19R          -21.0801478883       -8.1132872033       -4.2772015443  MEMB      124             0.0000000000
     14254       124  SAPS      H19S          -21.4839450546       -9.1946895970       -2.7684257224  MEMB      124             0.0000000000
     14255       124  SAPS      C220          -21.6774172737       -7.4519199311       -2.6246004295  MEMB      124             0.0000000000
     14256       124  SAPS      H20R          -20.8137837200       -6.7835773663       -2.6731586122  MEMB      124             0.0000000000
     14257       124  SAPS      H20S          -21.7183692107       -7.8185714763       -1.5642232260  MEMB      124             0.0000000000
     14258       124  SAPS      H20T          -22.6095099888       -6.9025087202       -2.9584484306  MEMB      124             0.0000000000
     14259       124  SAPS      C33           -18.9476050331       -7.6699945277      -11.8587632183  MEMB      124             0.0000000000
     14260       124  SAPS      H3X           -18.3575516886       -8.5444719045      -11.4884614037  MEMB      124             0.0000000000
     14261       124  SAPS      H3Y           -20.0215495193       -7.9133423616      -11.7723542730  MEMB      124             0.0000000000
     14262       124  SAPS      C34           -18.7392070899       -6.4640715439      -10.9407613932  MEMB      124             0.0000000000
     14263       124  SAPS      H4X           -19.3963548853       -5.6339703424      -11.2619005701  MEMB      124             0.0000000000
     14264       124  SAPS      H4Y           -17.7327737484       -6.1574430408      -11.1921654890  MEMB      124             0.0000000000
     14265       124  SAPS      C35           -18.8935164285       -6.6626449140       -9.4236218939  MEMB      124             0.0000000000
     14266       124  SAPS      H5X           -19.9160280041       -7.0381011160       -9.1918033191  MEMB      124             0.0000000000
     14267       124  SAPS      H5Y           -18.7720258352       -5.6833117039       -8.9023208347  MEMB      124             0.0000000000
     14268       124  SAPS      C36           -17.9242184400       -7.6675616707       -8.8095399179  MEMB      124             0.0000000000
     14269       124  SAPS      H6X           -16.8678915046       -7.4894628629       -9.1275862954  MEMB      124             0.0000000000
     14270       124  SAPS      H6Y           -18.2322914823       -8.6649249511       -9.1809488854  MEMB      124             0.0000000000
     14271       124  SAPS      C37           -18.0946814790       -7.7172980778       -7.2949932779  MEMB      124             0.0000000000
     14272       124  SAPS      H7X           -17.8589170464       -8.7372205935       -6.9183550740  MEMB      124             0.0000000000
     14273       124  SAPS      H7Y           -19.1377057955       -7.4877806111       -6.9818660326  MEMB      124             0.0000000000
     14274       124  SAPS      C38           -17.1951630514       -6.7332771515       -6.6208218266  MEMB      124             0.0000000000
     14275       124  SAPS      H8X           -17.6587550229       -5.7107157149       -6.6118865432  MEMB      124             0.0000000000
     14276       124  SAPS      H8Y           -16.2344035300       -6.6378822278       -7.1844662902  MEMB      124             0.0000000000
     14277       124  SAPS      C39           -16.8336306851       -7.1889834610       -5.2125941509  MEMB      124             0.0000000000
     14278       124  SAPS      H9X           -16.8071865825       -6.2032026072       -4.8229908205  MEMB      124             0.0000000000
     14279       124  SAPS      H9Y           -15.8205576995       -7.6386620858       -5.1233766309  MEMB      124             0.0000000000
     14280       124  SAPS      C310          -17.8822518535       -7.4738579779       -4.1445043223  MEMB      124             0.0000000000
     14281       124  SAPS      H10X          -17.7356143852       -8.5547528694       -3.9756222585  MEMB      124             0.0000000000
     14282       124  SAPS      H10Y          -18.8667078141       -7.2345942932       -4.5983616556  MEMB      124             0.0000000000
     14283       124  SAPS      C311          -17.7332543905       -6.7381884063       -2.7722502619  MEMB      124             0.0000000000
     14284       124  SAPS      H11X          -18.0329915921       -5.6626123375       -2.7708305679  MEMB      124             0.0000000000
     14285       124  SAPS      H11Y          -16.6614958432       -6.7422137099       -2.4729330992  MEMB      124             0.0000000000
     14286       124  SAPS      C312          -18.5250710191       -7.4609274346       -1.6698983651  MEMB      124             0.0000000000
     14287       124  SAPS      H12X          -19.0457636067       -8.3255493524       -2.1296686149  MEMB      124             0.0000000000
     14288       124  SAPS      H12Y          -19.2916791723       -6.7757277738       -1.2473116830  MEMB      124             0.0000000000
     14289       124  SAPS      C313          -17.6425609581       -7.9700997600       -0.5313850453  MEMB      124             0.0000000000
     14290       124  SAPS      H13X          -16.6834938417       -8.3125460758       -0.9657597370  MEMB      124             0.0000000000
     14291       124  SAPS      H13Y          -18.0952362299       -8.8472911770       -0.0110675882  MEMB      124             0.0000000000
     14292       124  SAPS      C314          -17.2804330266       -6.8468194871        0.4303653809  MEMB      124             0.0000000000
     14293       124  SAPS      H14X          -17.6059416343       -5.8604930469        0.0244006183  MEMB      124             0.0000000000
     14294       124  SAPS      H14Y          -16.1928575258       -6.8146148850        0.5749496238  MEMB      124             0.0000000000
     14295       124  SAPS      C315          -17.8129768616       -7.0355265551        1.8098028217  MEMB      124             0.0000000000
     14296       124  SAPS      H15X          -17.6592145424       -6.1354138560        2.4631802104  MEMB      124             0.0000000000
     14297       124  SAPS      H15Y          -17.4671651594       -7.9298692916        2.3545149146  MEMB      124             0.0000000000
     14298       124  SAPS      C316          -19.2474116700       -7.1178412986        1.7332413976  MEMB      124             0.0000000000
     14299       124  SAPS      H16X          -19.2657151969       -7.3285906190        2.8356760577  MEMB      124             0.0000000000
     14300       124  SAPS      H16Y          -19.8717783035       -7.8626505449        1.2061729892  MEMB      124             0.0000000000
     14301       124  SAPS      C317          -19.7007173584       -5.7983102381        1.2426456803  MEMB      124             0.0000000000
     14302       124  SAPS      H17X          -19.4014600398       -5.3460966505        0.3062375160  MEMB      124             0.0000000000
     14303       124  SAPS      H17Y          -19.2841808900       -5.0337097555        1.9402550262  MEMB      124             0.0000000000
     14304       124  SAPS      C318          -21.1065692926       -5.8462772946        0.8296279064  MEMB      124             0.0000000000
     14305       124  SAPS      H18X          -21.9559051690       -5.7298492333        1.4706724559  MEMB      124             0.0000000000
     14306       124  SAPS      H18Y          -21.7103273972       -6.7543003152        0.9559688729  MEMB      124             0.0000000000
     14307       124  SAPS      H18Z          -21.4232773323       -4.8724801177        0.5000864077  MEMB      124             0.0000000000
     14308       125  OSM       N             -22.8186004977        2.3596772380      -21.9905567618  MEMB      125             0.0000000000
     14309       125  OSM       C15           -21.3507956256        2.2416115509      -21.8814004474  MEMB      125             0.0000000000
     14310       125  OSM       H15A          -20.9053932838        2.3154594579      -22.8647185117  MEMB      125             0.0000000000
     14311       125  OSM       H15B          -21.1328543895        1.2743971397      -21.4346310221  MEMB      125             0.0000000000
     14312       125  OSM       H15C          -20.9308756837        3.0288132681      -21.2443687596  MEMB      125             0.0000000000
     14313       125  OSM       C14           -23.1185224221        3.7599077562      -22.1872407015  MEMB      125             0.0000000000
     14314       125  OSM       H14A          -22.7554025329        4.2923108716      -23.0257862550  MEMB      125             0.0000000000
     14315       125  OSM       H14B          -22.7471316785        4.2958019255      -21.2873356637  MEMB      125             0.0000000000
     14316       125  OSM       H14C          -24.1897315104        3.9334775353      -22.0835927831  MEMB      125             0.0000000000
     14317       125  OSM       C13           -23.3213086269        1.6414881211      -23.1866163161  MEMB      125             0.0000000000
     14318       125  OSM       H13A          -24.4009935296        1.6260762204      -23.1614887583  MEMB      125             0.0000000000
     14319       125  OSM       H13B          -22.8923435292        0.6473433968      -23.1785778538  MEMB      125             0.0000000000
     14320       125  OSM       H13C          -22.9643232614        2.1120374193      -24.1019373560  MEMB      125             0.0000000000
     14321       125  OSM       C12           -23.4630808888        1.9122959744      -20.6750049509  MEMB      125             0.0000000000
     14322       125  OSM       H12A          -24.4152884098        2.4249438031      -20.5221319859  MEMB      125             0.0000000000
     14323       125  OSM       H12B          -22.8646314943        2.2460946877      -19.8276809156  MEMB      125             0.0000000000
     14324       125  OSM       C11           -23.6497586356        0.4035055907      -20.5125603093  MEMB      125             0.0000000000
     14325       125  OSM       H11A          -24.3118275472        0.0384786273      -21.3044257375  MEMB      125             0.0000000000
     14326       125  OSM       H11B          -24.1295434684        0.2140384220      -19.5180307491  MEMB      125             0.0000000000
     14327       125  OSM       P             -22.4657148747       -1.8193591010      -20.2646595607  MEMB      125             0.0000000000
     14328       125  OSM       O13           -23.8556703626       -2.3312591385      -20.5033716222  MEMB      125             0.0000000000
     14329       125  OSM       O14           -21.3499002422       -2.5019992875      -20.9225305710  MEMB      125             0.0000000000
     14330       125  OSM       O11           -22.2260416839       -1.6423428002      -18.7033053995  MEMB      125             0.0000000000
     14331       125  OSM       O12           -22.4259611183       -0.2909179426      -20.6798432738  MEMB      125             0.0000000000
     14332       125  OSM       C1S           -23.2562017579       -2.0316065889      -17.8052463586  MEMB      125             0.0000000000
     14333       125  OSM       H1S           -23.3468375620       -3.1405140419      -17.8621262512  MEMB      125             0.0000000000
     14334       125  OSM       H1T           -24.2581105161       -1.6445072099      -18.0776602290  MEMB      125             0.0000000000
     14335       125  OSM       NF            -23.6502387684       -2.2191553050      -15.4371217912  MEMB      125             0.0000000000
     14336       125  OSM       HNF           -24.2541179949       -1.8158452501      -14.7650365211  MEMB      125             0.0000000000
     14337       125  OSM       C2S           -22.9090329321       -1.5157037101      -16.3768966802  MEMB      125             0.0000000000
     14338       125  OSM       H2S           -21.8262937027       -1.7313629489      -16.1878316019  MEMB      125             0.0000000000
     14339       125  OSM       C3S           -23.2032759422       -0.0382840135      -16.1323960253  MEMB      125             0.0000000000
     14340       125  OSM       H3S           -24.3167321289        0.0734119591      -16.1396236592  MEMB      125             0.0000000000
     14341       125  OSM       O3            -22.6539447004        0.8164362300      -17.1119130743  MEMB      125             0.0000000000
     14342       125  OSM       HO3           -22.3031822703        0.2184844498      -17.7845747948  MEMB      125             0.0000000000
     14343       125  OSM       C4S           -22.6640677645        0.3930656992      -14.7867609504  MEMB      125             0.0000000000
     14344       125  OSM       H4S           -21.5698861478        0.4115498387      -14.7545267410  MEMB      125             0.0000000000
     14345       125  OSM       C5S           -23.3527896676        0.8138935221      -13.7060454188  MEMB      125             0.0000000000
     14346       125  OSM       H5S           -24.4518870867        0.8693240486      -13.7529600546  MEMB      125             0.0000000000
     14347       125  OSM       C6S           -22.7671769105        1.2338318811      -12.3803155845  MEMB      125             0.0000000000
     14348       125  OSM       H6S           -23.3927861408        0.7584441590      -11.6682079977  MEMB      125             0.0000000000
     14349       125  OSM       H6T           -23.0715555126        2.2603971759      -12.1074000471  MEMB      125             0.0000000000
     14350       125  OSM       C7S           -21.2428482922        0.9480568991      -12.1192253375  MEMB      125             0.0000000000
     14351       125  OSM       H7S           -20.9145692038        1.7805859710      -12.6889337217  MEMB      125             0.0000000000
     14352       125  OSM       H7T           -20.8036576546        0.1064585091      -12.6817186840  MEMB      125             0.0000000000
     14353       125  OSM       C8S           -20.4754933754        1.2702105592      -10.7802508925  MEMB      125             0.0000000000
     14354       125  OSM       H8S           -20.6324681386        2.1985893601      -10.2288407395  MEMB      125             0.0000000000
     14355       125  OSM       H8T           -19.3858893332        1.2129239999      -10.9952304417  MEMB      125             0.0000000000
     14356       125  OSM       C9S           -20.8283894202        0.4579670333       -9.6151702421  MEMB      125             0.0000000000
     14357       125  OSM       H9S           -20.4377318689       -0.3378587394      -10.2358395838  MEMB      125             0.0000000000
     14358       125  OSM       H9T           -21.9201556559        0.4788209329       -9.3757852168  MEMB      125             0.0000000000
     14359       125  OSM       C10S          -19.9554029361        0.5418622378       -8.3840370523  MEMB      125             0.0000000000
     14360       125  OSM       H10S          -20.0186825942        1.5346018343       -8.0350631214  MEMB      125             0.0000000000
     14361       125  OSM       H10T          -18.9103159301        0.3306508265       -8.6366759977  MEMB      125             0.0000000000
     14362       125  OSM       C11S          -20.3584976320       -0.2094023354       -7.1415187464  MEMB      125             0.0000000000
     14363       125  OSM       H11S          -19.8091236484       -1.1692683593       -7.3105159505  MEMB      125             0.0000000000
     14364       125  OSM       H11T          -21.4810977317       -0.2364280574       -6.9444522319  MEMB      125             0.0000000000
     14365       125  OSM       C12S          -19.7020461741       -0.0171555594       -5.8807958075  MEMB      125             0.0000000000
     14366       125  OSM       H12S          -20.4316130985        0.6463747794       -5.5140055401  MEMB      125             0.0000000000
     14367       125  OSM       H12T          -18.7063056742        0.3928503045       -6.1024014137  MEMB      125             0.0000000000
     14368       125  OSM       C13S          -19.8403301435       -1.1062021766       -4.8345803773  MEMB      125             0.0000000000
     14369       125  OSM       H13S          -19.5875777779       -2.0911168526       -5.2762435020  MEMB      125             0.0000000000
     14370       125  OSM       H13T          -20.9069649390       -1.1163152946       -4.4951645453  MEMB      125             0.0000000000
     14371       125  OSM       C14S          -18.8992785364       -0.6918675517       -3.7080033898  MEMB      125             0.0000000000
     14372       125  OSM       H14S          -18.7121185558        0.4021923885       -3.8183726786  MEMB      125             0.0000000000
     14373       125  OSM       H14T          -17.9508614062       -1.2039746270       -3.9106178685  MEMB      125             0.0000000000
     14374       125  OSM       C15S          -19.3446400235       -0.9721174897       -2.2692584112  MEMB      125             0.0000000000
     14375       125  OSM       H15S          -19.3338328560       -2.0736426198       -2.1069805103  MEMB      125             0.0000000000
     14376       125  OSM       H15T          -20.3812899050       -0.5936444601       -2.1338805636  MEMB      125             0.0000000000
     14377       125  OSM       C16S          -18.4437338582       -0.2981625464       -1.2083675853  MEMB      125             0.0000000000
     14378       125  OSM       H16S          -18.6400075158        0.7971256214       -1.1787421101  MEMB      125             0.0000000000
     14379       125  OSM       H16T          -17.3794811905       -0.4280686780       -1.4812015587  MEMB      125             0.0000000000
     14380       125  OSM       C17S          -18.6979667308       -0.8141004423        0.2128735606  MEMB      125             0.0000000000
     14381       125  OSM       H17S          -18.5376847305       -1.9062938276        0.3255741434  MEMB      125             0.0000000000
     14382       125  OSM       H17T          -19.7747726809       -0.5852097839        0.3784265180  MEMB      125             0.0000000000
     14383       125  OSM       C18S          -17.9458318165       -0.1098899258        1.3266983993  MEMB      125             0.0000000000
     14384       125  OSM       H18S          -16.8769284771        0.1236462470        1.1078333009  MEMB      125             0.0000000000
     14385       125  OSM       H18T          -17.9888411233       -0.6689228741        2.2789616408  MEMB      125             0.0000000000
     14386       125  OSM       H18U          -18.5095379266        0.8159824313        1.5395605299  MEMB      125             0.0000000000
     14387       125  OSM       C1F           -23.4164255307       -3.4419638848      -15.3841701545  MEMB      125             0.0000000000
     14388       125  OSM       OF            -22.6865458686       -4.1088996160      -16.1086560748  MEMB      125             0.0000000000
     14389       125  OSM       C2F           -23.9930598638       -3.9130457526      -14.2630838975  MEMB      125             0.0000000000
     14390       125  OSM       H2F           -24.7723847777       -4.5910351911      -14.5664892814  MEMB      125             0.0000000000
     14391       125  OSM       H2G           -24.8082943526       -3.3593257096      -13.7978700655  MEMB      125             0.0000000000
     14392       125  OSM       C3F           -22.4979218972       -4.3655086832      -13.9642569750  MEMB      125             0.0000000000
     14393       125  OSM       H3F           -22.1592468127       -5.3736791833      -14.1352799731  MEMB      125             0.0000000000
     14394       125  OSM       H3G           -22.7518853331       -5.2708399238      -13.5258253829  MEMB      125             0.0000000000
     14395       125  OSM       C4F           -21.3961345900       -3.6578666958      -13.1493925133  MEMB      125             0.0000000000
     14396       125  OSM       H4F           -20.9252688967       -2.9322599058      -13.8374336769  MEMB      125             0.0000000000
     14397       125  OSM       H4G           -20.8207269997       -4.0352846339      -12.2664145665  MEMB      125             0.0000000000
     14398       125  OSM       C5F           -21.6617087672       -3.0492083455      -11.8562503517  MEMB      125             0.0000000000
     14399       125  OSM       H5F           -22.1742195936       -2.2035650646      -12.5870325613  MEMB      125             0.0000000000
     14400       125  OSM       H5G           -21.1688165412       -2.0218606351      -11.9022099388  MEMB      125             0.0000000000
     14401       125  OSM       C6F           -23.1395802068       -3.5899062783       -9.6376877500  MEMB      125             0.0000000000
     14402       125  OSM       H6F           -22.4085213659       -4.0818330600       -9.2806502719  MEMB      125             0.0000000000
     14403       125  OSM       H6G           -23.9003042915       -4.2935384012       -9.6718907086  MEMB      125             0.0000000000
     14404       125  OSM       C7F           -24.2056780039       -2.4790019115       -8.7277823337  MEMB      125             0.0000000000
     14405       125  OSM       H7F           -23.8270390646       -1.4352154397       -8.5400789704  MEMB      125             0.0000000000
     14406       125  OSM       H7G           -24.0845839308       -2.6300686263       -7.6552396086  MEMB      125             0.0000000000
     14407       125  OSM       C8F           -25.5180990163       -1.6992905561       -9.3522031870  MEMB      125             0.0000000000
     14408       125  OSM       H8F           -26.0453156499       -1.3471845676       -8.4527809751  MEMB      125             0.0000000000
     14409       125  OSM       H8G           -26.0824579581       -2.4917882920       -9.7330539994  MEMB      125             0.0000000000
     14410       125  OSM       C9F           -25.7404601404       -0.7599669550      -10.5846753486  MEMB      125             0.0000000000
     14411       125  OSM       H9F           -25.8039286384       -1.2399572600      -11.5772796300  MEMB      125             0.0000000000
     14412       125  OSM       C10F          -25.8717334592        0.5522020503      -10.6528325865  MEMB      125             0.0000000000
     14413       125  OSM       H10F          -25.9261639641        1.0710356304      -11.6270076896  MEMB      125             0.0000000000
     14414       125  OSM       C11F          -25.8194823124        1.3175258102       -9.4001481749  MEMB      125             0.0000000000
     14415       125  OSM       H11F          -25.6940359680        2.4042804351       -9.5600516303  MEMB      125             0.0000000000
     14416       125  OSM       H11G          -24.9835214427        0.9473400185       -8.7558021757  MEMB      125             0.0000000000
     14417       125  OSM       C12F          -27.1176136666        1.0883694157       -8.6480012207  MEMB      125             0.0000000000
     14418       125  OSM       H12F          -27.4956187870        0.0415710071       -8.6482249331  MEMB      125             0.0000000000
     14419       125  OSM       H12G          -27.9212316008        1.6964691442       -9.1359518305  MEMB      125             0.0000000000
     14420       125  OSM       C13F          -26.7411412753        1.4744435939       -7.2261728730  MEMB      125             0.0000000000
     14421       125  OSM       H13F          -27.5478798307        1.5643676421       -6.5717474523  MEMB      125             0.0000000000
     14422       125  OSM       H13G          -26.2604392926        2.4628695719       -7.1761553167  MEMB      125             0.0000000000
     14423       125  OSM       C14F          -26.4567450876        0.3692340936       -6.2183365487  MEMB      125             0.0000000000
     14424       125  OSM       H14F          -25.4559018394        0.0148136299       -6.4853147319  MEMB      125             0.0000000000
     14425       125  OSM       H14G          -27.2518266332       -0.4179890458       -6.3046394162  MEMB      125             0.0000000000
     14426       125  OSM       C15F          -26.5232358249        0.8310271654       -4.7542360930  MEMB      125             0.0000000000
     14427       125  OSM       H15F          -26.5275169455       -0.0680484688       -4.1039195350  MEMB      125             0.0000000000
     14428       125  OSM       H15G          -27.3981236433        1.4486976226       -4.4546067023  MEMB      125             0.0000000000
     14429       125  OSM       C16F          -25.3621017378        1.7259830448       -4.4476100125  MEMB      125             0.0000000000
     14430       125  OSM       H16F          -25.7363713079        2.4241115226       -3.6716737351  MEMB      125             0.0000000000
     14431       125  OSM       H16G          -24.9736647393        2.2631374055       -5.3268164604  MEMB      125             0.0000000000
     14432       125  OSM       C17F          -24.2904214144        1.0462567837       -3.7268036478  MEMB      125             0.0000000000
     14433       125  OSM       H17F          -23.2852609780        1.4779607743       -3.9364081772  MEMB      125             0.0000000000
     14434       125  OSM       H17G          -24.2626053641       -0.0596157753       -3.8877903042  MEMB      125             0.0000000000
     14435       125  OSM       C18F          -24.5917925100        1.3381866868       -2.3061598221  MEMB      125             0.0000000000
     14436       125  OSM       H18F          -25.4785814735        0.8806842134       -1.8539170637  MEMB      125             0.0000000000
     14437       125  OSM       H18G          -24.3670035567        2.3467619180       -1.8892811795  MEMB      125             0.0000000000
     14438       125  OSM       H18H          -23.8100327033        0.6879259606       -2.0487973259  MEMB      125             0.0000000000
     14439       126  SAPC      N             -18.1924845323      -15.8850111438      -21.9981813312  MEMB      126             0.0000000000
     14440       126  SAPC      C12           -18.8947580745      -16.2847196503      -20.7129419279  MEMB      126             0.0000000000
     14441       126  SAPC      H12A          -18.2327330730      -16.8791105850      -20.0831320759  MEMB      126             0.0000000000
     14442       126  SAPC      H12B          -19.7133790131      -16.9292547045      -21.0068622204  MEMB      126             0.0000000000
     14443       126  SAPC      C13           -18.0925346208      -17.1312774605      -22.7897163848  MEMB      126             0.0000000000
     14444       126  SAPC      H13A          -17.5957182189      -16.9433261996      -23.7318952597  MEMB      126             0.0000000000
     14445       126  SAPC      H13B          -17.5382077878      -17.8704408242      -22.2203953929  MEMB      126             0.0000000000
     14446       126  SAPC      H13C          -19.0787792548      -17.5435007769      -22.9404311170  MEMB      126             0.0000000000
     14447       126  SAPC      C14           -18.9865400705      -14.9096150738      -22.7793379903  MEMB      126             0.0000000000
     14448       126  SAPC      H14A          -18.3600741904      -14.4623586169      -23.5377738533  MEMB      126             0.0000000000
     14449       126  SAPC      H14B          -19.8166880637      -15.4366249529      -23.2060499187  MEMB      126             0.0000000000
     14450       126  SAPC      H14C          -19.3309379563      -14.1081214547      -22.1210620152  MEMB      126             0.0000000000
     14451       126  SAPC      C15           -16.8164106064      -15.3335515035      -21.7616760303  MEMB      126             0.0000000000
     14452       126  SAPC      H15A          -16.2431417432      -15.2931530748      -22.6749663199  MEMB      126             0.0000000000
     14453       126  SAPC      H15B          -16.8542293973      -14.3434378956      -21.3072576206  MEMB      126             0.0000000000
     14454       126  SAPC      H15C          -16.2826216109      -15.9646191867      -21.0627665287  MEMB      126             0.0000000000
     14455       126  SAPC      C11           -19.5306586795      -15.2074882612      -19.8244579544  MEMB      126             0.0000000000
     14456       126  SAPC      H11A          -19.9483612799      -15.7282814833      -18.9220829632  MEMB      126             0.0000000000
     14457       126  SAPC      H11B          -20.3899222785      -14.7923112041      -20.3913565434  MEMB      126             0.0000000000
     14458       126  SAPC      P             -17.9823596140      -14.0957284963      -18.0379468691  MEMB      126             0.0000000000
     14459       126  SAPC      O13           -17.6992747708      -15.4384814247      -17.5262367469  MEMB      126             0.0000000000
     14460       126  SAPC      O14           -16.9127118836      -13.0649754925      -18.0347037500  MEMB      126             0.0000000000
     14461       126  SAPC      O12           -18.6008329407      -14.1753323333      -19.5076048472  MEMB      126             0.0000000000
     14462       126  SAPC      O11           -19.2349842293      -13.6913673191      -17.1352904775  MEMB      126             0.0000000000
     14463       126  SAPC      C1            -19.9685599535      -12.5471575956      -17.4531306602  MEMB      126             0.0000000000
     14464       126  SAPC      HA            -19.2043684856      -11.7614784158      -17.3352210102  MEMB      126             0.0000000000
     14465       126  SAPC      HB            -20.2901167986      -12.5762376881      -18.5356208114  MEMB      126             0.0000000000
     14466       126  SAPC      C2            -21.2381238076      -12.1841337357      -16.5379124319  MEMB      126             0.0000000000
     14467       126  SAPC      HS            -21.8417498883      -11.3182326538      -16.8544352286  MEMB      126             0.0000000000
     14468       126  SAPC      O21           -20.9455280748      -11.9925918673      -15.1471521523  MEMB      126             0.0000000000
     14469       126  SAPC      C21           -21.7813188176      -11.2856063851      -14.3700533782  MEMB      126             0.0000000000
     14470       126  SAPC      O22           -22.8419226039      -10.7842455864      -14.6520366101  MEMB      126             0.0000000000
     14471       126  SAPC      C22           -21.1306928506      -11.1879901591      -13.0325641086  MEMB      126             0.0000000000
     14472       126  SAPC      H2R           -21.2149695274      -12.2178396224      -12.6711488166  MEMB      126             0.0000000000
     14473       126  SAPC      H2S           -20.0624238627      -11.0534054479      -13.1401231314  MEMB      126             0.0000000000
     14474       126  SAPC      C3            -22.2427156668      -13.1964545202      -16.6889894626  MEMB      126             0.0000000000
     14475       126  SAPC      HX            -22.1951373460      -13.3708618433      -17.8015738364  MEMB      126             0.0000000000
     14476       126  SAPC      HY            -23.2109288152      -12.7713770182      -16.3136207341  MEMB      126             0.0000000000
     14477       126  SAPC      O31           -21.7806006991      -14.2759611308      -15.9459880393  MEMB      126             0.0000000000
     14478       126  SAPC      C31           -22.3495676555      -15.3502623885      -16.3183446143  MEMB      126             0.0000000000
     14479       126  SAPC      O32           -23.3126228402      -15.4380671062      -17.0613413627  MEMB      126             0.0000000000
     14480       126  SAPC      C32           -21.4640847597      -16.4636375189      -15.8341939765  MEMB      126             0.0000000000
     14481       126  SAPC      H2X           -20.7790409285      -16.7066111098      -16.6758496752  MEMB      126             0.0000000000
     14482       126  SAPC      H2Y           -22.1593707364      -17.2994243626      -15.6416301645  MEMB      126             0.0000000000
     14483       126  SAPC      C23           -21.7866046437      -10.1776052700      -12.0773917707  MEMB      126             0.0000000000
     14484       126  SAPC      H3R           -22.8402501203      -10.5116257349      -11.9657202632  MEMB      126             0.0000000000
     14485       126  SAPC      H3S           -21.7751754189       -9.1330710756      -12.4734282569  MEMB      126             0.0000000000
     14486       126  SAPC      C24           -21.0751198974      -10.0811773825      -10.7215555974  MEMB      126             0.0000000000
     14487       126  SAPC      H4R           -21.5720709124       -9.2824531799      -10.1251073724  MEMB      126             0.0000000000
     14488       126  SAPC      H4S           -20.0546543350       -9.7240203884      -10.9348889479  MEMB      126             0.0000000000
     14489       126  SAPC      C25           -20.8405594617      -11.3146030056       -9.9111404914  MEMB      126             0.0000000000
     14490       126  SAPC      H5R           -20.2676305017      -12.1166907071      -10.3896303242  MEMB      126             0.0000000000
     14491       126  SAPC      C26           -21.3710051570      -11.5483692488       -8.7145603025  MEMB      126             0.0000000000
     14492       126  SAPC      H6R           -21.2762192058      -12.5438207177       -8.2617289264  MEMB      126             0.0000000000
     14493       126  SAPC      C27           -22.3208621683      -10.6734235407       -7.9396261959  MEMB      126             0.0000000000
     14494       126  SAPC      H7R           -22.2048443875       -9.5914755761       -8.0664066322  MEMB      126             0.0000000000
     14495       126  SAPC      H7S           -22.4070786184      -10.9417020736       -6.8559581717  MEMB      126             0.0000000000
     14496       126  SAPC      C28           -23.6199903131      -10.9815012319       -8.5171184478  MEMB      126             0.0000000000
     14497       126  SAPC      H8R           -24.0463328120      -10.3376035343       -9.2933112492  MEMB      126             0.0000000000
     14498       126  SAPC      C29           -24.0755632504      -12.1890564458       -8.5078786992  MEMB      126             0.0000000000
     14499       126  SAPC      H9R           -25.0343584730      -12.2261748666       -8.0459514480  MEMB      126             0.0000000000
     14500       126  SAPC      C210          -23.5681188888      -13.4203673454       -8.0254420329  MEMB      126             0.0000000000
     14501       126  SAPC      H10R          -22.6588656048      -13.7549445261       -8.4869868546  MEMB      126             0.0000000000
     14502       126  SAPC      H10S          -24.1833410839      -14.0689395633       -8.6991920054  MEMB      126             0.0000000000
     14503       126  SAPC      C211          -23.7306947821      -13.4421060375       -6.4956301125  MEMB      126             0.0000000000
     14504       126  SAPC      H11R          -24.4050992218      -12.6931096863       -6.0000867797  MEMB      126             0.0000000000
     14505       126  SAPC      C212          -23.6271859433      -14.6334817366       -5.9125611027  MEMB      126             0.0000000000
     14506       126  SAPC      H12R          -23.9042783651      -14.7901141928       -4.8608412659  MEMB      126             0.0000000000
     14507       126  SAPC      C213          -23.3447994301      -15.8652327787       -6.7259380433  MEMB      126             0.0000000000
     14508       126  SAPC      H13R          -23.7271311069      -15.8574562074       -7.7730620841  MEMB      126             0.0000000000
     14509       126  SAPC      H13S          -23.7874372824      -16.7578456505       -6.2449057415  MEMB      126             0.0000000000
     14510       126  SAPC      C214          -21.8542350367      -15.8448865801       -6.7410937717  MEMB      126             0.0000000000
     14511       126  SAPC      H14R          -21.4102606920      -15.2385230166       -7.5480017014  MEMB      126             0.0000000000
     14512       126  SAPC      C215          -21.0867264881      -16.3927468251       -5.7993246844  MEMB      126             0.0000000000
     14513       126  SAPC      H15R          -20.0061915641      -16.2191367263       -5.8753455955  MEMB      126             0.0000000000
     14514       126  SAPC      C216          -21.5866198166      -17.1301886136       -4.5696118451  MEMB      126             0.0000000000
     14515       126  SAPC      H16R          -21.3371399815      -18.2033715990       -4.7229464125  MEMB      126             0.0000000000
     14516       126  SAPC      H16S          -22.6818614871      -17.0465768321       -4.4104467668  MEMB      126             0.0000000000
     14517       126  SAPC      C217          -20.8863922358      -16.7522628346       -3.2569623799  MEMB      126             0.0000000000
     14518       126  SAPC      H17R          -19.9762024159      -16.2392824467       -3.6102450234  MEMB      126             0.0000000000
     14519       126  SAPC      H17S          -20.6052237660      -17.6775868285       -2.7009830103  MEMB      126             0.0000000000
     14520       126  SAPC      C218          -21.6134644922      -15.8650664519       -2.2391585448  MEMB      126             0.0000000000
     14521       126  SAPC      H18R          -21.9004993589      -14.8853190142       -2.6750262168  MEMB      126             0.0000000000
     14522       126  SAPC      H18S          -20.9268184231      -15.6255132189       -1.3968441134  MEMB      126             0.0000000000
     14523       126  SAPC      C219          -22.7736764320      -16.5937172328       -1.5916030968  MEMB      126             0.0000000000
     14524       126  SAPC      H19R          -22.4066880915      -17.4107886091       -0.9271032400  MEMB      126             0.0000000000
     14525       126  SAPC      H19S          -23.4312327981      -17.0299466824       -2.3705942606  MEMB      126             0.0000000000
     14526       126  SAPC      C220          -23.6273162286      -15.6389675651       -0.8301181091  MEMB      126             0.0000000000
     14527       126  SAPC      H20R          -24.4805139304      -16.1885853881       -0.3735074011  MEMB      126             0.0000000000
     14528       126  SAPC      H20S          -24.0770296161      -14.9140670997       -1.5335087728  MEMB      126             0.0000000000
     14529       126  SAPC      H20T          -23.0554074819      -15.0586083754       -0.0622444223  MEMB      126             0.0000000000
     14530       126  SAPC      C33           -20.6985338524      -16.0679022583      -14.5313261334  MEMB      126             0.0000000000
     14531       126  SAPC      H3X           -21.3869003954      -15.4367622847      -13.9203504053  MEMB      126             0.0000000000
     14532       126  SAPC      H3Y           -19.7707415111      -15.4920924586      -14.7457382992  MEMB      126             0.0000000000
     14533       126  SAPC      C34           -20.4262362266      -17.2731948060      -13.6436773906  MEMB      126             0.0000000000
     14534       126  SAPC      H4X           -19.7078184307      -17.9526248628      -14.1666301333  MEMB      126             0.0000000000
     14535       126  SAPC      H4Y           -21.4591172453      -17.6720055453      -13.5553757637  MEMB      126             0.0000000000
     14536       126  SAPC      C35           -20.0843958730      -17.0773017618      -12.1674867349  MEMB      126             0.0000000000
     14537       126  SAPC      H5X           -20.0105193075      -18.0576851097      -11.6372614679  MEMB      126             0.0000000000
     14538       126  SAPC      H5Y           -20.9035187455      -16.4930263242      -11.6923629839  MEMB      126             0.0000000000
     14539       126  SAPC      C36           -18.7668460003      -16.3512739624      -12.0486557660  MEMB      126             0.0000000000
     14540       126  SAPC      H6X           -18.8435440810      -15.4641464906      -12.7155201815  MEMB      126             0.0000000000
     14541       126  SAPC      H6Y           -17.9801962010      -17.0279106149      -12.4561405708  MEMB      126             0.0000000000
     14542       126  SAPC      C37           -18.4127277068      -15.8741149817      -10.6412278408  MEMB      126             0.0000000000
     14543       126  SAPC      H7X           -18.3762833937      -16.7581772246       -9.9683581223  MEMB      126             0.0000000000
     14544       126  SAPC      H7Y           -19.2099550364      -15.1870832976      -10.2728531831  MEMB      126             0.0000000000
     14545       126  SAPC      C38           -17.0850065531      -15.0938630658      -10.6616128991  MEMB      126             0.0000000000
     14546       126  SAPC      H8X           -17.2514286448      -14.1517739177      -11.2310641763  MEMB      126             0.0000000000
     14547       126  SAPC      H8Y           -16.3317201855      -15.6909595381      -11.2207189511  MEMB      126             0.0000000000
     14548       126  SAPC      C39           -16.5237034354      -14.6384227323       -9.3049079699  MEMB      126             0.0000000000
     14549       126  SAPC      H9X           -15.6483316745      -13.9765270217       -9.3939592513  MEMB      126             0.0000000000
     14550       126  SAPC      H9Y           -16.0160217969      -15.3768579050       -8.7602084938  MEMB      126             0.0000000000
     14551       126  SAPC      C310          -17.5384927982      -14.3210179431       -8.2143708616  MEMB      126             0.0000000000
     14552       126  SAPC      H10X          -18.1985959994      -15.2030582459       -8.0257619586  MEMB      126             0.0000000000
     14553       126  SAPC      H10Y          -18.1420401029      -13.4879314488       -8.6077711301  MEMB      126             0.0000000000
     14554       126  SAPC      C311          -16.8495744717      -13.9551746246       -6.8853735065  MEMB      126             0.0000000000
     14555       126  SAPC      H11X          -16.2438537908      -13.0385118031       -7.0641571149  MEMB      126             0.0000000000
     14556       126  SAPC      H11Y          -16.1685060278      -14.7704114799       -6.5482007977  MEMB      126             0.0000000000
     14557       126  SAPC      C312          -17.8316805300      -13.6984847882       -5.7359063235  MEMB      126             0.0000000000
     14558       126  SAPC      H12X          -17.2614990086      -13.4253131311       -4.8213544665  MEMB      126             0.0000000000
     14559       126  SAPC      H12Y          -18.3726582770      -14.6491397325       -5.5332819065  MEMB      126             0.0000000000
     14560       126  SAPC      C313          -18.7463514696      -12.5128540802       -6.0561259933  MEMB      126             0.0000000000
     14561       126  SAPC      H13X          -19.1875395358      -12.6645253809       -7.0653993124  MEMB      126             0.0000000000
     14562       126  SAPC      H13Y          -18.0891666131      -11.6134939087       -6.0974181241  MEMB      126             0.0000000000
     14563       126  SAPC      C314          -19.9316180511      -12.2536480051       -5.1118143132  MEMB      126             0.0000000000
     14564       126  SAPC      H14X          -20.6727013158      -13.0771177482       -5.2067715392  MEMB      126             0.0000000000
     14565       126  SAPC      H14Y          -20.4352985030      -11.3221176248       -5.4631168911  MEMB      126             0.0000000000
     14566       126  SAPC      C315          -19.6028760608      -12.0449178849       -3.6315099342  MEMB      126             0.0000000000
     14567       126  SAPC      H15X          -18.7703856852      -11.3104309296       -3.5228581901  MEMB      126             0.0000000000
     14568       126  SAPC      H15Y          -19.3153243374      -12.9967209265       -3.1463638745  MEMB      126             0.0000000000
     14569       126  SAPC      C316          -20.8028683919      -11.4933632951       -2.8720097868  MEMB      126             0.0000000000
     14570       126  SAPC      H16X          -21.6589875752      -12.1920306280       -2.8245088800  MEMB      126             0.0000000000
     14571       126  SAPC      H16Y          -21.1884908789      -10.7262972701       -3.5432190125  MEMB      126             0.0000000000
     14572       126  SAPC      C317          -20.3842448812      -10.9935407736       -1.4793403560  MEMB      126             0.0000000000
     14573       126  SAPC      H17X          -19.8685348929      -10.0168359036       -1.5406288205  MEMB      126             0.0000000000
     14574       126  SAPC      H17Y          -19.6321963067      -11.7141930562       -1.0866708901  MEMB      126             0.0000000000
     14575       126  SAPC      C318          -21.5345971257      -10.8800312119       -0.4899848699  MEMB      126             0.0000000000
     14576       126  SAPC      H18X          -22.3382719407      -10.1986715314       -0.8466143936  MEMB      126             0.0000000000
     14577       126  SAPC      H18Y          -21.1955379869      -10.5275690650        0.5090982866  MEMB      126             0.0000000000
     14578       126  SAPC      H18Z          -21.9511023085      -11.9021261122       -0.3902960615  MEMB      126             0.0000000000
     14579       127  CHL1      C3              5.8492849920       23.7012290274      -17.3969782799  MEMB      127             0.0000000000
     14580       127  CHL1      H3              6.2051508272       24.7577386696      -17.4530964080  MEMB      127             0.0000000000
     14581       127  CHL1      O3              5.7638039861       23.1310538163      -18.6954736635  MEMB      127             0.0000000000
     14582       127  CHL1      H3'             5.0758381113       23.6434053540      -19.1355695889  MEMB      127             0.0000000000
     14583       127  CHL1      C4              6.8933424377       22.9318424735      -16.6077513533  MEMB      127             0.0000000000
     14584       127  CHL1      H4A             6.6790323882       21.8392674666      -16.7058924746  MEMB      127             0.0000000000
     14585       127  CHL1      H4B             7.8600892492       23.1046699923      -17.1204495213  MEMB      127             0.0000000000
     14586       127  CHL1      C5              6.9152014844       23.4308389939      -15.1751827852  MEMB      127             0.0000000000
     14587       127  CHL1      C6              7.9773054847       23.9865402630      -14.5966117513  MEMB      127             0.0000000000
     14588       127  CHL1      H6              8.9136987533       24.1715835194      -15.1498703699  MEMB      127             0.0000000000
     14589       127  CHL1      C7              7.9251895327       24.3280163024      -13.1437610067  MEMB      127             0.0000000000
     14590       127  CHL1      H7A             8.9207316002       24.1379826908      -12.6872576900  MEMB      127             0.0000000000
     14591       127  CHL1      H7B             7.6195317489       25.3817859238      -13.0925846754  MEMB      127             0.0000000000
     14592       127  CHL1      C8              6.7645519495       23.7565009433      -12.2880892120  MEMB      127             0.0000000000
     14593       127  CHL1      H8              6.9806990002       22.6855199090      -12.1185272556  MEMB      127             0.0000000000
     14594       127  CHL1      C14             6.5957370777       24.4275329871      -10.9460802568  MEMB      127             0.0000000000
     14595       127  CHL1      H14             6.4427868226       25.5417056498      -11.0601695589  MEMB      127             0.0000000000
     14596       127  CHL1      C15             7.7968891000       24.1413001743      -10.1449843154  MEMB      127             0.0000000000
     14597       127  CHL1      H15A            8.2729154773       23.1711253390      -10.3695341683  MEMB      127             0.0000000000
     14598       127  CHL1      H15B            8.4363758846       25.0220980684      -10.1505045794  MEMB      127             0.0000000000
     14599       127  CHL1      C16             7.2891987078       23.9934989971       -8.7553743070  MEMB      127             0.0000000000
     14600       127  CHL1      H16A            7.5914467254       23.7844134872       -7.7352851373  MEMB      127             0.0000000000
     14601       127  CHL1      H16B            8.3911188525       24.0959555873       -8.5963142433  MEMB      127             0.0000000000
     14602       127  CHL1      C17             5.8500830873       24.6722448274       -8.7264469734  MEMB      127             0.0000000000
     14603       127  CHL1      H17             5.6221486840       25.7329100571       -9.0037624704  MEMB      127             0.0000000000
     14604       127  CHL1      C13             5.4742634804       23.9573429142      -10.0149275150  MEMB      127             0.0000000000
     14605       127  CHL1      C18             5.6298991351       22.4459080584       -9.6295567847  MEMB      127             0.0000000000
     14606       127  CHL1      H18A            5.6841527006       21.8623110683      -10.5485012303  MEMB      127             0.0000000000
     14607       127  CHL1      H18B            6.5050448887       22.0517888676       -9.0761502807  MEMB      127             0.0000000000
     14608       127  CHL1      H18C            4.8055717637       22.1490338288       -8.9638007679  MEMB      127             0.0000000000
     14609       127  CHL1      C12             4.2129799569       24.3263753628      -10.7890002050  MEMB      127             0.0000000000
     14610       127  CHL1      H12A            3.3225353826       24.0387541286      -10.2146584528  MEMB      127             0.0000000000
     14611       127  CHL1      H12B            4.1814248963       25.4267539627      -10.9645309065  MEMB      127             0.0000000000
     14612       127  CHL1      C11             4.2583118257       23.6193468493      -12.1616767919  MEMB      127             0.0000000000
     14613       127  CHL1      H11A            4.2663066039       22.5294579515      -11.9681135451  MEMB      127             0.0000000000
     14614       127  CHL1      H11B            3.3473169057       23.8534485427      -12.7339913209  MEMB      127             0.0000000000
     14615       127  CHL1      C9              5.5000857372       23.9845611982      -13.0237551330  MEMB      127             0.0000000000
     14616       127  CHL1      H9              5.4541921926       25.0995208233      -13.1524472754  MEMB      127             0.0000000000
     14617       127  CHL1      C10             5.5719661049       23.3551515238      -14.4348962935  MEMB      127             0.0000000000
     14618       127  CHL1      C19             5.2651052288       21.8618436140      -14.3602095285  MEMB      127             0.0000000000
     14619       127  CHL1      H19A            5.3119401812       21.3161434505      -15.3187436288  MEMB      127             0.0000000000
     14620       127  CHL1      H19B            5.9634813516       21.3654203283      -13.6473288104  MEMB      127             0.0000000000
     14621       127  CHL1      H19C            4.2185768906       21.7244055418      -14.0266602383  MEMB      127             0.0000000000
     14622       127  CHL1      C1              4.5415789943       24.1324814157      -15.2700568005  MEMB      127             0.0000000000
     14623       127  CHL1      H1A             3.5400405414       24.0365161649      -14.8026343089  MEMB      127             0.0000000000
     14624       127  CHL1      H1B             4.8350554571       25.2062857491      -15.1940662963  MEMB      127             0.0000000000
     14625       127  CHL1      C2              4.4743936896       23.6631662576      -16.7259985807  MEMB      127             0.0000000000
     14626       127  CHL1      H2A             3.7763773398       24.2962481319      -17.3100899471  MEMB      127             0.0000000000
     14627       127  CHL1      H2B             4.0964917595       22.6165733372      -16.7359755438  MEMB      127             0.0000000000
     14628       127  CHL1      C20             5.1075360539       24.4267233087       -7.3900355399  MEMB      127             0.0000000000
     14629       127  CHL1      H20             5.4316742414       23.4205667423       -7.0558415681  MEMB      127             0.0000000000
     14630       127  CHL1      C21             3.5931122522       24.4302530534       -7.5380941012  MEMB      127             0.0000000000
     14631       127  CHL1      H21A            3.2374366459       25.3931975642       -7.9619782081  MEMB      127             0.0000000000
     14632       127  CHL1      H21B            3.1235884406       24.2649870594       -6.5413372972  MEMB      127             0.0000000000
     14633       127  CHL1      H21C            3.3169242978       23.5863859050       -8.1774943636  MEMB      127             0.0000000000
     14634       127  CHL1      C22             5.3426316774       25.3425447279       -6.1787450341  MEMB      127             0.0000000000
     14635       127  CHL1      H22A            6.3029938035       25.8078415467       -6.0501986969  MEMB      127             0.0000000000
     14636       127  CHL1      H22B            4.6546765435       26.2162079461       -6.1419182808  MEMB      127             0.0000000000
     14637       127  CHL1      C23             5.4715471495       24.5600477658       -4.8951038784  MEMB      127             0.0000000000
     14638       127  CHL1      H23A            4.5211309018       24.0432797962       -4.6795135210  MEMB      127             0.0000000000
     14639       127  CHL1      H23B            6.3299160513       23.8613383649       -4.9747205967  MEMB      127             0.0000000000
     14640       127  CHL1      C24             5.8296827174       25.5433092516       -3.8330000150  MEMB      127             0.0000000000
     14641       127  CHL1      H24A            6.7526944675       26.1297259346       -4.0516803001  MEMB      127             0.0000000000
     14642       127  CHL1      H24B            5.0176990705       26.2708588912       -3.9695677342  MEMB      127             0.0000000000
     14643       127  CHL1      C25             6.0588072176       24.9722947709       -2.4390325826  MEMB      127             0.0000000000
     14644       127  CHL1      H25             6.8863446105       24.2564831271       -2.4569096674  MEMB      127             0.0000000000
     14645       127  CHL1      C26             6.5133557024       26.2056147800       -1.7206473824  MEMB      127             0.0000000000
     14646       127  CHL1      H26A            6.2930598024       26.4172510919       -0.6787814834  MEMB      127             0.0000000000
     14647       127  CHL1      H26B            7.4742401681       26.6959029382       -1.8913396191  MEMB      127             0.0000000000
     14648       127  CHL1      H26C            5.6785626432       26.6309318616       -1.2288895298  MEMB      127             0.0000000000
     14649       127  CHL1      C27             4.8887052396       24.2407714647       -1.7610853682  MEMB      127             0.0000000000
     14650       127  CHL1      H27A            4.2823976523       25.0678561977       -1.4440212657  MEMB      127             0.0000000000
     14651       127  CHL1      H27B            4.3447401575       23.5280820827       -2.4145854604  MEMB      127             0.0000000000
     14652       127  CHL1      H27C            4.8720965877       23.8773349100       -0.7313559597  MEMB      127             0.0000000000
     14653       128  SAPS      N              16.4729287537      -17.5945976252      -22.0178164775  MEMB      128             0.0000000000
     14654       128  SAPS      HN1            15.5035001154      -17.4230622353      -21.6864681184  MEMB      128             0.0000000000
     14655       128  SAPS      HN2            16.8174099935      -16.9147339636      -22.7380869278  MEMB      128             0.0000000000
     14656       128  SAPS      HN3            16.5572777051      -18.5479758594      -22.4300699345  MEMB      128             0.0000000000
     14657       128  SAPS      C12            17.4485604549      -17.4256550357      -20.8831773662  MEMB      128             0.0000000000
     14658       128  SAPS      H12A           17.1932334503      -18.1238838269      -20.0979636284  MEMB      128             0.0000000000
     14659       128  SAPS      C13            18.8984554019      -17.6982627042      -21.3837494715  MEMB      128             0.0000000000
     14660       128  SAPS      O13A           19.0198108654      -17.9745378015      -22.6103312446  MEMB      128             0.0000000000
     14661       128  SAPS      O13B           19.8845807736      -17.6602907917      -20.6151815541  MEMB      128             0.0000000000
     14662       128  SAPS      C11            17.2840556817      -15.9582049794      -20.4002054190  MEMB      128             0.0000000000
     14663       128  SAPS      H11A           16.2127058416      -15.7701641045      -20.1551561666  MEMB      128             0.0000000000
     14664       128  SAPS      H11B           17.5641291798      -15.2957291578      -21.2449780426  MEMB      128             0.0000000000
     14665       128  SAPS      P              18.1321381603      -14.3554051638      -18.4545924030  MEMB      128             0.0000000000
     14666       128  SAPS      O13            19.0813351319      -14.4813446455      -17.3418394062  MEMB      128             0.0000000000
     14667       128  SAPS      O14            18.2544274784      -13.1647435318      -19.3228356455  MEMB      128             0.0000000000
     14668       128  SAPS      O12            18.1170190824      -15.7058818602      -19.2792275513  MEMB      128             0.0000000000
     14669       128  SAPS      O11            16.6867728930      -14.3672360931      -17.8180072004  MEMB      128             0.0000000000
     14670       128  SAPS      C1             16.3746565402      -15.1313631484      -16.6510336793  MEMB      128             0.0000000000
     14671       128  SAPS      HA             15.4031684487      -15.6107458155      -16.8634673577  MEMB      128             0.0000000000
     14672       128  SAPS      HB             17.1022370252      -15.9541886110      -16.4502995746  MEMB      128             0.0000000000
     14673       128  SAPS      C2             16.1778724869      -14.2284393281      -15.3891396724  MEMB      128             0.0000000000
     14674       128  SAPS      HS             15.4141602127      -13.4742331301      -15.6930428936  MEMB      128             0.0000000000
     14675       128  SAPS      O21            17.4277132886      -13.5941252362      -15.0676102193  MEMB      128             0.0000000000
     14676       128  SAPS      C21            17.3783268884      -12.6609160813      -14.1547345090  MEMB      128             0.0000000000
     14677       128  SAPS      O22            16.3847673681      -12.2797438204      -13.5556403657  MEMB      128             0.0000000000
     14678       128  SAPS      C22            18.7515317901      -12.1165036131      -13.9168895464  MEMB      128             0.0000000000
     14679       128  SAPS      H2R            19.5245533621      -12.6548453822      -14.4958700989  MEMB      128             0.0000000000
     14680       128  SAPS      H2S            18.7788806139      -11.0435196336      -14.1910087863  MEMB      128             0.0000000000
     14681       128  SAPS      C3             15.6410685614      -15.0126087783      -14.1501116534  MEMB      128             0.0000000000
     14682       128  SAPS      HX             14.6277488818      -15.3918403352      -14.4417417201  MEMB      128             0.0000000000
     14683       128  SAPS      HY             15.4204373360      -14.3683379678      -13.2747076934  MEMB      128             0.0000000000
     14684       128  SAPS      O31            16.5199566954      -16.1162201753      -13.8245395713  MEMB      128             0.0000000000
     14685       128  SAPS      C31            17.5420439570      -16.0465722623      -12.9938814182  MEMB      128             0.0000000000
     14686       128  SAPS      O32            17.8705245050      -15.0732042495      -12.3563042240  MEMB      128             0.0000000000
     14687       128  SAPS      C32            18.1903846799      -17.4530629833      -12.8353547769  MEMB      128             0.0000000000
     14688       128  SAPS      H2X            18.0736914672      -18.0149556493      -13.7874760656  MEMB      128             0.0000000000
     14689       128  SAPS      H2Y            17.6610264189      -18.0013459698      -12.0293862463  MEMB      128             0.0000000000
     14690       128  SAPS      C23            18.9106439561      -12.2943641080      -12.4231109801  MEMB      128             0.0000000000
     14691       128  SAPS      H3R            19.1324814091      -13.3070604279      -12.0538094129  MEMB      128             0.0000000000
     14692       128  SAPS      H3S            18.1590327282      -11.7453166182      -11.8124416466  MEMB      128             0.0000000000
     14693       128  SAPS      C24            20.0160169643      -11.5767098868      -11.8606028226  MEMB      128             0.0000000000
     14694       128  SAPS      H4R            20.0074820213      -11.6335345293      -10.8531810990  MEMB      128             0.0000000000
     14695       128  SAPS      H4S            20.1638004985      -10.6271754866      -12.4450584479  MEMB      128             0.0000000000
     14696       128  SAPS      C25            21.3104277283      -12.1180848350      -12.1736960344  MEMB      128             0.0000000000
     14697       128  SAPS      H5R            21.1806106016      -11.9015595253      -13.1949818137  MEMB      128             0.0000000000
     14698       128  SAPS      C26            22.2903067148      -12.8370210349      -11.4455295570  MEMB      128             0.0000000000
     14699       128  SAPS      H6R            23.2949051739      -13.1717781078      -11.8678590919  MEMB      128             0.0000000000
     14700       128  SAPS      C27            22.2885441137      -13.7160245582      -10.3452251749  MEMB      128             0.0000000000
     14701       128  SAPS      H7R            22.4359155745      -12.7904746773      -10.1437169031  MEMB      128             0.0000000000
     14702       128  SAPS      H7S            23.3215931845      -14.0215991779       -9.9357791031  MEMB      128             0.0000000000
     14703       128  SAPS      C28            21.0516882225      -14.3860279908      -10.0362752258  MEMB      128             0.0000000000
     14704       128  SAPS      H8R            21.0460072079      -15.1382349347      -10.8533164014  MEMB      128             0.0000000000
     14705       128  SAPS      C29            19.8967467697      -13.9317837557       -9.5282963705  MEMB      128             0.0000000000
     14706       128  SAPS      H9R            19.1708646668      -14.7043422973       -9.4049247993  MEMB      128             0.0000000000
     14707       128  SAPS      C210           19.4585267774      -12.7210633398       -8.7267167105  MEMB      128             0.0000000000
     14708       128  SAPS      H10R           18.4794346233      -12.3773422404       -9.1957191901  MEMB      128             0.0000000000
     14709       128  SAPS      H10S           19.9399386900      -11.7744961803       -9.0014768362  MEMB      128             0.0000000000
     14710       128  SAPS      C211           19.3284825647      -12.9631034294       -7.2737634681  MEMB      128             0.0000000000
     14711       128  SAPS      H11R           20.2112772406      -12.8176528379       -6.6417933743  MEMB      128             0.0000000000
     14712       128  SAPS      C212           18.2252913331      -13.3244921864       -6.6561248784  MEMB      128             0.0000000000
     14713       128  SAPS      H12R           18.2291932928      -13.4531426783       -5.5643521938  MEMB      128             0.0000000000
     14714       128  SAPS      C213           16.9464588852      -13.5220555076       -7.3852344179  MEMB      128             0.0000000000
     14715       128  SAPS      H13R           16.6638078193      -14.5730522648       -7.2119444488  MEMB      128             0.0000000000
     14716       128  SAPS      H13S           17.0198968732      -13.3963126838       -8.4850240932  MEMB      128             0.0000000000
     14717       128  SAPS      C214           15.9950721577      -12.5121309487       -6.8516170185  MEMB      128             0.0000000000
     14718       128  SAPS      H14R           16.1818345140      -11.4870079928       -7.1986251192  MEMB      128             0.0000000000
     14719       128  SAPS      C215           14.9959794978      -12.7303131116       -5.9988528782  MEMB      128             0.0000000000
     14720       128  SAPS      H15R           14.4769949780      -11.8448209996       -5.6320801094  MEMB      128             0.0000000000
     14721       128  SAPS      C216           14.5556402455      -14.0197534839       -5.3546970478  MEMB      128             0.0000000000
     14722       128  SAPS      H16R           15.0689268657      -14.8973347950       -5.8006479343  MEMB      128             0.0000000000
     14723       128  SAPS      H16S           13.4558961090      -14.1614031548       -5.4647668979  MEMB      128             0.0000000000
     14724       128  SAPS      C217           14.9369132405      -13.9727030020       -3.8774975191  MEMB      128             0.0000000000
     14725       128  SAPS      H17R           16.0409298332      -13.8795974583       -3.8601372730  MEMB      128             0.0000000000
     14726       128  SAPS      H17S           14.6832572498      -14.9179407091       -3.3363941156  MEMB      128             0.0000000000
     14727       128  SAPS      C218           14.3012148796      -12.8096615958       -3.1115148907  MEMB      128             0.0000000000
     14728       128  SAPS      H18R           13.2205810352      -12.9078641540       -3.2236448904  MEMB      128             0.0000000000
     14729       128  SAPS      H18S           14.5651937345      -11.8002391610       -3.4799969730  MEMB      128             0.0000000000
     14730       128  SAPS      C219           14.7571893478      -12.8348388661       -1.6853401544  MEMB      128             0.0000000000
     14731       128  SAPS      H19R           14.9939420257      -13.9052392019       -1.4686865943  MEMB      128             0.0000000000
     14732       128  SAPS      H19S           13.9584775949      -12.5300272758       -0.9631384344  MEMB      128             0.0000000000
     14733       128  SAPS      C220           15.9661977227      -11.9039944147       -1.5349450443  MEMB      128             0.0000000000
     14734       128  SAPS      H20R           16.5359171464      -11.7961852152       -2.4600020873  MEMB      128             0.0000000000
     14735       128  SAPS      H20S           16.8058091781      -12.2686813471       -0.9253375711  MEMB      128             0.0000000000
     14736       128  SAPS      H20T           15.6355316284      -10.9642509828       -1.0580555547  MEMB      128             0.0000000000
     14737       128  SAPS      C33            19.6716980142      -17.3548940861      -12.4254861859  MEMB      128             0.0000000000
     14738       128  SAPS      H3X            19.7963330730      -16.5673909057      -11.6551797580  MEMB      128             0.0000000000
     14739       128  SAPS      H3Y            20.2094174305      -17.0336856860      -13.3398942389  MEMB      128             0.0000000000
     14740       128  SAPS      C34            20.3704517197      -18.6392621560      -11.9473260130  MEMB      128             0.0000000000
     14741       128  SAPS      H4X            21.4682251904      -18.4997811052      -12.0162610033  MEMB      128             0.0000000000
     14742       128  SAPS      H4Y            20.0295537639      -19.5338678318      -12.5060551141  MEMB      128             0.0000000000
     14743       128  SAPS      C35            20.1824442850      -18.9636305742      -10.5072421310  MEMB      128             0.0000000000
     14744       128  SAPS      H5X            20.6396749730      -19.9369110657      -10.1982304594  MEMB      128             0.0000000000
     14745       128  SAPS      H5Y            19.0809712374      -19.0709895221      -10.4920770447  MEMB      128             0.0000000000
     14746       128  SAPS      C36            20.6120184515      -17.8605380590       -9.5292355219  MEMB      128             0.0000000000
     14747       128  SAPS      H6X            19.7241117947      -17.1819586199       -9.4064162381  MEMB      128             0.0000000000
     14748       128  SAPS      H6Y            21.4869550415      -17.3157006699       -9.9007960030  MEMB      128             0.0000000000
     14749       128  SAPS      C37            21.1912897833      -18.2963199938       -8.1763882635  MEMB      128             0.0000000000
     14750       128  SAPS      H7X            21.9173627222      -19.0993521138       -8.0740888838  MEMB      128             0.0000000000
     14751       128  SAPS      H7Y            20.6776631793      -19.1440124901       -7.8638867200  MEMB      128             0.0000000000
     14752       128  SAPS      C38            21.0867785329      -17.2115320803       -7.0931257494  MEMB      128             0.0000000000
     14753       128  SAPS      H8X            20.1237134377      -16.6260943799       -7.1996540711  MEMB      128             0.0000000000
     14754       128  SAPS      H8Y            21.9550223827      -16.5726973725       -7.2721027223  MEMB      128             0.0000000000
     14755       128  SAPS      C39            21.2291671260      -17.7542766801       -5.6635661753  MEMB      128             0.0000000000
     14756       128  SAPS      H9X            21.6293474559      -18.7700181572       -5.5502229069  MEMB      128             0.0000000000
     14757       128  SAPS      H9Y            20.2988174818      -17.8399300165       -5.1212943768  MEMB      128             0.0000000000
     14758       128  SAPS      C310           21.5209750112      -16.7362131028       -4.6989829968  MEMB      128             0.0000000000
     14759       128  SAPS      H10X           22.5188077755      -16.3616573554       -5.0028093582  MEMB      128             0.0000000000
     14760       128  SAPS      H10Y           21.5987739460      -17.3123992056       -3.7360889928  MEMB      128             0.0000000000
     14761       128  SAPS      C311           20.3180569848      -15.6970597850       -4.6409317649  MEMB      128             0.0000000000
     14762       128  SAPS      H11X           19.3533719002      -16.1297426072       -4.3023746435  MEMB      128             0.0000000000
     14763       128  SAPS      H11Y           20.2848498097      -15.0028042163       -5.4970837176  MEMB      128             0.0000000000
     14764       128  SAPS      C312           20.5326428871      -14.9063302654       -3.4365363905  MEMB      128             0.0000000000
     14765       128  SAPS      H12X           21.5616262840      -14.9490377525       -3.7534548366  MEMB      128             0.0000000000
     14766       128  SAPS      H12Y           20.4286577676      -15.6612951699       -2.6792762280  MEMB      128             0.0000000000
     14767       128  SAPS      C313           19.9565094253      -13.5807174894       -2.9263797691  MEMB      128             0.0000000000
     14768       128  SAPS      H13X           19.9348609226      -12.8574827101       -3.7551478300  MEMB      128             0.0000000000
     14769       128  SAPS      H13Y           20.5609541043      -13.0830346830       -2.0924781176  MEMB      128             0.0000000000
     14770       128  SAPS      C314           18.6285049705      -13.6558803398       -2.4445564834  MEMB      128             0.0000000000
     14771       128  SAPS      H14X           18.1545420508      -14.0643030608       -3.3597856049  MEMB      128             0.0000000000
     14772       128  SAPS      H14Y           18.3468127128      -12.6041400485       -2.2452670684  MEMB      128             0.0000000000
     14773       128  SAPS      C315           18.6705276042      -14.5181029397       -1.2163796446  MEMB      128             0.0000000000
     14774       128  SAPS      H15X           19.0611237172      -15.5237844706       -1.4456360177  MEMB      128             0.0000000000
     14775       128  SAPS      H15Y           17.6149042593      -14.6313807777       -1.0145372294  MEMB      128             0.0000000000
     14776       128  SAPS      C316           19.3571276165      -13.8858368213        0.0007697691  MEMB      128             0.0000000000
     14777       128  SAPS      H16X           18.9210315468      -12.8903497657        0.1444408460  MEMB      128             0.0000000000
     14778       128  SAPS      H16Y           20.4599805404      -13.7496315748       -0.1450552870  MEMB      128             0.0000000000
     14779       128  SAPS      C317           19.0390270824      -14.6500940100        1.2781807383  MEMB      128             0.0000000000
     14780       128  SAPS      H17X           19.4810480058      -15.6512229357        1.0793391946  MEMB      128             0.0000000000
     14781       128  SAPS      H17Y           18.0145682588      -14.9871583385        1.4303177689  MEMB      128             0.0000000000
     14782       128  SAPS      C318           19.5539089028      -14.0029736531        2.5891252225  MEMB      128             0.0000000000
     14783       128  SAPS      H18X           19.3042375298      -13.1033995830        3.1218991192  MEMB      128             0.0000000000
     14784       128  SAPS      H18Y           20.5288751203      -13.4826349085        2.4424433112  MEMB      128             0.0000000000
     14785       128  SAPS      H18Z           19.5538771974      -14.8520842154        3.2918339483  MEMB      128             0.0000000000
     14786       129  CHL1      C3             23.0705028445       -7.1837431387      -17.3175730735  MEMB      129             0.0000000000
     14787       129  CHL1      H3             23.4201297311       -6.1661517602      -17.0085628156  MEMB      129             0.0000000000
     14788       129  CHL1      O3             23.4368816744       -7.4261926401      -18.6676989947  MEMB      129             0.0000000000
     14789       129  CHL1      H3'            22.9985746275       -6.7545613123      -19.1819259150  MEMB      129             0.0000000000
     14790       129  CHL1      C4             23.7686478208       -8.2235259890      -16.4395755908  MEMB      129             0.0000000000
     14791       129  CHL1      H4A            23.5592633225       -9.2648001776      -16.7567732042  MEMB      129             0.0000000000
     14792       129  CHL1      H4B            24.8647391311       -8.0616578849      -16.5859729914  MEMB      129             0.0000000000
     14793       129  CHL1      C5             23.3300713615       -8.0190073025      -15.0179107474  MEMB      129             0.0000000000
     14794       129  CHL1      C6             24.2501697776       -7.7898358776      -14.0776962203  MEMB      129             0.0000000000
     14795       129  CHL1      H6             25.3317128026       -7.8983988233      -14.2845749058  MEMB      129             0.0000000000
     14796       129  CHL1      C7             23.8724564346       -7.6588105362      -12.6531686194  MEMB      129             0.0000000000
     14797       129  CHL1      H7A            24.7405559398       -8.0689366536      -12.1064962312  MEMB      129             0.0000000000
     14798       129  CHL1      H7B            23.8500832530       -6.6086980755      -12.3243821467  MEMB      129             0.0000000000
     14799       129  CHL1      C8             22.4432040347       -8.2498700401      -12.3509930917  MEMB      129             0.0000000000
     14800       129  CHL1      H8             22.3257791349       -9.3079133658      -12.6483471348  MEMB      129             0.0000000000
     14801       129  CHL1      C14            22.0780653680       -7.8914954375      -10.8947618786  MEMB      129             0.0000000000
     14802       129  CHL1      H14            22.1258413518       -6.7960527280      -10.9371588512  MEMB      129             0.0000000000
     14803       129  CHL1      C15            23.0251841743       -8.1612317346       -9.7273464354  MEMB      129             0.0000000000
     14804       129  CHL1      H15A           23.0037263698       -9.2250452254       -9.5672977264  MEMB      129             0.0000000000
     14805       129  CHL1      H15B           24.0728962731       -7.8540433720       -9.8109105995  MEMB      129             0.0000000000
     14806       129  CHL1      C16            22.3268371656       -7.8561760352       -8.4554388041  MEMB      129             0.0000000000
     14807       129  CHL1      H16A           22.7410700416       -8.5788978332       -7.7273806376  MEMB      129             0.0000000000
     14808       129  CHL1      H16B           22.6596901079       -6.9310549896       -8.0189541417  MEMB      129             0.0000000000
     14809       129  CHL1      C17            20.8287607981       -7.7570437735       -8.8621437190  MEMB      129             0.0000000000
     14810       129  CHL1      H17            20.6207824138       -6.6856657769       -8.9006114545  MEMB      129             0.0000000000
     14811       129  CHL1      C13            20.6810338933       -8.1224393421      -10.3591269610  MEMB      129             0.0000000000
     14812       129  CHL1      C18            20.3447239476       -9.4809670463      -10.2525832155  MEMB      129             0.0000000000
     14813       129  CHL1      H18A           21.0353830206       -9.8523077753      -10.9866329935  MEMB      129             0.0000000000
     14814       129  CHL1      H18B           20.7520866209       -9.8840915057       -9.3791625678  MEMB      129             0.0000000000
     14815       129  CHL1      H18C           19.3078572100       -9.9114364394      -10.2925778141  MEMB      129             0.0000000000
     14816       129  CHL1      C12            19.7253138076       -7.5340337116      -11.3605552111  MEMB      129             0.0000000000
     14817       129  CHL1      H12A           18.7395410106       -7.9300926477      -11.1941384904  MEMB      129             0.0000000000
     14818       129  CHL1      H12B           19.7872106887       -6.4662421187      -11.1342804769  MEMB      129             0.0000000000
     14819       129  CHL1      C11            19.9608777146       -7.9738576208      -12.8298292070  MEMB      129             0.0000000000
     14820       129  CHL1      H11A           19.5427626809       -8.9794831529      -12.9604407129  MEMB      129             0.0000000000
     14821       129  CHL1      H11B           19.2771753393       -7.4428141706      -13.5003224233  MEMB      129             0.0000000000
     14822       129  CHL1      C9             21.4130921121       -7.7028268662      -13.2981909177  MEMB      129             0.0000000000
     14823       129  CHL1      H9             21.5230202179       -6.6109974018      -13.1490964682  MEMB      129             0.0000000000
     14824       129  CHL1      C10            21.7852976554       -8.0444263063      -14.7725583992  MEMB      129             0.0000000000
     14825       129  CHL1      C19            21.1747644788       -9.4252475775      -15.1699131311  MEMB      129             0.0000000000
     14826       129  CHL1      H19A           21.2252713236      -10.0951688962      -14.3072823587  MEMB      129             0.0000000000
     14827       129  CHL1      H19B           20.0993097077       -9.3941469298      -15.4390046550  MEMB      129             0.0000000000
     14828       129  CHL1      H19C           21.6945258332       -9.9082531577      -16.0272726924  MEMB      129             0.0000000000
     14829       129  CHL1      C1             21.1613300472       -6.9838018198      -15.6871070017  MEMB      129             0.0000000000
     14830       129  CHL1      H1A            20.0604843145       -7.0432660225      -15.5543081439  MEMB      129             0.0000000000
     14831       129  CHL1      H1B            21.4971199095       -5.9677455446      -15.3784155429  MEMB      129             0.0000000000
     14832       129  CHL1      C2             21.5397980879       -7.1951090149      -17.1565837810  MEMB      129             0.0000000000
     14833       129  CHL1      H2A            21.0996640376       -6.3556847470      -17.7272933691  MEMB      129             0.0000000000
     14834       129  CHL1      H2B            21.1158974988       -8.1545622867      -17.5194865784  MEMB      129             0.0000000000
     14835       129  CHL1      C20            19.9172528949       -8.3906968542       -7.8265182998  MEMB      129             0.0000000000
     14836       129  CHL1      H20            19.8223072201       -9.4984851916       -7.8499674473  MEMB      129             0.0000000000
     14837       129  CHL1      C21            18.6088974596       -8.0752775039       -8.1659977070  MEMB      129             0.0000000000
     14838       129  CHL1      H21A           18.3906412386       -8.8920752679       -8.8909735980  MEMB      129             0.0000000000
     14839       129  CHL1      H21B           18.3540593501       -7.1158589072       -8.6279291350  MEMB      129             0.0000000000
     14840       129  CHL1      H21C           17.9643928897       -8.2729251328       -7.2897777166  MEMB      129             0.0000000000
     14841       129  CHL1      C22            20.1334749878       -7.9858643111       -6.4156992276  MEMB      129             0.0000000000
     14842       129  CHL1      H22A           21.1851560742       -8.2316344364       -6.1770597369  MEMB      129             0.0000000000
     14843       129  CHL1      H22B           19.9384490755       -6.8956684608       -6.4500943579  MEMB      129             0.0000000000
     14844       129  CHL1      C23            19.2312975011       -8.6335086190       -5.3661043823  MEMB      129             0.0000000000
     14845       129  CHL1      H23A           18.1894956267       -8.2302749672       -5.4108466835  MEMB      129             0.0000000000
     14846       129  CHL1      H23B           19.1625769024       -9.7389516902       -5.4813778422  MEMB      129             0.0000000000
     14847       129  CHL1      C24            19.8174789206       -8.1878353860       -4.0482563588  MEMB      129             0.0000000000
     14848       129  CHL1      H24A           20.9130710360       -8.3041934139       -4.0343083307  MEMB      129             0.0000000000
     14849       129  CHL1      H24B           19.5642421773       -7.0994648258       -3.9465796313  MEMB      129             0.0000000000
     14850       129  CHL1      C25            19.3060711511       -8.9385601151       -2.8505937858  MEMB      129             0.0000000000
     14851       129  CHL1      H25            19.5496986491       -8.3089649217       -1.9522737537  MEMB      129             0.0000000000
     14852       129  CHL1      C26            17.8647363970       -9.0611811494       -2.9337338980  MEMB      129             0.0000000000
     14853       129  CHL1      H26A           17.7059257701       -7.9912231229       -3.0146078429  MEMB      129             0.0000000000
     14854       129  CHL1      H26B           17.3397654130       -9.6570422888       -3.7040325356  MEMB      129             0.0000000000
     14855       129  CHL1      H26C           17.6434864921       -9.5021132596       -1.9566216605  MEMB      129             0.0000000000
     14856       129  CHL1      C27            19.6316423242      -10.3816299374       -2.6688510000  MEMB      129             0.0000000000
     14857       129  CHL1      H27A           19.1265165866      -10.7691471214       -1.7500065939  MEMB      129             0.0000000000
     14858       129  CHL1      H27B           19.2633002263      -10.9508228301       -3.5316621124  MEMB      129             0.0000000000
     14859       129  CHL1      H27C           20.7024957321      -10.5259200840       -2.5653250522  MEMB      129             0.0000000000
     14860       130  SOPE      N             -22.0120986593       12.1498570421      -22.5553754924  MEMB      130             0.0000000000
     14861       130  SOPE      HN1           -21.1385710472       11.6835494914      -22.2334774983  MEMB      130             0.0000000000
     14862       130  SOPE      HN2           -22.6396124179       11.4460038818      -22.9819907504  MEMB      130             0.0000000000
     14863       130  SOPE      HN3           -21.6819360087       12.8202211738      -23.2733131787  MEMB      130             0.0000000000
     14864       130  SOPE      C12           -22.6098072943       12.9449920191      -21.4141030552  MEMB      130             0.0000000000
     14865       130  SOPE      H12A          -23.2899560739       12.2907754317      -20.8393423703  MEMB      130             0.0000000000
     14866       130  SOPE      H12B          -23.2149619342       13.7594960452      -21.8688155077  MEMB      130             0.0000000000
     14867       130  SOPE      C11           -21.5229997444       13.5758610283      -20.5178003061  MEMB      130             0.0000000000
     14868       130  SOPE      H11A          -21.4188385157       12.9985702445      -19.5642248749  MEMB      130             0.0000000000
     14869       130  SOPE      H11B          -21.8808182505       14.6054043037      -20.2680040955  MEMB      130             0.0000000000
     14870       130  SOPE      P             -19.0420217827       14.4930848586      -20.7574671051  MEMB      130             0.0000000000
     14871       130  SOPE      O13           -19.5759695592       15.8304798701      -20.4210269651  MEMB      130             0.0000000000
     14872       130  SOPE      O14           -18.0246774910       14.3618777566      -21.8115358061  MEMB      130             0.0000000000
     14873       130  SOPE      O12           -20.2815753020       13.6248080683      -21.2172153515  MEMB      130             0.0000000000
     14874       130  SOPE      O11           -18.6044786230       13.7480441726      -19.4348758888  MEMB      130             0.0000000000
     14875       130  SOPE      C1            -17.9762452569       14.3047875667      -18.2744424144  MEMB      130             0.0000000000
     14876       130  SOPE      HA            -17.6404077733       15.3516319898      -18.3785665303  MEMB      130             0.0000000000
     14877       130  SOPE      HB            -17.0644768873       13.6944468076      -18.0618066010  MEMB      130             0.0000000000
     14878       130  SOPE      C2            -18.8830413067       14.3246126137      -17.0042510119  MEMB      130             0.0000000000
     14879       130  SOPE      HS            -18.2478310530       14.4532812906      -16.1051397071  MEMB      130             0.0000000000
     14880       130  SOPE      O21           -19.5440730487       13.1281915808      -16.8551098894  MEMB      130             0.0000000000
     14881       130  SOPE      C21           -18.7376027652       12.1616228637      -16.6989462578  MEMB      130             0.0000000000
     14882       130  SOPE      O22           -17.5491498718       12.1180873216      -16.4511144105  MEMB      130             0.0000000000
     14883       130  SOPE      C22           -19.5550453343       11.0528693072      -16.9219428819  MEMB      130             0.0000000000
     14884       130  SOPE      H2R           -18.9742390829       10.1208310799      -16.7692555237  MEMB      130             0.0000000000
     14885       130  SOPE      H2S           -19.6509747564       11.2205749706      -18.0164565788  MEMB      130             0.0000000000
     14886       130  SOPE      C3            -20.0053165621       15.3685978432      -16.9771250121  MEMB      130             0.0000000000
     14887       130  SOPE      HX            -20.7877253726       15.0655845640      -17.7114324450  MEMB      130             0.0000000000
     14888       130  SOPE      HY            -19.6057324323       16.3404209133      -17.3251733220  MEMB      130             0.0000000000
     14889       130  SOPE      O31           -20.6265922605       15.3959553850      -15.6688396977  MEMB      130             0.0000000000
     14890       130  SOPE      C31           -19.9863198480       15.9815510609      -14.6717139762  MEMB      130             0.0000000000
     14891       130  SOPE      O32           -19.0152617903       16.7044297280      -14.7808838450  MEMB      130             0.0000000000
     14892       130  SOPE      C32           -20.6163569571       15.5557624387      -13.3151325058  MEMB      130             0.0000000000
     14893       130  SOPE      H2X           -20.6451179188       16.4274540800      -12.6339629917  MEMB      130             0.0000000000
     14894       130  SOPE      H2Y           -19.9395158965       14.8075304754      -12.8548817767  MEMB      130             0.0000000000
     14895       130  SOPE      C23           -20.8092913939       11.1639590562      -16.0406141321  MEMB      130             0.0000000000
     14896       130  SOPE      H3R           -21.7156201778       10.7111645870      -16.5307567472  MEMB      130             0.0000000000
     14897       130  SOPE      H3S           -21.3587349905       12.0696862393      -15.7371146148  MEMB      130             0.0000000000
     14898       130  SOPE      C24           -20.3070601720       10.8035682692      -14.6323800870  MEMB      130             0.0000000000
     14899       130  SOPE      H4R           -21.1450289115       10.8053042041      -13.9959311596  MEMB      130             0.0000000000
     14900       130  SOPE      H4S           -20.0378986556        9.8181418324      -14.3743538632  MEMB      130             0.0000000000
     14901       130  SOPE      C25           -18.8723661931       10.8866167209      -14.1770184467  MEMB      130             0.0000000000
     14902       130  SOPE      H5R           -18.1766534326       10.5552116578      -14.9624100322  MEMB      130             0.0000000000
     14903       130  SOPE      H5S           -19.0104737311       11.8501965045      -13.6795801925  MEMB      130             0.0000000000
     14904       130  SOPE      C26           -18.1898439832        9.9731710333      -13.2422937151  MEMB      130             0.0000000000
     14905       130  SOPE      H6R           -17.9719320639        8.8864353148      -13.5667280734  MEMB      130             0.0000000000
     14906       130  SOPE      H6S           -17.3733774467       10.3545974975      -12.6082777094  MEMB      130             0.0000000000
     14907       130  SOPE      C27           -19.0666584785        9.9061822392      -12.2446379624  MEMB      130             0.0000000000
     14908       130  SOPE      H7R           -19.1930630384        8.7500682514      -12.2225448007  MEMB      130             0.0000000000
     14909       130  SOPE      H7S           -18.6312662589        8.9059419352      -11.8861684554  MEMB      130             0.0000000000
     14910       130  SOPE      C28           -20.0099381639       11.1574171124      -11.3394740515  MEMB      130             0.0000000000
     14911       130  SOPE      H8R           -20.7824000124       11.6944415538      -11.8872807356  MEMB      130             0.0000000000
     14912       130  SOPE      H8S           -20.9021856244       10.8495360726      -10.6763113411  MEMB      130             0.0000000000
     14913       130  SOPE      C29           -19.3831538359       12.0177718424      -10.3223938866  MEMB      130             0.0000000000
     14914       130  SOPE      H91           -18.4360820046       12.2114556702      -10.7750127891  MEMB      130             0.0000000000
     14915       130  SOPE      C210          -19.6430862064       12.3553525102       -9.0510400311  MEMB      130             0.0000000000
     14916       130  SOPE      H101          -18.7062576453       12.5408226106       -8.4980003639  MEMB      130             0.0000000000
     14917       130  SOPE      C211          -20.8106257297       11.9304284165       -8.1942032130  MEMB      130             0.0000000000
     14918       130  SOPE      H11R          -21.6896547694       11.6152446985       -8.7941633245  MEMB      130             0.0000000000
     14919       130  SOPE      H11S          -21.0876916058       12.8706443623       -7.6876545013  MEMB      130             0.0000000000
     14920       130  SOPE      C212          -20.7003964796       10.8646483852       -7.1058896202  MEMB      130             0.0000000000
     14921       130  SOPE      H12R          -20.5461387651        9.8539809653       -7.5290701174  MEMB      130             0.0000000000
     14922       130  SOPE      H12S          -21.6531002968       10.7904844711       -6.5448958453  MEMB      130             0.0000000000
     14923       130  SOPE      C213          -19.6862252309       11.2387919305       -6.0630564397  MEMB      130             0.0000000000
     14924       130  SOPE      H13R          -18.6389931958       11.3201579911       -6.4509117862  MEMB      130             0.0000000000
     14925       130  SOPE      H13S          -19.7676871105       10.4017016094       -5.3348122285  MEMB      130             0.0000000000
     14926       130  SOPE      C214          -20.0342239544       12.5192834616       -5.3658593167  MEMB      130             0.0000000000
     14927       130  SOPE      H14R          -21.0840317633       12.4847507360       -5.0203170814  MEMB      130             0.0000000000
     14928       130  SOPE      H14S          -19.7571441033       13.3829987302       -5.9997766956  MEMB      130             0.0000000000
     14929       130  SOPE      C215          -19.2907566880       12.6350798579       -4.1109188657  MEMB      130             0.0000000000
     14930       130  SOPE      H15R          -18.8579988506       13.6531876089       -3.9885135160  MEMB      130             0.0000000000
     14931       130  SOPE      H15S          -18.4185640356       11.9989520990       -4.3498072312  MEMB      130             0.0000000000
     14932       130  SOPE      C216          -20.1916188931       12.1987933746       -2.9134467295  MEMB      130             0.0000000000
     14933       130  SOPE      H16R          -21.0367611056       12.8410597497       -2.7493725400  MEMB      130             0.0000000000
     14934       130  SOPE      H16S          -19.8049293740       12.4498394258       -1.9445741055  MEMB      130             0.0000000000
     14935       130  SOPE      C217          -20.3904727462       10.7219810787       -2.7329327985  MEMB      130             0.0000000000
     14936       130  SOPE      H17R          -20.9016782350       10.2272886410       -3.5710456867  MEMB      130             0.0000000000
     14937       130  SOPE      H17S          -20.6052650265       10.3198608741       -1.7036788416  MEMB      130             0.0000000000
     14938       130  SOPE      C218          -19.1497738562       10.1026119612       -2.8001416552  MEMB      130             0.0000000000
     14939       130  SOPE      H18R          -19.3454270780        9.0381291493       -2.7283343001  MEMB      130             0.0000000000
     14940       130  SOPE      H18S          -18.5428055998       10.2710933605       -1.8811794901  MEMB      130             0.0000000000
     14941       130  SOPE      H18T          -18.4795765266       10.3153140553       -3.6644372488  MEMB      130             0.0000000000
     14942       130  SOPE      C33           -22.0635004544       15.0082998205      -13.4559417539  MEMB      130             0.0000000000
     14943       130  SOPE      H3X           -22.0346839984       14.0463101354      -14.0140973112  MEMB      130             0.0000000000
     14944       130  SOPE      H3Y           -22.6280671442       15.7459542960      -14.0795602502  MEMB      130             0.0000000000
     14945       130  SOPE      C34           -22.9101464228       14.9412527539      -12.1599352587  MEMB      130             0.0000000000
     14946       130  SOPE      H4X           -23.9611305783       14.7104655831      -12.4470382819  MEMB      130             0.0000000000
     14947       130  SOPE      H4Y           -22.9205061061       15.9619891779      -11.7192608407  MEMB      130             0.0000000000
     14948       130  SOPE      C35           -22.4563950554       13.9692857050      -11.0552625085  MEMB      130             0.0000000000
     14949       130  SOPE      H5X           -21.4012820872       14.2081858074      -10.7984961648  MEMB      130             0.0000000000
     14950       130  SOPE      H5Y           -22.4911554021       12.9175890418      -11.4135262322  MEMB      130             0.0000000000
     14951       130  SOPE      C36           -23.2814948340       14.0584081676       -9.7534528735  MEMB      130             0.0000000000
     14952       130  SOPE      H6X           -23.6971588720       15.0806714669       -9.6130273298  MEMB      130             0.0000000000
     14953       130  SOPE      H6Y           -22.6080685483       13.8722752761       -8.8888460436  MEMB      130             0.0000000000
     14954       130  SOPE      C37           -24.3868140558       12.9952132606       -9.6913054735  MEMB      130             0.0000000000
     14955       130  SOPE      H7X           -23.9317613197       11.9804284997       -9.7569877114  MEMB      130             0.0000000000
     14956       130  SOPE      H7Y           -25.0301738581       13.1194271868      -10.5882763320  MEMB      130             0.0000000000
     14957       130  SOPE      C38           -25.2782033008       13.1081649649       -8.4476762221  MEMB      130             0.0000000000
     14958       130  SOPE      H8X           -26.1702772268       12.4531123966       -8.5754552067  MEMB      130             0.0000000000
     14959       130  SOPE      H8Y           -25.6141312744       14.1580286901       -8.3165900188  MEMB      130             0.0000000000
     14960       130  SOPE      C39           -24.6113637850       12.7352256070       -7.1385603693  MEMB      130             0.0000000000
     14961       130  SOPE      H9X           -23.7483592656       13.3995479186       -6.9019341062  MEMB      130             0.0000000000
     14962       130  SOPE      H9Y           -24.2483741282       11.6817628647       -7.1893736211  MEMB      130             0.0000000000
     14963       130  SOPE      C310          -25.5208443679       12.9901739506       -5.9564246659  MEMB      130             0.0000000000
     14964       130  SOPE      H10X          -26.5458396595       12.6109806920       -6.0002715550  MEMB      130             0.0000000000
     14965       130  SOPE      H10Y          -25.7802079110       14.0454988144       -5.8201894406  MEMB      130             0.0000000000
     14966       130  SOPE      C311          -24.8158100444       12.5000744831       -4.7385192922  MEMB      130             0.0000000000
     14967       130  SOPE      H11X          -23.7723870062       12.7801586054       -4.5483425408  MEMB      130             0.0000000000
     14968       130  SOPE      H11Y          -24.5452911966       11.4299428757       -4.9922893561  MEMB      130             0.0000000000
     14969       130  SOPE      C312          -25.7520236631       12.8516892411       -3.5201033206  MEMB      130             0.0000000000
     14970       130  SOPE      H12X          -26.7085163205       12.3335272624       -3.6355462840  MEMB      130             0.0000000000
     14971       130  SOPE      H12Y          -26.2131025963       13.8335451679       -3.4985637029  MEMB      130             0.0000000000
     14972       130  SOPE      C313          -25.0423396726       12.4611073915       -2.2150040820  MEMB      130             0.0000000000
     14973       130  SOPE      H13X          -24.0518147604       12.8699289955       -2.0159616812  MEMB      130             0.0000000000
     14974       130  SOPE      H13Y          -24.7057107090       11.6740859851       -2.8360881277  MEMB      130             0.0000000000
     14975       130  SOPE      C314          -25.7184595338       11.9186149645       -0.8871602874  MEMB      130             0.0000000000
     14976       130  SOPE      H14X          -25.1202385275       11.5248495748       -0.0750384158  MEMB      130             0.0000000000
     14977       130  SOPE      H14Y          -26.7073885596       11.3342934006       -0.7812824619  MEMB      130             0.0000000000
     14978       130  SOPE      C315          -26.0672757107       13.0248734025       -0.3053632787  MEMB      130             0.0000000000
     14979       130  SOPE      H15X          -26.6278213126       12.6988231362        0.6144856733  MEMB      130             0.0000000000
     14980       130  SOPE      H15Y          -26.7438591878       13.1411860657       -1.2264207046  MEMB      130             0.0000000000
     14981       130  SOPE      C316          -25.0526944324       14.0899148649       -0.0886550466  MEMB      130             0.0000000000
     14982       130  SOPE      H16X          -25.5693758009       15.0641811448       -0.0524946172  MEMB      130             0.0000000000
     14983       130  SOPE      H16Y          -24.3883161206       14.3573912088       -0.9033148265  MEMB      130             0.0000000000
     14984       130  SOPE      C317          -24.3201160893       13.7739809043        1.2067639235  MEMB      130             0.0000000000
     14985       130  SOPE      H17X          -24.9111634981       13.1399518778        1.9425424122  MEMB      130             0.0000000000
     14986       130  SOPE      H17Y          -24.0772427001       14.7240436915        1.6890412795  MEMB      130             0.0000000000
     14987       130  SOPE      C318          -23.0429182941       13.1479760241        0.8931794684  MEMB      130             0.0000000000
     14988       130  SOPE      H18X          -22.4895746662       12.9751771853        1.8468551041  MEMB      130             0.0000000000
     14989       130  SOPE      H18Y          -22.4195979479       13.5647265560        0.1098509991  MEMB      130             0.0000000000
     14990       130  SOPE      H18Z          -23.4203395987       12.2532904942        0.3897128945  MEMB      130             0.0000000000
     14991       131  OSM       N              -3.3214362515       24.3001855125      -22.7442322240  MEMB      131             0.0000000000
     14992       131  OSM       C15            -3.0223944660       25.1443320204      -23.9485488019  MEMB      131             0.0000000000
     14993       131  OSM       H15A           -2.7186402375       26.1471656758      -23.6476706210  MEMB      131             0.0000000000
     14994       131  OSM       H15B           -3.9252453945       25.2732676242      -24.5374963784  MEMB      131             0.0000000000
     14995       131  OSM       H15C           -2.2615231718       24.7135268784      -24.5897192831  MEMB      131             0.0000000000
     14996       131  OSM       C14            -4.2662771957       25.1021455188      -21.9043209361  MEMB      131             0.0000000000
     14997       131  OSM       H14A           -5.1037205414       25.4330696324      -22.4990122448  MEMB      131             0.0000000000
     14998       131  OSM       H14B           -3.7451728334       25.9851485246      -21.5061296045  MEMB      131             0.0000000000
     14999       131  OSM       H14C           -4.6498937990       24.5355688409      -21.0652089513  MEMB      131             0.0000000000
     15000       131  OSM       C13            -3.9595436320       23.0209131516      -23.1895694339  MEMB      131             0.0000000000
     15001       131  OSM       H13A           -3.4584088038       22.6215931256      -24.0633610490  MEMB      131             0.0000000000
     15002       131  OSM       H13B           -5.0149594743       23.1346954521      -23.3866811151  MEMB      131             0.0000000000
     15003       131  OSM       H13C           -3.8772105799       22.2629803006      -22.4199680881  MEMB      131             0.0000000000
     15004       131  OSM       C12            -2.0905205473       23.9196917400      -21.9347839457  MEMB      131             0.0000000000
     15005       131  OSM       H12A           -1.4529076806       23.2735929825      -22.5244340444  MEMB      131             0.0000000000
     15006       131  OSM       H12B           -2.4314748816       23.3410046723      -21.0780791958  MEMB      131             0.0000000000
     15007       131  OSM       C11            -1.1599719241       24.9973747219      -21.3486402202  MEMB      131             0.0000000000
     15008       131  OSM       H11A           -0.7986566882       25.7126578950      -22.1184801316  MEMB      131             0.0000000000
     15009       131  OSM       H11B           -0.2887631158       24.3962195356      -20.9757426481  MEMB      131             0.0000000000
     15010       131  OSM       P              -0.8550869434       26.4618084131      -19.2371335882  MEMB      131             0.0000000000
     15011       131  OSM       O13             0.5372772844       25.9668530854      -19.3586726565  MEMB      131             0.0000000000
     15012       131  OSM       O14            -1.0557279127       27.9263902256      -19.3092802732  MEMB      131             0.0000000000
     15013       131  OSM       O11            -1.4213775511       25.9112773166      -17.8670629854  MEMB      131             0.0000000000
     15014       131  OSM       O12            -1.7951632247       25.7021752134      -20.2902539895  MEMB      131             0.0000000000
     15015       131  OSM       C1S            -2.5120173718       24.9956965146      -17.7438727833  MEMB      131             0.0000000000
     15016       131  OSM       H1S            -2.5100209917       24.2307755550      -18.5576902559  MEMB      131             0.0000000000
     15017       131  OSM       H1T            -3.4865316164       25.5277360376      -17.8011554429  MEMB      131             0.0000000000
     15018       131  OSM       NF             -2.4987694922       25.1992989869      -15.2615304633  MEMB      131             0.0000000000
     15019       131  OSM       HNF            -1.6029406939       25.4361784738      -14.9226486487  MEMB      131             0.0000000000
     15020       131  OSM       C2S            -2.4369346695       24.2725002492      -16.3644087986  MEMB      131             0.0000000000
     15021       131  OSM       H2S            -3.3249552089       23.6031291213      -16.2903310240  MEMB      131             0.0000000000
     15022       131  OSM       C3S            -1.1406600959       23.4213802654      -16.2823828741  MEMB      131             0.0000000000
     15023       131  OSM       H3S            -0.2693295390       24.0899583379      -16.0790190552  MEMB      131             0.0000000000
     15024       131  OSM       O3             -0.8552239757       22.7299252388      -17.4946881200  MEMB      131             0.0000000000
     15025       131  OSM       HO3            -1.2484447246       23.3035169914      -18.1552314691  MEMB      131             0.0000000000
     15026       131  OSM       C4S            -1.2504244829       22.4504024374      -15.1406372123  MEMB      131             0.0000000000
     15027       131  OSM       H4S            -2.1348599711       21.8027228477      -15.1688732597  MEMB      131             0.0000000000
     15028       131  OSM       C5S            -0.4086832705       22.3384275495      -14.0991612973  MEMB      131             0.0000000000
     15029       131  OSM       H5S             0.4494379641       23.0154925132      -13.9871834422  MEMB      131             0.0000000000
     15030       131  OSM       C6S            -0.6074480435       21.3460354850      -13.0016951832  MEMB      131             0.0000000000
     15031       131  OSM       H6S             0.0072608136       20.4466787809      -13.2068417585  MEMB      131             0.0000000000
     15032       131  OSM       H6T            -1.6484410608       20.9373112595      -13.0169861571  MEMB      131             0.0000000000
     15033       131  OSM       C7S            -0.4395974509       21.9713651914      -11.5834320653  MEMB      131             0.0000000000
     15034       131  OSM       H7S            -0.8446140872       21.1672236425      -10.9254683081  MEMB      131             0.0000000000
     15035       131  OSM       H7T            -1.1022747637       22.8369173405      -11.4615087746  MEMB      131             0.0000000000
     15036       131  OSM       C8S             0.9417639685       22.4785230747      -11.0438547339  MEMB      131             0.0000000000
     15037       131  OSM       H8S             1.1941377112       23.4876738671      -11.3819135543  MEMB      131             0.0000000000
     15038       131  OSM       H8T             1.7793448607       22.0105248201      -11.4872637157  MEMB      131             0.0000000000
     15039       131  OSM       C9S             1.3309961992       22.0712169348       -9.5976013718  MEMB      131             0.0000000000
     15040       131  OSM       H9S             2.3303622290       22.4593258592       -9.3612403115  MEMB      131             0.0000000000
     15041       131  OSM       H9T             1.4931971545       21.0014551948       -9.3468229453  MEMB      131             0.0000000000
     15042       131  OSM       C10S            0.2184161767       22.3467497518       -8.6517249877  MEMB      131             0.0000000000
     15043       131  OSM       H10S           -0.6333110252       21.6583489865       -8.8743795060  MEMB      131             0.0000000000
     15044       131  OSM       H10T           -0.0656019506       23.3949583994       -8.8592083804  MEMB      131             0.0000000000
     15045       131  OSM       C11S            0.7182921673       22.0679086591       -7.2506914607  MEMB      131             0.0000000000
     15046       131  OSM       H11S            1.7095440903       22.5587028653       -7.1455563361  MEMB      131             0.0000000000
     15047       131  OSM       H11T            0.8569235443       20.9683295594       -7.1208239507  MEMB      131             0.0000000000
     15048       131  OSM       C12S           -0.2118365147       22.6237393175       -6.1871914854  MEMB      131             0.0000000000
     15049       131  OSM       H12S           -0.6042066584       23.6004860623       -6.5460804561  MEMB      131             0.0000000000
     15050       131  OSM       H12T            0.4094670599       22.8029244091       -5.2845905105  MEMB      131             0.0000000000
     15051       131  OSM       C13S           -1.3234683253       21.6284545762       -5.8335230771  MEMB      131             0.0000000000
     15052       131  OSM       H13S           -0.8168068197       20.6452444593       -5.6579226614  MEMB      131             0.0000000000
     15053       131  OSM       H13T           -1.9827818819       21.4891842662       -6.7150907413  MEMB      131             0.0000000000
     15054       131  OSM       C14S           -2.1732285093       21.9878067587       -4.5901209791  MEMB      131             0.0000000000
     15055       131  OSM       H14S           -1.5184660615       21.9037762418       -3.6978176021  MEMB      131             0.0000000000
     15056       131  OSM       H14T           -2.9740404668       21.2204094274       -4.4896047079  MEMB      131             0.0000000000
     15057       131  OSM       C15S           -2.9301961135       23.3362776355       -4.5943564823  MEMB      131             0.0000000000
     15058       131  OSM       H15S           -3.6846623107       23.2726324019       -5.4122494323  MEMB      131             0.0000000000
     15059       131  OSM       H15T           -2.2666419837       24.1955953813       -4.8329714783  MEMB      131             0.0000000000
     15060       131  OSM       C16S           -3.7587144132       23.5951146389       -3.3100433151  MEMB      131             0.0000000000
     15061       131  OSM       H16S           -4.5108704830       22.7843306199       -3.2087180815  MEMB      131             0.0000000000
     15062       131  OSM       H16T           -4.3391968482       24.5358203085       -3.4003787057  MEMB      131             0.0000000000
     15063       131  OSM       C17S           -3.0020797677       23.6504299861       -1.9770482381  MEMB      131             0.0000000000
     15064       131  OSM       H17S           -2.2822463583       24.5005787582       -2.0059852314  MEMB      131             0.0000000000
     15065       131  OSM       H17T           -2.4274872354       22.7081338409       -1.8426902629  MEMB      131             0.0000000000
     15066       131  OSM       C18S           -3.9788469120       23.8406768451       -0.8063778026  MEMB      131             0.0000000000
     15067       131  OSM       H18S           -4.7053309560       23.0014954077       -0.7491455742  MEMB      131             0.0000000000
     15068       131  OSM       H18T           -4.5392535327       24.7899769402       -0.9610284360  MEMB      131             0.0000000000
     15069       131  OSM       H18U           -3.4697117407       23.8862363026        0.1765483178  MEMB      131             0.0000000000
     15070       131  OSM       C1F            -3.5843779646       25.8654881504      -14.8895918681  MEMB      131             0.0000000000
     15071       131  OSM       OF             -4.6372533955       25.7693602147      -15.4986178217  MEMB      131             0.0000000000
     15072       131  OSM       C2F            -3.4478909017       26.7068226531      -13.6668482289  MEMB      131             0.0000000000
     15073       131  OSM       H2F            -3.5334556901       27.7735543086      -13.9557639964  MEMB      131             0.0000000000
     15074       131  OSM       H2G            -2.4576307055       26.5285930394      -13.2008094986  MEMB      131             0.0000000000
     15075       131  OSM       C3F            -4.5400110074       26.3173488530      -12.6540947955  MEMB      131             0.0000000000
     15076       131  OSM       H3F            -5.5062782887       26.6521051388      -13.0891503212  MEMB      131             0.0000000000
     15077       131  OSM       H3G            -4.4185371780       26.8964496231      -11.7177339922  MEMB      131             0.0000000000
     15078       131  OSM       C4F            -4.5688745914       24.8097327507      -12.3042887921  MEMB      131             0.0000000000
     15079       131  OSM       H4F            -4.6549642372       24.2063181954      -13.2376227795  MEMB      131             0.0000000000
     15080       131  OSM       H4G            -5.4701678692       24.5980499915      -11.6928027977  MEMB      131             0.0000000000
     15081       131  OSM       C5F            -3.3523649065       24.2469268145      -11.5462691252  MEMB      131             0.0000000000
     15082       131  OSM       H5F            -2.4116539903       24.7419726350      -11.8630187095  MEMB      131             0.0000000000
     15083       131  OSM       H5G            -3.2498167691       23.1929661780      -11.8948803749  MEMB      131             0.0000000000
     15084       131  OSM       C6F            -3.5594177451       24.1396073499      -10.0184167984  MEMB      131             0.0000000000
     15085       131  OSM       H6F            -3.0891125105       23.1975925425       -9.6458038930  MEMB      131             0.0000000000
     15086       131  OSM       H6G            -4.6393853030       24.0918667303       -9.7646728180  MEMB      131             0.0000000000
     15087       131  OSM       C7F            -2.9029917121       25.2541562061       -9.2111377751  MEMB      131             0.0000000000
     15088       131  OSM       H7F            -3.1859816505       26.2533356566       -9.5958470291  MEMB      131             0.0000000000
     15089       131  OSM       H7G            -1.8065876838       25.1153787443       -9.3812079018  MEMB      131             0.0000000000
     15090       131  OSM       C8F            -3.1127073177       25.1081691365       -7.6771463290  MEMB      131             0.0000000000
     15091       131  OSM       H8F            -2.3270063715       25.7632244553       -7.2384216103  MEMB      131             0.0000000000
     15092       131  OSM       H8G            -2.7979172834       24.0629516022       -7.4578485248  MEMB      131             0.0000000000
     15093       131  OSM       C9F            -4.4565325959       25.3517187748       -6.9987146300  MEMB      131             0.0000000000
     15094       131  OSM       H9F            -5.1146248364       24.4767181537       -6.8793448279  MEMB      131             0.0000000000
     15095       131  OSM       C10F           -4.8313746002       26.4453318369       -6.3152575376  MEMB      131             0.0000000000
     15096       131  OSM       H10F           -5.8354812261       26.4902681234       -5.8597644413  MEMB      131             0.0000000000
     15097       131  OSM       C11F           -3.9985332533       27.6665269078       -6.0805529005  MEMB      131             0.0000000000
     15098       131  OSM       H11F           -4.6857884282       28.4858529274       -5.7763905672  MEMB      131             0.0000000000
     15099       131  OSM       H11G           -3.4940654044       27.9839124280       -7.0138248421  MEMB      131             0.0000000000
     15100       131  OSM       C12F           -2.9743035310       27.4467103821       -4.9569050608  MEMB      131             0.0000000000
     15101       131  OSM       H12F           -2.3456147669       28.3639473093       -4.8515524797  MEMB      131             0.0000000000
     15102       131  OSM       H12G           -2.2727707438       26.6105312247       -5.1549526529  MEMB      131             0.0000000000
     15103       131  OSM       C13F           -3.6902267882       27.1547888953       -3.6479682755  MEMB      131             0.0000000000
     15104       131  OSM       H13F           -2.9653543977       26.7861814074       -2.8956148479  MEMB      131             0.0000000000
     15105       131  OSM       H13G           -4.5463685815       26.4620351319       -3.7039473172  MEMB      131             0.0000000000
     15106       131  OSM       C14F           -4.2539386440       28.3902853559       -3.0870803170  MEMB      131             0.0000000000
     15107       131  OSM       H14F           -5.3214566891       28.6023864987       -3.3624035731  MEMB      131             0.0000000000
     15108       131  OSM       H14G           -3.7268575052       29.2032341875       -3.5763160139  MEMB      131             0.0000000000
     15109       131  OSM       C15F           -4.0834498297       28.3070836402       -1.5862627703  MEMB      131             0.0000000000
     15110       131  OSM       H15F           -3.8263355681       27.3308959627       -1.1421318954  MEMB      131             0.0000000000
     15111       131  OSM       H15G           -5.1250010751       28.5450107112       -1.4396283640  MEMB      131             0.0000000000
     15112       131  OSM       C16F           -3.2702170737       29.2954115411       -0.8328949058  MEMB      131             0.0000000000
     15113       131  OSM       H16F           -3.0821786480       29.3288891466        0.2534709396  MEMB      131             0.0000000000
     15114       131  OSM       H16G           -3.9667631014       30.1032260533       -0.6684641909  MEMB      131             0.0000000000
     15115       131  OSM       C17F           -1.9431532860       29.2395212806       -1.5597240942  MEMB      131             0.0000000000
     15116       131  OSM       H17F           -1.1701475933       29.7404166605       -1.1059091356  MEMB      131             0.0000000000
     15117       131  OSM       H17G           -1.7030533231       29.4415226758       -2.5883829054  MEMB      131             0.0000000000
     15118       131  OSM       C18F           -1.2905109593       28.0982050695       -1.1569758414  MEMB      131             0.0000000000
     15119       131  OSM       H18F           -1.6272324556       28.3481433728       -0.1378355808  MEMB      131             0.0000000000
     15120       131  OSM       H18G           -0.1805763202       28.1307226591       -1.1465597869  MEMB      131             0.0000000000
     15121       131  OSM       H18H           -1.7823383063       27.1591377321       -1.3600256798  MEMB      131             0.0000000000
     15122       132  CHL1      C3             13.2271654371       22.0072181636      -17.3876405967  MEMB      132             0.0000000000
     15123       132  CHL1      H3             12.6352460495       22.9133030766      -17.6347535986  MEMB      132             0.0000000000
     15124       132  CHL1      O3             13.7285912882       21.4285755552      -18.5846367956  MEMB      132             0.0000000000
     15125       132  CHL1      H3'            12.9625997314       21.1803544974      -19.1163066365  MEMB      132             0.0000000000
     15126       132  CHL1      C4             14.4314824157       22.3868295831      -16.4912378687  MEMB      132             0.0000000000
     15127       132  CHL1      H4A            15.2057575089       21.5975817543      -16.5813134040  MEMB      132             0.0000000000
     15128       132  CHL1      H4B            14.8864433960       23.2820213242      -16.9660492617  MEMB      132             0.0000000000
     15129       132  CHL1      C5             14.1336848526       22.6382827666      -15.0204409162  MEMB      132             0.0000000000
     15130       132  CHL1      C6             14.5464705135       23.7299768375      -14.3662746462  MEMB      132             0.0000000000
     15131       132  CHL1      H6             15.1536640143       24.4688036950      -14.8982063521  MEMB      132             0.0000000000
     15132       132  CHL1      C7             14.2913384234       23.9907178387      -12.9044688415  MEMB      132             0.0000000000
     15133       132  CHL1      H7A            15.1950591905       24.4177404530      -12.4185283012  MEMB      132             0.0000000000
     15134       132  CHL1      H7B            13.4500724561       24.7059123902      -12.7908887211  MEMB      132             0.0000000000
     15135       132  CHL1      C8             13.8903437176       22.7032522417      -12.1559874944  MEMB      132             0.0000000000
     15136       132  CHL1      H8             14.8284166286       22.1023161042      -12.1447474629  MEMB      132             0.0000000000
     15137       132  CHL1      C14            13.4169240736       22.9959039785      -10.7289825398  MEMB      132             0.0000000000
     15138       132  CHL1      H14            12.5391348369       23.6751445179      -10.7624339074  MEMB      132             0.0000000000
     15139       132  CHL1      C15            14.4435684821       23.6235283516       -9.7651587692  MEMB      132             0.0000000000
     15140       132  CHL1      H15A           15.4570156006       23.1871482773       -9.9157127488  MEMB      132             0.0000000000
     15141       132  CHL1      H15B           14.5315489566       24.7113377549       -9.9230049519  MEMB      132             0.0000000000
     15142       132  CHL1      C16            13.9389187391       23.2134186747       -8.3628414981  MEMB      132             0.0000000000
     15143       132  CHL1      H16A           14.7951994186       22.7740075848       -7.7971701690  MEMB      132             0.0000000000
     15144       132  CHL1      H16B           13.5169727113       24.0792600001       -7.8286051573  MEMB      132             0.0000000000
     15145       132  CHL1      C17            12.7823447539       22.1717459505       -8.5526193382  MEMB      132             0.0000000000
     15146       132  CHL1      H17            11.8262563396       22.7267486806       -8.5195781341  MEMB      132             0.0000000000
     15147       132  CHL1      C13            12.9070725748       21.7772614035      -10.0090472958  MEMB      132             0.0000000000
     15148       132  CHL1      C18            14.0589640872       20.9073561907       -9.9607776528  MEMB      132             0.0000000000
     15149       132  CHL1      H18A           13.6540985121       19.9959374138       -9.4874599028  MEMB      132             0.0000000000
     15150       132  CHL1      H18B           14.4798893076       20.6935728349      -10.9442328970  MEMB      132             0.0000000000
     15151       132  CHL1      H18C           14.9317383678       21.2194492478       -9.3624264708  MEMB      132             0.0000000000
     15152       132  CHL1      C12            11.7127178274       21.1464816134      -10.7397067160  MEMB      132             0.0000000000
     15153       132  CHL1      H12A           11.3259517814       20.2263486152      -10.2583730034  MEMB      132             0.0000000000
     15154       132  CHL1      H12B           10.9021984377       21.8975166657      -10.7262018931  MEMB      132             0.0000000000
     15155       132  CHL1      C11            12.0651322514       20.8177847386      -12.1955091476  MEMB      132             0.0000000000
     15156       132  CHL1      H11A           12.6306173891       19.8612292180      -12.2170190959  MEMB      132             0.0000000000
     15157       132  CHL1      H11B           11.1081614901       20.6490034143      -12.7313949800  MEMB      132             0.0000000000
     15158       132  CHL1      C9             12.7951928465       21.9730637547      -12.9413260102  MEMB      132             0.0000000000
     15159       132  CHL1      H9             12.0139118591       22.7509852709      -13.1058329667  MEMB      132             0.0000000000
     15160       132  CHL1      C10            13.2440945888       21.5861912731      -14.3506014983  MEMB      132             0.0000000000
     15161       132  CHL1      C19            14.0705631363       20.2955072873      -14.2091706048  MEMB      132             0.0000000000
     15162       132  CHL1      H19A           14.8252928496       20.3024026990      -15.0008162972  MEMB      132             0.0000000000
     15163       132  CHL1      H19B           14.6680149984       20.2434002349      -13.2791251764  MEMB      132             0.0000000000
     15164       132  CHL1      H19C           13.4603026239       19.3666962422      -14.2926132478  MEMB      132             0.0000000000
     15165       132  CHL1      C1             11.9859417647       21.4569279824      -15.2581720074  MEMB      132             0.0000000000
     15166       132  CHL1      H1A            11.2620501937       20.7462170561      -14.8145119797  MEMB      132             0.0000000000
     15167       132  CHL1      H1B            11.4802045180       22.4431870629      -15.3377124977  MEMB      132             0.0000000000
     15168       132  CHL1      C2             12.2893113558       21.0316296983      -16.6875561830  MEMB      132             0.0000000000
     15169       132  CHL1      H2A            11.3483471829       20.8563873589      -17.2553643850  MEMB      132             0.0000000000
     15170       132  CHL1      H2B            12.8395513725       20.1023030348      -16.5666248916  MEMB      132             0.0000000000
     15171       132  CHL1      C20            12.7196557368       21.1168341397       -7.4129755354  MEMB      132             0.0000000000
     15172       132  CHL1      H20            13.7156376360       20.6337343456       -7.2709676514  MEMB      132             0.0000000000
     15173       132  CHL1      C21            11.7080223356       19.9598875574       -7.6839607551  MEMB      132             0.0000000000
     15174       132  CHL1      H21A           10.6987201908       20.3606671636       -7.8996938919  MEMB      132             0.0000000000
     15175       132  CHL1      H21B           11.6326750209       19.2954770816       -6.7995141737  MEMB      132             0.0000000000
     15176       132  CHL1      H21C           12.0190291303       19.3024553794       -8.5235932781  MEMB      132             0.0000000000
     15177       132  CHL1      C22            12.3473264815       21.8433079834       -6.0926726971  MEMB      132             0.0000000000
     15178       132  CHL1      H22A           11.9890732529       22.8691226994       -6.3379709968  MEMB      132             0.0000000000
     15179       132  CHL1      H22B           11.4690114571       21.3289419533       -5.6548603702  MEMB      132             0.0000000000
     15180       132  CHL1      C23            13.4447098871       21.9510091291       -5.0104039626  MEMB      132             0.0000000000
     15181       132  CHL1      H23A           14.2677122172       22.6204110045       -5.3437583373  MEMB      132             0.0000000000
     15182       132  CHL1      H23B           12.9844127160       22.4148806622       -4.1057282315  MEMB      132             0.0000000000
     15183       132  CHL1      C24            14.0347057545       20.6205689348       -4.5293500585  MEMB      132             0.0000000000
     15184       132  CHL1      H24A           13.1892757614       19.9159061071       -4.3567896582  MEMB      132             0.0000000000
     15185       132  CHL1      H24B           14.6685921647       20.1677714943       -5.3214652955  MEMB      132             0.0000000000
     15186       132  CHL1      C25            14.8688564101       20.8170586055       -3.2310779544  MEMB      132             0.0000000000
     15187       132  CHL1      H25            14.1637273540       21.0672554002       -2.4056404463  MEMB      132             0.0000000000
     15188       132  CHL1      C26            15.5783678383       19.5938402413       -2.7842851726  MEMB      132             0.0000000000
     15189       132  CHL1      H26A           14.7850589012       18.9115479880       -2.9989262804  MEMB      132             0.0000000000
     15190       132  CHL1      H26B           16.3796827811       19.2669200578       -3.4476049488  MEMB      132             0.0000000000
     15191       132  CHL1      H26C           15.9013953437       19.4959580298       -1.7269341949  MEMB      132             0.0000000000
     15192       132  CHL1      C27            16.0209323113       21.7636666466       -3.4183934488  MEMB      132             0.0000000000
     15193       132  CHL1      H27A           16.5927049014       21.4566537385       -4.3248945142  MEMB      132             0.0000000000
     15194       132  CHL1      H27B           15.6854369071       22.7998723797       -3.5056029100  MEMB      132             0.0000000000
     15195       132  CHL1      H27C           16.6690358742       21.6828253759       -2.5321892662  MEMB      132             0.0000000000
     15196       133  POPC      N              13.0900045176      -23.7711424729      -17.6099892515  MEMB      133             0.0000000000
     15197       133  POPC      C12            11.8931245658      -23.1053114180      -18.2164371967  MEMB      133             0.0000000000
     15198       133  POPC      H12A           11.7327503308      -22.1484078384      -17.7223007455  MEMB      133             0.0000000000
     15199       133  POPC      H12B           11.0647478073      -23.7519686412      -17.9660274489  MEMB      133             0.0000000000
     15200       133  POPC      C13            13.3197798902      -25.0241620215      -18.3845971958  MEMB      133             0.0000000000
     15201       133  POPC      H13A           14.3900043099      -25.2318904290      -18.3582194495  MEMB      133             0.0000000000
     15202       133  POPC      H13B           12.8731901890      -25.8849088070      -17.9022169125  MEMB      133             0.0000000000
     15203       133  POPC      H13C           13.0582824244      -24.9722391188      -19.4258229363  MEMB      133             0.0000000000
     15204       133  POPC      C14            14.2634417735      -22.8518335646      -17.6576961576  MEMB      133             0.0000000000
     15205       133  POPC      H14A           14.6709097744      -22.7999386732      -18.6587343674  MEMB      133             0.0000000000
     15206       133  POPC      H14B           13.9338123104      -21.8472588069      -17.4007744903  MEMB      133             0.0000000000
     15207       133  POPC      H14C           15.0541328893      -23.1703522433      -16.9833346923  MEMB      133             0.0000000000
     15208       133  POPC      C15            12.8784938296      -24.0373919528      -16.1478257205  MEMB      133             0.0000000000
     15209       133  POPC      H15A           13.6730457942      -24.6424685090      -15.7263122608  MEMB      133             0.0000000000
     15210       133  POPC      H15B           11.9732323543      -24.5873012440      -15.9966184575  MEMB      133             0.0000000000
     15211       133  POPC      H15C           12.7291864404      -23.1486153766      -15.5505973147  MEMB      133             0.0000000000
     15212       133  POPC      C11            11.7978104123      -22.8440368614      -19.7323381744  MEMB      133             0.0000000000
     15213       133  POPC      H11A           10.8438933284      -22.2611740323      -19.8556021447  MEMB      133             0.0000000000
     15214       133  POPC      H11B           11.6662369076      -23.7622500699      -20.3284041976  MEMB      133             0.0000000000
     15215       133  POPC      P              12.8581376905      -20.6288300264      -20.4721618392  MEMB      133             0.0000000000
     15216       133  POPC      O13            11.9182962214      -20.3763646946      -21.5982146265  MEMB      133             0.0000000000
     15217       133  POPC      O14            14.1837814898      -19.9617719537      -20.4647845939  MEMB      133             0.0000000000
     15218       133  POPC      O12            12.9649733752      -22.1842026124      -20.2379955688  MEMB      133             0.0000000000
     15219       133  POPC      O11            12.1633453807      -20.3303201253      -19.1099940165  MEMB      133             0.0000000000
     15220       133  POPC      C1             11.7684128177      -18.9872252421      -19.1172139285  MEMB      133             0.0000000000
     15221       133  POPC      HA             10.8469803186      -18.8725111554      -19.7737381368  MEMB      133             0.0000000000
     15222       133  POPC      HB             12.5276272559      -18.2491205803      -19.3888496770  MEMB      133             0.0000000000
     15223       133  POPC      C2             11.5123730464      -18.7006833607      -17.6905763911  MEMB      133             0.0000000000
     15224       133  POPC      HS             11.3511738021      -17.6070763107      -17.5162901772  MEMB      133             0.0000000000
     15225       133  POPC      O21            12.4546521364      -19.1433021006      -16.7200985889  MEMB      133             0.0000000000
     15226       133  POPC      C21            13.4444437588      -18.4129545688      -16.4173231137  MEMB      133             0.0000000000
     15227       133  POPC      O22            13.7783779265      -17.3445226657      -16.8929541089  MEMB      133             0.0000000000
     15228       133  POPC      C22            14.0178115881      -19.0897284265      -15.1708387075  MEMB      133             0.0000000000
     15229       133  POPC      H2R            14.7790486882      -19.8090001534      -15.5232871357  MEMB      133             0.0000000000
     15230       133  POPC      H2S            13.2136341789      -19.6130046165      -14.6101858563  MEMB      133             0.0000000000
     15231       133  POPC      C3             10.2552899804      -19.5127433693      -17.3986912014  MEMB      133             0.0000000000
     15232       133  POPC      HX              9.9144395560      -19.0080634072      -18.2722798230  MEMB      133             0.0000000000
     15233       133  POPC      HY             10.2896307231      -19.0648366496      -16.4046657318  MEMB      133             0.0000000000
     15234       133  POPC      O31             8.8136606480      -19.7901212291      -17.7308238485  MEMB      133             0.0000000000
     15235       133  POPC      C31             7.4172609641      -20.4400608018      -17.1493604458  MEMB      133             0.0000000000
     15236       133  POPC      O32             6.5353162019      -20.0019947386      -17.7847586731  MEMB      133             0.0000000000
     15237       133  POPC      C32             7.2675886360      -22.2497393992      -15.7069864626  MEMB      133             0.0000000000
     15238       133  POPC      H2X             7.8195732521      -22.8279268920      -16.2576725125  MEMB      133             0.0000000000
     15239       133  POPC      H2Y             6.2875947797      -22.1709816922      -15.7203718497  MEMB      133             0.0000000000
     15240       133  POPC      C23            14.6306834834      -18.0676403673      -14.2385681122  MEMB      133             0.0000000000
     15241       133  POPC      H3R            13.8607923654      -17.3672842136      -13.8383581496  MEMB      133             0.0000000000
     15242       133  POPC      H3S            15.3274741162      -17.4970808238      -14.8889471361  MEMB      133             0.0000000000
     15243       133  POPC      C24            15.3861819445      -18.6350488192      -13.0468440226  MEMB      133             0.0000000000
     15244       133  POPC      H4R            15.7005797290      -17.7594688983      -12.4358204908  MEMB      133             0.0000000000
     15245       133  POPC      H4S            16.2875452775      -19.2178435753      -13.3492597519  MEMB      133             0.0000000000
     15246       133  POPC      C25            14.5309562415      -19.4038477212      -12.0700435613  MEMB      133             0.0000000000
     15247       133  POPC      H5R            14.3338585972      -20.4119385337      -12.5090438453  MEMB      133             0.0000000000
     15248       133  POPC      H5S            13.6051768425      -18.8416705623      -11.8536277867  MEMB      133             0.0000000000
     15249       133  POPC      C26            15.2309772674      -19.5348494794      -10.7213521323  MEMB      133             0.0000000000
     15250       133  POPC      H6R            16.0024248310      -18.7510936472      -10.5556216873  MEMB      133             0.0000000000
     15251       133  POPC      H6S            15.6969351944      -20.4708743392      -10.9281367628  MEMB      133             0.0000000000
     15252       133  POPC      C27            14.3272312399      -19.7169772379       -9.4992947589  MEMB      133             0.0000000000
     15253       133  POPC      H7R            13.4298514119      -20.2247587794       -9.8962571189  MEMB      133             0.0000000000
     15254       133  POPC      H7S            14.1379139673      -18.6946746884       -9.1176168275  MEMB      133             0.0000000000
     15255       133  POPC      C28            14.6000725201      -20.6561504018       -8.3011986040  MEMB      133             0.0000000000
     15256       133  POPC      H8R            14.7792785868      -21.6951045959       -8.4643993898  MEMB      133             0.0000000000
     15257       133  POPC      H8S            13.7733462110      -20.6670043986       -7.6163109408  MEMB      133             0.0000000000
     15258       133  POPC      C29            15.5818854269      -20.3542357413       -7.3534893204  MEMB      133             0.0000000000
     15259       133  POPC      H91            16.4017967890      -21.0778844662       -7.2468275486  MEMB      133             0.0000000000
     15260       133  POPC      C210           15.6295209343      -19.4127973572       -6.5433367426  MEMB      133             0.0000000000
     15261       133  POPC      H101           16.6246655687      -19.4462705650       -6.3607983838  MEMB      133             0.0000000000
     15262       133  POPC      C211           14.8649819276      -18.2472763423       -6.1056941421  MEMB      133             0.0000000000
     15263       133  POPC      H11R           13.9531327325      -18.4126801927       -6.6710671585  MEMB      133             0.0000000000
     15264       133  POPC      H11S           15.3365781235      -17.2501905860       -6.2652355079  MEMB      133             0.0000000000
     15265       133  POPC      C212           14.6971914888      -18.5137881355       -4.5958350229  MEMB      133             0.0000000000
     15266       133  POPC      H12R           14.5437493983      -19.6343191208       -4.5341577582  MEMB      133             0.0000000000
     15267       133  POPC      H12S           13.8004855913      -18.0921302746       -4.2295393081  MEMB      133             0.0000000000
     15268       133  POPC      C213           15.8455694555      -17.8745605022       -3.7048037053  MEMB      133             0.0000000000
     15269       133  POPC      H13R           16.2756641185      -16.9354200645       -4.0331957839  MEMB      133             0.0000000000
     15270       133  POPC      H13S           16.3507487662      -18.6773915165       -4.1978629042  MEMB      133             0.0000000000
     15271       133  POPC      C214           16.2664325028      -17.9743004843       -2.1825757394  MEMB      133             0.0000000000
     15272       133  POPC      H14R           17.3090835947      -17.9750293505       -1.8581368948  MEMB      133             0.0000000000
     15273       133  POPC      H14S           16.4664595972      -18.8480214063       -1.5782395993  MEMB      133             0.0000000000
     15274       133  POPC      C215           15.0608284381      -17.8710631431       -1.4541685546  MEMB      133             0.0000000000
     15275       133  POPC      H15R           14.3117347793      -18.6408048324       -1.8352181343  MEMB      133             0.0000000000
     15276       133  POPC      H15S           14.8267306325      -16.7967066337       -1.5321057518  MEMB      133             0.0000000000
     15277       133  POPC      C216           15.0567105238      -18.1593394339       -0.0643998847  MEMB      133             0.0000000000
     15278       133  POPC      H16R           15.9210592600      -17.7922574267        0.5262156220  MEMB      133             0.0000000000
     15279       133  POPC      H16S           15.0426106724      -19.1684574071        0.1875287120  MEMB      133             0.0000000000
     15280       133  POPC      C217           13.6349684553      -17.7894371708        0.2139807769  MEMB      133             0.0000000000
     15281       133  POPC      H17R           13.6872557182      -16.7091944643        0.3575567018  MEMB      133             0.0000000000
     15282       133  POPC      H17S           13.7521333243      -18.4484648201        1.0422646955  MEMB      133             0.0000000000
     15283       133  POPC      C218           12.1965920081      -18.3285254540        0.2588857395  MEMB      133             0.0000000000
     15284       133  POPC      H18R           11.9354474616      -19.3380620027       -0.0953616839  MEMB      133             0.0000000000
     15285       133  POPC      H18S           11.7976520932      -17.3995726363       -0.1051511529  MEMB      133             0.0000000000
     15286       133  POPC      H18T           11.4914229524      -18.0444591331        1.0494752565  MEMB      133             0.0000000000
     15287       133  POPC      C33             8.2627275149      -22.7605397389      -14.2682981557  MEMB      133             0.0000000000
     15288       133  POPC      H3X             8.2056730073      -23.8857868886      -14.2358546840  MEMB      133             0.0000000000
     15289       133  POPC      H3Y             7.6174733631      -22.4124105169      -13.4829074001  MEMB      133             0.0000000000
     15290       133  POPC      C34             9.8914166103      -22.3261742965      -13.9051969576  MEMB      133             0.0000000000
     15291       133  POPC      H4X            10.5808870136      -22.4985791388      -14.7547297655  MEMB      133             0.0000000000
     15292       133  POPC      H4Y            10.7552108307      -22.9292407761      -13.6935573958  MEMB      133             0.0000000000
     15293       133  POPC      C35            10.3915378643      -20.9162557440      -13.5175802449  MEMB      133             0.0000000000
     15294       133  POPC      H5X             9.5589895230      -20.4693113997      -13.0152438422  MEMB      133             0.0000000000
     15295       133  POPC      H5Y            10.7588811875      -20.1517654956      -14.2459323110  MEMB      133             0.0000000000
     15296       133  POPC      C36            11.2218273975      -20.9831841076      -12.3062206835  MEMB      133             0.0000000000
     15297       133  POPC      H6X            11.6903813933      -19.9773953117      -12.1947919022  MEMB      133             0.0000000000
     15298       133  POPC      H6Y            11.9514056082      -21.7845772474      -12.5139356532  MEMB      133             0.0000000000
     15299       133  POPC      C37            10.1842259113      -21.3058688929      -11.2147404813  MEMB      133             0.0000000000
     15300       133  POPC      H7X             9.5331412651      -22.1625012826      -11.5064010907  MEMB      133             0.0000000000
     15301       133  POPC      H7Y             9.4834135811      -20.4525775439      -11.1505904049  MEMB      133             0.0000000000
     15302       133  POPC      C38            10.8101012924      -21.4846541146       -9.8784794654  MEMB      133             0.0000000000
     15303       133  POPC      H8X            11.2891848224      -20.5223597922       -9.5967455674  MEMB      133             0.0000000000
     15304       133  POPC      H8Y            11.6054591505      -22.2474752472       -9.9919004773  MEMB      133             0.0000000000
     15305       133  POPC      C39             9.8297097382      -21.8533704167       -8.7731431279  MEMB      133             0.0000000000
     15306       133  POPC      H9X             9.4304840268      -22.8798151881       -8.9348048010  MEMB      133             0.0000000000
     15307       133  POPC      H9Y             8.9552375918      -21.1629860813       -8.7737987903  MEMB      133             0.0000000000
     15308       133  POPC      C310           10.6014402651      -21.7487063678       -7.4531677259  MEMB      133             0.0000000000
     15309       133  POPC      H10X           10.9463982403      -20.7001596813       -7.3162171631  MEMB      133             0.0000000000
     15310       133  POPC      H10Y           11.5149450744      -22.3797813045       -7.5445657070  MEMB      133             0.0000000000
     15311       133  POPC      C311            9.7725441972      -22.1214585868       -6.2291803109  MEMB      133             0.0000000000
     15312       133  POPC      H11X            9.4175784487      -23.1679820645       -6.3476303778  MEMB      133             0.0000000000
     15313       133  POPC      H11Y            8.8871933480      -21.4547554254       -6.1863851795  MEMB      133             0.0000000000
     15314       133  POPC      C312           10.5165562255      -22.0558085776       -4.8948024199  MEMB      133             0.0000000000
     15315       133  POPC      H12X           11.3568958970      -22.7837855937       -4.8918155020  MEMB      133             0.0000000000
     15316       133  POPC      H12Y            9.7971531852      -22.2640601684       -4.0836473338  MEMB      133             0.0000000000
     15317       133  POPC      C313           10.9977861275      -20.7295789226       -4.3597248838  MEMB      133             0.0000000000
     15318       133  POPC      H13X           10.1039212556      -20.2251572046       -3.9161344130  MEMB      133             0.0000000000
     15319       133  POPC      H13Y           11.3877095805      -20.1125503903       -5.1916832300  MEMB      133             0.0000000000
     15320       133  POPC      C314           12.0680187218      -21.0005622014       -3.2857351315  MEMB      133             0.0000000000
     15321       133  POPC      H14X           12.3529570029      -20.0844783655       -2.8248727832  MEMB      133             0.0000000000
     15322       133  POPC      H14Y           13.0150033329      -21.3156794325       -3.7606190230  MEMB      133             0.0000000000
     15323       133  POPC      C315           11.6748548465      -21.9678768908       -2.1516652030  MEMB      133             0.0000000000
     15324       133  POPC      H15X           11.4891694499      -22.9520479417       -2.6191788833  MEMB      133             0.0000000000
     15325       133  POPC      H15Y           10.8008140561      -21.5856015202       -1.5852609632  MEMB      133             0.0000000000
     15326       133  POPC      C316           12.7308801030      -22.1858934829       -1.1123012984  MEMB      133             0.0000000000
     15327       133  POPC      H16X           12.8947256916      -21.2140491769       -0.5865058300  MEMB      133             0.0000000000
     15328       133  POPC      H16Y           13.6298970184      -22.5041733459       -1.6548476734  MEMB      133             0.0000000000
     15329       133  POPC      H16Z           12.6086386553      -22.9967058190       -0.3771314440  MEMB      133             0.0000000000
     15330       134  OSM       N             -16.8412939321       21.3838959102      -20.2853288522  MEMB      134             0.0000000000
     15331       134  OSM       C15           -17.4444005861       21.2601415783      -21.6597353002  MEMB      134             0.0000000000
     15332       134  OSM       H15A          -16.6871779458       21.4886515198      -22.4088232335  MEMB      134             0.0000000000
     15333       134  OSM       H15B          -18.3234486212       21.8810132596      -21.7861265057  MEMB      134             0.0000000000
     15334       134  OSM       H15C          -17.7695704004       20.2655758982      -21.8727949039  MEMB      134             0.0000000000
     15335       134  OSM       C14           -16.2405306909       22.7581011402      -20.1947237606  MEMB      134             0.0000000000
     15336       134  OSM       H14A          -17.0051291149       23.5083789511      -20.3620740768  MEMB      134             0.0000000000
     15337       134  OSM       H14B          -15.4589229591       22.9370859033      -20.9347847142  MEMB      134             0.0000000000
     15338       134  OSM       H14C          -15.7746065323       22.9360776989      -19.2364869577  MEMB      134             0.0000000000
     15339       134  OSM       C13           -17.9070059123       21.3126619721      -19.2874830827  MEMB      134             0.0000000000
     15340       134  OSM       H13A          -18.5250687720       22.2046482253      -19.3615370399  MEMB      134             0.0000000000
     15341       134  OSM       H13B          -17.5331653125       21.2489335548      -18.2746580999  MEMB      134             0.0000000000
     15342       134  OSM       H13C          -18.5545025741       20.4569157560      -19.4561871031  MEMB      134             0.0000000000
     15343       134  OSM       C12           -15.8406765514       20.2784834174      -19.9934200370  MEMB      134             0.0000000000
     15344       134  OSM       H12A          -16.3558647175       19.4174823666      -19.5777818795  MEMB      134             0.0000000000
     15345       134  OSM       H12B          -15.1237691975       20.6008292107      -19.2383698425  MEMB      134             0.0000000000
     15346       134  OSM       C11           -15.0542450420       19.7227456924      -21.1797402741  MEMB      134             0.0000000000
     15347       134  OSM       H11A          -15.7257677457       19.1643992763      -21.8680223680  MEMB      134             0.0000000000
     15348       134  OSM       H11B          -14.3551813567       18.9570371262      -20.7489343767  MEMB      134             0.0000000000
     15349       134  OSM       P             -12.8838187798       21.0712789228      -21.7360715244  MEMB      134             0.0000000000
     15350       134  OSM       O13           -12.2508151840       19.8065309836      -21.3023542515  MEMB      134             0.0000000000
     15351       134  OSM       O14           -12.3799768184       21.7035396356      -22.9699745266  MEMB      134             0.0000000000
     15352       134  OSM       O11           -12.7887358065       22.0779580597      -20.5044504000  MEMB      134             0.0000000000
     15353       134  OSM       O12           -14.4376875860       20.7902208827      -21.8981258873  MEMB      134             0.0000000000
     15354       134  OSM       C1S           -11.8805344378       21.7641378866      -19.4248956746  MEMB      134             0.0000000000
     15355       134  OSM       H1S           -10.8739157983       22.2003071386      -19.6274785746  MEMB      134             0.0000000000
     15356       134  OSM       H1T           -11.7063087655       20.6712013713      -19.2612351822  MEMB      134             0.0000000000
     15357       134  OSM       NF            -13.4662159135       21.4629691544      -17.5223950434  MEMB      134             0.0000000000
     15358       134  OSM       HNF           -14.3391601009       21.9112382942      -17.5753121311  MEMB      134             0.0000000000
     15359       134  OSM       C2S           -12.4173670307       22.3015429961      -18.0693608465  MEMB      134             0.0000000000
     15360       134  OSM       H2S           -11.5532362600       22.2802152682      -17.3617764336  MEMB      134             0.0000000000
     15361       134  OSM       C3S           -12.9575031251       23.7501441698      -18.1460160816  MEMB      134             0.0000000000
     15362       134  OSM       H3S           -13.8870341822       23.7558209137      -18.7635433315  MEMB      134             0.0000000000
     15363       134  OSM       O3            -12.0766751112       24.7167152628      -18.7006798564  MEMB      134             0.0000000000
     15364       134  OSM       HO3           -11.3817057044       24.2400159455      -19.1557481063  MEMB      134             0.0000000000
     15365       134  OSM       C4S           -13.3633035651       24.1443910634      -16.7340595488  MEMB      134             0.0000000000
     15366       134  OSM       H4S           -14.4382624092       24.1745202800      -16.5259263993  MEMB      134             0.0000000000
     15367       134  OSM       C5S           -12.5276593254       24.4152654354      -15.7201076754  MEMB      134             0.0000000000
     15368       134  OSM       H5S           -11.4471838409       24.3985795700      -15.9194694643  MEMB      134             0.0000000000
     15369       134  OSM       C6S           -12.9439600982       24.8142925891      -14.3302770468  MEMB      134             0.0000000000
     15370       134  OSM       H6S           -13.6890200636       25.6324945691      -14.3997104980  MEMB      134             0.0000000000
     15371       134  OSM       H6T           -12.1123347398       25.2224247612      -13.7410632866  MEMB      134             0.0000000000
     15372       134  OSM       C7S           -13.3042064928       23.6824637051      -13.3701893893  MEMB      134             0.0000000000
     15373       134  OSM       H7S           -14.0426257978       23.0407155385      -13.8893177303  MEMB      134             0.0000000000
     15374       134  OSM       H7T           -13.7843796911       24.1324269928      -12.4733795440  MEMB      134             0.0000000000
     15375       134  OSM       C8S           -12.0498419692       22.8876495793      -12.9295411162  MEMB      134             0.0000000000
     15376       134  OSM       H8S           -11.3992706520       23.4237475984      -12.2042157736  MEMB      134             0.0000000000
     15377       134  OSM       H8T           -11.4147299892       22.7727388774      -13.8373936903  MEMB      134             0.0000000000
     15378       134  OSM       C9S           -12.3590297235       21.4749631642      -12.4067245630  MEMB      134             0.0000000000
     15379       134  OSM       H9S           -11.4008538518       20.9342571736      -12.2304552213  MEMB      134             0.0000000000
     15380       134  OSM       H9T           -12.8846010725       20.9703883938      -13.2486867979  MEMB      134             0.0000000000
     15381       134  OSM       C10S          -13.2405070382       21.3447653126      -11.1434512657  MEMB      134             0.0000000000
     15382       134  OSM       H10S          -13.3338175143       20.2522897874      -10.9216010849  MEMB      134             0.0000000000
     15383       134  OSM       H10T          -14.2632662428       21.7245307988      -11.3464753883  MEMB      134             0.0000000000
     15384       134  OSM       C11S          -12.7262052677       22.0664103344       -9.8799618580  MEMB      134             0.0000000000
     15385       134  OSM       H11S          -12.5840917944       23.1501326594      -10.0907217146  MEMB      134             0.0000000000
     15386       134  OSM       H11T          -11.7315149934       21.6323837407       -9.6435538374  MEMB      134             0.0000000000
     15387       134  OSM       C12S          -13.6842387872       21.8782146669       -8.6771333648  MEMB      134             0.0000000000
     15388       134  OSM       H12S          -13.9566508157       20.8014961084       -8.6537984497  MEMB      134             0.0000000000
     15389       134  OSM       H12T          -14.6253665100       22.4492359944       -8.8484241754  MEMB      134             0.0000000000
     15390       134  OSM       C13S          -13.1062939346       22.2083962421       -7.2812988109  MEMB      134             0.0000000000
     15391       134  OSM       H13S          -12.6797157767       23.2337479980       -7.2804885942  MEMB      134             0.0000000000
     15392       134  OSM       H13T          -12.2704915257       21.5089721836       -7.0562021820  MEMB      134             0.0000000000
     15393       134  OSM       C14S          -14.1361855372       22.0819254680       -6.1340976759  MEMB      134             0.0000000000
     15394       134  OSM       H14S          -13.6269026170       21.7217035864       -5.2120387813  MEMB      134             0.0000000000
     15395       134  OSM       H14T          -14.8999938481       21.3150211461       -6.3878008928  MEMB      134             0.0000000000
     15396       134  OSM       C15S          -14.8489351559       23.4136719671       -5.8609440408  MEMB      134             0.0000000000
     15397       134  OSM       H15S          -15.4603997684       23.6195968212       -6.7698828212  MEMB      134             0.0000000000
     15398       134  OSM       H15T          -14.1086753347       24.2391642991       -5.7679624269  MEMB      134             0.0000000000
     15399       134  OSM       C16S          -15.7826023849       23.4306442780       -4.6337753312  MEMB      134             0.0000000000
     15400       134  OSM       H16S          -16.6324654418       22.7461866873       -4.8329470073  MEMB      134             0.0000000000
     15401       134  OSM       H16T          -16.2028954573       24.4586083886       -4.5539181115  MEMB      134             0.0000000000
     15402       134  OSM       C17S          -15.1636646027       23.0948053101       -3.2607109321  MEMB      134             0.0000000000
     15403       134  OSM       H17S          -14.7790273079       22.0587382191       -3.2072600103  MEMB      134             0.0000000000
     15404       134  OSM       H17T          -15.9903794093       23.1864232451       -2.5144582080  MEMB      134             0.0000000000
     15405       134  OSM       C18S          -14.0666774866       24.0518722539       -2.8205724761  MEMB      134             0.0000000000
     15406       134  OSM       H18S          -13.3587773460       23.6418883926       -2.0766257889  MEMB      134             0.0000000000
     15407       134  OSM       H18T          -14.5759181859       24.8539738418       -2.2924329453  MEMB      134             0.0000000000
     15408       134  OSM       H18U          -13.5441326863       24.4977453935       -3.6899685323  MEMB      134             0.0000000000
     15409       134  OSM       C1F           -13.3597940298       20.2538314854      -16.9819935295  MEMB      134             0.0000000000
     15410       134  OSM       OF            -12.3331955945       19.5915573789      -17.0478105749  MEMB      134             0.0000000000
     15411       134  OSM       C2F           -14.6226442607       19.7854027196      -16.3093425271  MEMB      134             0.0000000000
     15412       134  OSM       H2F           -15.2914640321       19.3742876824      -17.0942036841  MEMB      134             0.0000000000
     15413       134  OSM       H2G           -15.1458365222       20.6717668406      -15.8827846387  MEMB      134             0.0000000000
     15414       134  OSM       C3F           -14.4208926097       18.7600571127      -15.1651450031  MEMB      134             0.0000000000
     15415       134  OSM       H3F           -13.4799162388       18.9392280113      -14.5984183113  MEMB      134             0.0000000000
     15416       134  OSM       H3G           -14.3568020582       17.7385911579      -15.6002096719  MEMB      134             0.0000000000
     15417       134  OSM       C4F           -15.6062424147       18.7502089985      -14.1812921943  MEMB      134             0.0000000000
     15418       134  OSM       H4F           -16.5267804969       18.5340114784      -14.7698208184  MEMB      134             0.0000000000
     15419       134  OSM       H4G           -15.7476808510       19.7438864060      -13.7042848295  MEMB      134             0.0000000000
     15420       134  OSM       C5F           -15.4942569968       17.6792062613      -13.0904724534  MEMB      134             0.0000000000
     15421       134  OSM       H5F           -14.7333530158       17.9194698372      -12.3197307574  MEMB      134             0.0000000000
     15422       134  OSM       H5G           -15.1712427942       16.7483283871      -13.5834106710  MEMB      134             0.0000000000
     15423       134  OSM       C6F           -16.8229396950       17.4542303358      -12.3803049446  MEMB      134             0.0000000000
     15424       134  OSM       H6F           -16.7335125404       16.6437410103      -11.6273110483  MEMB      134             0.0000000000
     15425       134  OSM       H6G           -17.5727153632       17.1288189683      -13.1212675658  MEMB      134             0.0000000000
     15426       134  OSM       C7F           -17.2597037453       18.7103575651      -11.6538105053  MEMB      134             0.0000000000
     15427       134  OSM       H7F           -17.5481128471       19.5343215376      -12.3509175389  MEMB      134             0.0000000000
     15428       134  OSM       H7G           -16.4155263465       19.0726222342      -11.0280714896  MEMB      134             0.0000000000
     15429       134  OSM       C8F           -18.4319674674       18.4560993249      -10.7318601992  MEMB      134             0.0000000000
     15430       134  OSM       H8F           -19.3136179069       18.2033200141      -11.3828827504  MEMB      134             0.0000000000
     15431       134  OSM       H8G           -18.5310165329       19.4633856622      -10.2800018118  MEMB      134             0.0000000000
     15432       134  OSM       C9F           -18.2538228308       17.5444204772       -9.5576329371  MEMB      134             0.0000000000
     15433       134  OSM       H9F           -18.6321011178       16.5237202058       -9.6969651234  MEMB      134             0.0000000000
     15434       134  OSM       C10F          -17.6520283624       17.9053134489       -8.4045449182  MEMB      134             0.0000000000
     15435       134  OSM       H10F          -17.5061666020       17.1519300700       -7.6218965747  MEMB      134             0.0000000000
     15436       134  OSM       C11F          -17.0535776225       19.2576051461       -8.0783858783  MEMB      134             0.0000000000
     15437       134  OSM       H11F          -17.0412899676       19.9150162023       -8.9812736099  MEMB      134             0.0000000000
     15438       134  OSM       H11G          -15.9932277619       19.1287127405       -7.7803256694  MEMB      134             0.0000000000
     15439       134  OSM       C12F          -17.8227838663       20.0729641828       -7.0158567248  MEMB      134             0.0000000000
     15440       134  OSM       H12F          -18.8668606450       20.1117238740       -7.3819055413  MEMB      134             0.0000000000
     15441       134  OSM       H12G          -17.4061302318       21.1018036333       -6.9220671826  MEMB      134             0.0000000000
     15442       134  OSM       C13F          -18.0773739348       19.4893336718       -5.6302278836  MEMB      134             0.0000000000
     15443       134  OSM       H13F          -18.5168334378       18.4813916604       -5.7704552312  MEMB      134             0.0000000000
     15444       134  OSM       H13G          -18.8887159246       20.1186641908       -5.1784513387  MEMB      134             0.0000000000
     15445       134  OSM       C14F          -16.8557559649       19.4788272597       -4.7013710814  MEMB      134             0.0000000000
     15446       134  OSM       H14F          -16.2856464679       20.4290578679       -4.8096704200  MEMB      134             0.0000000000
     15447       134  OSM       H14G          -16.2038333957       18.6219961752       -4.9387174432  MEMB      134             0.0000000000
     15448       134  OSM       C15F          -17.2868473088       19.3727764735       -3.2499962450  MEMB      134             0.0000000000
     15449       134  OSM       H15F          -17.8267556463       18.4080115246       -3.0794052936  MEMB      134             0.0000000000
     15450       134  OSM       H15G          -18.0071566292       20.2183359475       -3.2191112713  MEMB      134             0.0000000000
     15451       134  OSM       C16F          -16.2227439029       19.5679720376       -2.1489953275  MEMB      134             0.0000000000
     15452       134  OSM       H16F          -16.6182556825       19.8578311558       -1.1690699706  MEMB      134             0.0000000000
     15453       134  OSM       H16G          -15.6221762505       20.4662962000       -2.3031401145  MEMB      134             0.0000000000
     15454       134  OSM       C17F          -15.4092399574       18.2947812091       -1.9610844353  MEMB      134             0.0000000000
     15455       134  OSM       H17F          -14.6832699947       18.3043463496       -2.8019472990  MEMB      134             0.0000000000
     15456       134  OSM       H17G          -16.0828311198       17.4091360364       -2.0610929698  MEMB      134             0.0000000000
     15457       134  OSM       C18F          -14.6914697619       18.1479174942       -0.6231581274  MEMB      134             0.0000000000
     15458       134  OSM       H18F          -13.8880715528       18.9049656288       -0.5167704758  MEMB      134             0.0000000000
     15459       134  OSM       H18G          -14.2271707367       17.1396823609       -0.5766656272  MEMB      134             0.0000000000
     15460       134  OSM       H18H          -15.4032358493       18.2487856564        0.2275181267  MEMB      134             0.0000000000
     15461       135  SOPE      N              -6.6332567669      -26.9948899853      -21.4499136353  MEMB      135             0.0000000000
     15462       135  SOPE      HN1            -6.1552542328      -27.5204532986      -20.6725454432  MEMB      135             0.0000000000
     15463       135  SOPE      HN2            -6.3237977971      -27.4459160235      -22.3038661120  MEMB      135             0.0000000000
     15464       135  SOPE      HN3            -6.1983072884      -26.0753869500      -21.1834049377  MEMB      135             0.0000000000
     15465       135  SOPE      C12            -8.0234522976      -26.9607931543      -20.8980297439  MEMB      135             0.0000000000
     15466       135  SOPE      H12A           -8.0130831594      -26.7289672593      -19.8012598996  MEMB      135             0.0000000000
     15467       135  SOPE      H12B           -8.4482646758      -27.9702518042      -20.9874545467  MEMB      135             0.0000000000
     15468       135  SOPE      C11            -8.6705661233      -25.8433657210      -21.6622811417  MEMB      135             0.0000000000
     15469       135  SOPE      H11A           -9.7542362513      -25.8536508604      -21.4149878211  MEMB      135             0.0000000000
     15470       135  SOPE      H11B           -8.5825539630      -26.0761319188      -22.7413565470  MEMB      135             0.0000000000
     15471       135  SOPE      P              -8.9268188594      -23.3730256346      -20.9244046107  MEMB      135             0.0000000000
     15472       135  SOPE      O13            -9.7889116741      -22.9957723007      -22.0621920079  MEMB      135             0.0000000000
     15473       135  SOPE      O14            -8.0223779234      -22.3267872952      -20.4029237015  MEMB      135             0.0000000000
     15474       135  SOPE      O12            -8.0045648767      -24.5985324127      -21.3947735276  MEMB      135             0.0000000000
     15475       135  SOPE      O11            -9.8180766766      -24.0503223355      -19.8082977844  MEMB      135             0.0000000000
     15476       135  SOPE      C1             -9.3407890124      -24.5379711873      -18.5741510192  MEMB      135             0.0000000000
     15477       135  SOPE      HA             -8.2403474663      -24.3886628406      -18.4679575140  MEMB      135             0.0000000000
     15478       135  SOPE      HB             -9.5360506123      -25.6271713357      -18.5228091690  MEMB      135             0.0000000000
     15479       135  SOPE      C2            -10.0946769279      -23.8738114541      -17.3985175893  MEMB      135             0.0000000000
     15480       135  SOPE      HS            -11.1873720308      -23.9381407610      -17.5166049809  MEMB      135             0.0000000000
     15481       135  SOPE      O21            -9.6690260506      -22.5172884378      -17.3504414543  MEMB      135             0.0000000000
     15482       135  SOPE      C21           -10.2431501065      -21.7319636431      -16.5241134907  MEMB      135             0.0000000000
     15483       135  SOPE      O22           -11.1507048658      -22.0189567420      -15.7436192876  MEMB      135             0.0000000000
     15484       135  SOPE      C22            -9.4936318123      -20.4356862664      -16.6629768685  MEMB      135             0.0000000000
     15485       135  SOPE      H2R            -9.5633322605      -20.0068956196      -17.6745551433  MEMB      135             0.0000000000
     15486       135  SOPE      H2S            -8.4142236087      -20.6207966891      -16.4127518627  MEMB      135             0.0000000000
     15487       135  SOPE      C3             -9.7724027658      -24.6064864226      -16.1309211604  MEMB      135             0.0000000000
     15488       135  SOPE      HX             -9.7661316568      -25.7055276328      -16.2884086721  MEMB      135             0.0000000000
     15489       135  SOPE      HY            -10.4575434333      -24.3440201318      -15.2795952444  MEMB      135             0.0000000000
     15490       135  SOPE      O31            -8.4573712261      -24.1903700591      -15.9322963729  MEMB      135             0.0000000000
     15491       135  SOPE      C31            -8.1789147349      -24.5494380144      -14.8876977817  MEMB      135             0.0000000000
     15492       135  SOPE      O32            -8.8287087755      -25.2264173698      -14.0428252501  MEMB      135             0.0000000000
     15493       135  SOPE      C32            -6.6108080473      -24.1248665514      -14.9126380167  MEMB      135             0.0000000000
     15494       135  SOPE      H2X            -6.3168899479      -23.1001885754      -14.7749862391  MEMB      135             0.0000000000
     15495       135  SOPE      H2Y            -5.8449644352      -24.8536655721      -15.1593964854  MEMB      135             0.0000000000
     15496       135  SOPE      C23           -10.1487523763      -19.5557629017      -15.6387595554  MEMB      135             0.0000000000
     15497       135  SOPE      H3R           -11.2332538898      -19.3972328668      -15.7051567398  MEMB      135             0.0000000000
     15498       135  SOPE      H3S            -9.7185843404      -18.5452504080      -15.8341990380  MEMB      135             0.0000000000
     15499       135  SOPE      C24            -9.6925412721      -20.2358789395      -14.3531604476  MEMB      135             0.0000000000
     15500       135  SOPE      H4R            -8.9382433132      -21.0176673542      -14.2743410137  MEMB      135             0.0000000000
     15501       135  SOPE      H4S            -8.8251187691      -19.6476261061      -14.6779933851  MEMB      135             0.0000000000
     15502       135  SOPE      C25           -10.4548832661      -20.0683040194      -12.9694755295  MEMB      135             0.0000000000
     15503       135  SOPE      H5R           -10.7271236564      -19.0285980299      -12.8315470341  MEMB      135             0.0000000000
     15504       135  SOPE      H5S           -11.4152830585      -20.5217869338      -13.2355197503  MEMB      135             0.0000000000
     15505       135  SOPE      C26            -9.8436241554      -20.6322701107      -11.5721710438  MEMB      135             0.0000000000
     15506       135  SOPE      H6R           -10.1945710534      -21.6607028475      -11.5962002434  MEMB      135             0.0000000000
     15507       135  SOPE      H6S            -8.7712275618      -20.5323624616      -11.4814053034  MEMB      135             0.0000000000
     15508       135  SOPE      C27            -9.9501166887      -20.0484291018      -10.0859782409  MEMB      135             0.0000000000
     15509       135  SOPE      H7R            -9.6871317937      -19.0283546580      -10.0031788354  MEMB      135             0.0000000000
     15510       135  SOPE      H7S           -10.9525316819      -19.7135328913      -10.2135718035  MEMB      135             0.0000000000
     15511       135  SOPE      C28            -9.2901587302      -20.6109960117       -8.6975805998  MEMB      135             0.0000000000
     15512       135  SOPE      H8R            -8.3846960174      -20.0024570437       -8.6799831229  MEMB      135             0.0000000000
     15513       135  SOPE      H8S            -9.4759245298      -20.7433521340       -7.5593564444  MEMB      135             0.0000000000
     15514       135  SOPE      C29            -9.7948626068      -21.8745124268       -9.1767759673  MEMB      135             0.0000000000
     15515       135  SOPE      H91           -10.7444668599      -21.9713621208       -9.5775969899  MEMB      135             0.0000000000
     15516       135  SOPE      C210           -9.2847368344      -22.9685928820       -9.2173863687  MEMB      135             0.0000000000
     15517       135  SOPE      H101          -10.0462163801      -23.6965575858       -8.9423234550  MEMB      135             0.0000000000
     15518       135  SOPE      C211           -7.9865979106      -22.7763079413       -8.6516261403  MEMB      135             0.0000000000
     15519       135  SOPE      H11R           -7.3994821897      -21.9794789988       -9.1793748994  MEMB      135             0.0000000000
     15520       135  SOPE      H11S           -7.7251958800      -23.6983525733       -9.0528215619  MEMB      135             0.0000000000
     15521       135  SOPE      C212           -7.8016407494      -22.7031642569       -7.1397338729  MEMB      135             0.0000000000
     15522       135  SOPE      H12R           -7.9710279435      -21.6865333945       -6.7375004901  MEMB      135             0.0000000000
     15523       135  SOPE      H12S           -6.7172566710      -22.8418780942       -6.9999548518  MEMB      135             0.0000000000
     15524       135  SOPE      C213           -8.5977673464      -23.7345511526       -6.3409721580  MEMB      135             0.0000000000
     15525       135  SOPE      H13R           -8.3274979720      -24.7485482684       -6.7137610410  MEMB      135             0.0000000000
     15526       135  SOPE      H13S           -9.6998831667      -23.6380035607       -6.4632415909  MEMB      135             0.0000000000
     15527       135  SOPE      C214           -8.2415655233      -23.6555822413       -4.8631868042  MEMB      135             0.0000000000
     15528       135  SOPE      H14R           -8.5010596013      -22.6905054786       -4.3799756982  MEMB      135             0.0000000000
     15529       135  SOPE      H14S           -7.1381512973      -23.8205690337       -4.7787568547  MEMB      135             0.0000000000
     15530       135  SOPE      C215           -8.9305584302      -24.7468418795       -4.0969367551  MEMB      135             0.0000000000
     15531       135  SOPE      H15R           -9.0025755513      -25.6508952466       -4.7676142224  MEMB      135             0.0000000000
     15532       135  SOPE      H15S           -9.9546628610      -24.4975379101       -3.7595862976  MEMB      135             0.0000000000
     15533       135  SOPE      C216           -8.0628901559      -25.1998491721       -2.9505570778  MEMB      135             0.0000000000
     15534       135  SOPE      H16R           -7.1869485647      -25.6212136129       -3.5164457889  MEMB      135             0.0000000000
     15535       135  SOPE      H16S           -8.6962667629      -25.9277194638       -2.3813678103  MEMB      135             0.0000000000
     15536       135  SOPE      C217           -7.3359062386      -24.3894337230       -1.9166263913  MEMB      135             0.0000000000
     15537       135  SOPE      H17R           -7.9952190623      -23.5581391371       -1.6002785239  MEMB      135             0.0000000000
     15538       135  SOPE      H17S           -6.3583495236      -24.0472544401       -2.3205172760  MEMB      135             0.0000000000
     15539       135  SOPE      C218           -6.8998840783      -25.2901796112       -0.7624379693  MEMB      135             0.0000000000
     15540       135  SOPE      H18R           -6.1145745348      -26.0100385847       -1.0311718692  MEMB      135             0.0000000000
     15541       135  SOPE      H18S           -7.7536645153      -25.8987687817       -0.4000167708  MEMB      135             0.0000000000
     15542       135  SOPE      H18T           -6.4510381699      -24.6656037126        0.0293768370  MEMB      135             0.0000000000
     15543       135  SOPE      C33            -6.0214217577      -24.2937149942      -13.6387179968  MEMB      135             0.0000000000
     15544       135  SOPE      H3X            -6.7917819397      -25.0513219532      -13.4301350197  MEMB      135             0.0000000000
     15545       135  SOPE      H3Y            -6.7328464517      -23.8291074732      -12.9582579812  MEMB      135             0.0000000000
     15546       135  SOPE      C34            -4.3280263422      -24.5270556631      -13.1899616555  MEMB      135             0.0000000000
     15547       135  SOPE      H4X            -3.8838576360      -23.5613325662      -13.2724905246  MEMB      135             0.0000000000
     15548       135  SOPE      H4Y            -3.7425189328      -25.4639282598      -13.3240858618  MEMB      135             0.0000000000
     15549       135  SOPE      C35            -3.6292941488      -24.3884873732      -11.5990575085  MEMB      135             0.0000000000
     15550       135  SOPE      H5X            -3.1040896025      -24.9128599205      -10.7573446115  MEMB      135             0.0000000000
     15551       135  SOPE      H5Y            -3.7133179810      -25.3278875086      -11.0142969441  MEMB      135             0.0000000000
     15552       135  SOPE      C36            -4.0111643120      -23.0332335680      -10.9311058247  MEMB      135             0.0000000000
     15553       135  SOPE      H6X            -4.9755881509      -22.6933361082      -10.6065134581  MEMB      135             0.0000000000
     15554       135  SOPE      H6Y            -3.7903163532      -22.3252494926      -11.7089238639  MEMB      135             0.0000000000
     15555       135  SOPE      C37            -3.6124143242      -22.7497183764       -9.4865599059  MEMB      135             0.0000000000
     15556       135  SOPE      H7X            -2.6285859106      -22.6118698681       -9.7561647407  MEMB      135             0.0000000000
     15557       135  SOPE      H7Y            -3.7557320428      -23.5537028271       -8.8124741226  MEMB      135             0.0000000000
     15558       135  SOPE      C38            -4.1251761557      -21.6241449627       -8.5882355141  MEMB      135             0.0000000000
     15559       135  SOPE      H8X            -5.2111056914      -21.6496675932       -8.3948520671  MEMB      135             0.0000000000
     15560       135  SOPE      H8Y            -3.7743353716      -20.7761351142       -9.1098133000  MEMB      135             0.0000000000
     15561       135  SOPE      C39            -3.5890128181      -21.6560454945       -7.1931638907  MEMB      135             0.0000000000
     15562       135  SOPE      H9X            -2.5320674979      -21.7495675321       -6.9360202522  MEMB      135             0.0000000000
     15563       135  SOPE      H9Y            -4.2913941032      -22.2032377766       -6.6239048036  MEMB      135             0.0000000000
     15564       135  SOPE      C310           -3.4253148907      -20.7092958294       -6.1437308868  MEMB      135             0.0000000000
     15565       135  SOPE      H10X           -2.8272885800      -20.0734016760       -6.5491465420  MEMB      135             0.0000000000
     15566       135  SOPE      H10Y           -2.8826655495      -21.1708486360       -5.2682414366  MEMB      135             0.0000000000
     15567       135  SOPE      C311           -4.3332466336      -19.6402167300       -6.1495661667  MEMB      135             0.0000000000
     15568       135  SOPE      H11X           -4.6418291463      -19.5782041088       -7.2063104225  MEMB      135             0.0000000000
     15569       135  SOPE      H11Y           -4.1548581566      -18.6021613438       -5.8770358023  MEMB      135             0.0000000000
     15570       135  SOPE      C312           -4.8818513795      -20.2014021578       -4.9649124974  MEMB      135             0.0000000000
     15571       135  SOPE      H12X           -4.1061955320      -20.3328498006       -4.1397382748  MEMB      135             0.0000000000
     15572       135  SOPE      H12Y           -5.2984074356      -21.1822254410       -5.2870443839  MEMB      135             0.0000000000
     15573       135  SOPE      C313           -5.8944983033      -19.2558450873       -4.6268303140  MEMB      135             0.0000000000
     15574       135  SOPE      H13X           -6.4369889322      -19.0000451920       -5.5733941674  MEMB      135             0.0000000000
     15575       135  SOPE      H13Y           -5.4511282425      -18.2983696228       -4.2503258608  MEMB      135             0.0000000000
     15576       135  SOPE      C314           -6.6752418633      -20.0604432580       -3.6421667330  MEMB      135             0.0000000000
     15577       135  SOPE      H14X           -6.0630278185      -20.3366128471       -2.7797549730  MEMB      135             0.0000000000
     15578       135  SOPE      H14Y           -7.1597667346      -20.9633711329       -4.0765369524  MEMB      135             0.0000000000
     15579       135  SOPE      C315           -7.6994146530      -19.1378136013       -3.2141175798  MEMB      135             0.0000000000
     15580       135  SOPE      H15X           -8.0965739544      -19.0840000980       -4.2559054914  MEMB      135             0.0000000000
     15581       135  SOPE      H15Y           -7.1809584567      -18.1895176183       -2.9897536313  MEMB      135             0.0000000000
     15582       135  SOPE      C316           -8.6345567105      -19.6234834444       -2.0899582344  MEMB      135             0.0000000000
     15583       135  SOPE      H16X           -8.6436104158      -20.7283291227       -2.1828899372  MEMB      135             0.0000000000
     15584       135  SOPE      H16Y           -9.7137026886      -19.3455753298       -2.1315398634  MEMB      135             0.0000000000
     15585       135  SOPE      C317           -8.1610653691      -19.0643339463       -0.7528661258  MEMB      135             0.0000000000
     15586       135  SOPE      H17X           -8.8207211075      -19.5534667306        0.0135595532  MEMB      135             0.0000000000
     15587       135  SOPE      H17Y           -8.3579997965      -17.9937278653       -0.6062437464  MEMB      135             0.0000000000
     15588       135  SOPE      C318           -6.6463174169      -19.2703298163       -0.6116872415  MEMB      135             0.0000000000
     15589       135  SOPE      H18X           -6.5800426336      -20.3533008844       -0.9088200521  MEMB      135             0.0000000000
     15590       135  SOPE      H18Y           -6.2679067794      -19.0927612233        0.4240124864  MEMB      135             0.0000000000
     15591       135  SOPE      H18Z           -5.8905868348      -18.8626468028       -1.2635230698  MEMB      135             0.0000000000
     15592       136  OSM       N             -25.4389466429        9.8482473079      -21.5600714167  MEMB      136             0.0000000000
     15593       136  OSM       C15           -24.2558857655        9.6957301872      -20.6462923119  MEMB      136             0.0000000000
     15594       136  OSM       H15A          -23.3437165717        9.4466573746      -21.1800316026  MEMB      136             0.0000000000
     15595       136  OSM       H15B          -24.4276555711        8.8025877353      -20.0206355720  MEMB      136             0.0000000000
     15596       136  OSM       H15C          -24.1257433403       10.5370130146      -19.9891499295  MEMB      136             0.0000000000
     15597       136  OSM       C14           -26.6743486670        9.7441211082      -20.7048544689  MEMB      136             0.0000000000
     15598       136  OSM       H14A          -26.7138291938        8.7295670728      -20.2944229936  MEMB      136             0.0000000000
     15599       136  OSM       H14B          -27.5906351535        9.9151660783      -21.2689516343  MEMB      136             0.0000000000
     15600       136  OSM       H14C          -26.6560217146       10.4397987990      -19.8761881138  MEMB      136             0.0000000000
     15601       136  OSM       C13           -25.4561107218       11.1563935197      -22.2490125525  MEMB      136             0.0000000000
     15602       136  OSM       H13A          -24.6703066431       11.2681712680      -22.9864064822  MEMB      136             0.0000000000
     15603       136  OSM       H13B          -25.3454361460       11.9475372826      -21.5068736980  MEMB      136             0.0000000000
     15604       136  OSM       H13C          -26.4028675340       11.3010890318      -22.7579295076  MEMB      136             0.0000000000
     15605       136  OSM       C12           -25.4366066408        8.6864497930      -22.5510179039  MEMB      136             0.0000000000
     15606       136  OSM       H12A          -24.8131011586        8.9314666207      -23.4015397195  MEMB      136             0.0000000000
     15607       136  OSM       H12B          -26.4516458387        8.5531119525      -22.8878518173  MEMB      136             0.0000000000
     15608       136  OSM       C11           -24.9734918255        7.2851824505      -22.0716678565  MEMB      136             0.0000000000
     15609       136  OSM       H11A          -23.8881170413        7.1485861563      -22.3212806662  MEMB      136             0.0000000000
     15610       136  OSM       H11B          -25.5390698466        6.5421779848      -22.6898320791  MEMB      136             0.0000000000
     15611       136  OSM       P             -25.4040335739        5.6095638245      -20.2078331333  MEMB      136             0.0000000000
     15612       136  OSM       O13           -26.5475939404        4.9718846228      -20.8736027722  MEMB      136             0.0000000000
     15613       136  OSM       O14           -24.1009026369        5.0172636578      -20.2997882187  MEMB      136             0.0000000000
     15614       136  OSM       O11           -25.5016930205        5.6584341581      -18.6717561280  MEMB      136             0.0000000000
     15615       136  OSM       O12           -25.2363482458        7.1015746514      -20.6719334357  MEMB      136             0.0000000000
     15616       136  OSM       C1S           -26.6492132063        6.1869534671      -18.1128327366  MEMB      136             0.0000000000
     15617       136  OSM       H1S           -27.4598764839        5.4556977092      -18.2884244169  MEMB      136             0.0000000000
     15618       136  OSM       H1T           -26.8697207431        7.1807500676      -18.5633726794  MEMB      136             0.0000000000
     15619       136  OSM       NF            -27.6714128167        6.4004532954      -15.9883911906  MEMB      136             0.0000000000
     15620       136  OSM       HNF           -28.0539076794        7.3038390302      -15.8965484630  MEMB      136             0.0000000000
     15621       136  OSM       C2S           -26.4277740782        6.3139826488      -16.6075505907  MEMB      136             0.0000000000
     15622       136  OSM       H2S           -25.8605890726        5.4059107309      -16.2754754406  MEMB      136             0.0000000000
     15623       136  OSM       C3S           -25.6595608107        7.5412298877      -16.2787542692  MEMB      136             0.0000000000
     15624       136  OSM       H3S           -26.1528720951        8.4994762912      -16.5496187857  MEMB      136             0.0000000000
     15625       136  OSM       O3            -24.5522346062        7.5543306484      -17.0972462446  MEMB      136             0.0000000000
     15626       136  OSM       HO3           -24.4239581059        6.6597934737      -17.4403585924  MEMB      136             0.0000000000
     15627       136  OSM       C4S           -25.3375377964        7.5845514272      -14.8009627748  MEMB      136             0.0000000000
     15628       136  OSM       H4S           -24.5157713563        6.9376559829      -14.4418899716  MEMB      136             0.0000000000
     15629       136  OSM       C5S           -25.9350565304        8.4420524725      -13.9398107496  MEMB      136             0.0000000000
     15630       136  OSM       H5S           -26.7486212488        9.0542332857      -14.3493999555  MEMB      136             0.0000000000
     15631       136  OSM       C6S           -25.7218226509        8.6342045077      -12.4519019948  MEMB      136             0.0000000000
     15632       136  OSM       H6S           -26.7078957841        8.6381830418      -11.9645848406  MEMB      136             0.0000000000
     15633       136  OSM       H6T           -25.2842095040        9.6448401480      -12.2584235294  MEMB      136             0.0000000000
     15634       136  OSM       C7S           -24.9570673764        7.5887131989      -11.6280930886  MEMB      136             0.0000000000
     15635       136  OSM       H7S           -24.0316616011        7.3178856082      -12.0954822250  MEMB      136             0.0000000000
     15636       136  OSM       H7T           -25.4124864731        6.5957680927      -11.7075982499  MEMB      136             0.0000000000
     15637       136  OSM       C8S           -24.6762822753        8.0421902502      -10.1738149358  MEMB      136             0.0000000000
     15638       136  OSM       H8S           -25.5417939862        8.5332419692       -9.7048191230  MEMB      136             0.0000000000
     15639       136  OSM       H8T           -23.8407161549        8.7789714330      -10.2056704871  MEMB      136             0.0000000000
     15640       136  OSM       C9S           -24.2879939293        6.8609547751       -9.2927094278  MEMB      136             0.0000000000
     15641       136  OSM       H9S           -23.5712854879        6.3969235305       -9.9841166322  MEMB      136             0.0000000000
     15642       136  OSM       H9T           -25.1413298703        6.1671872168       -9.1222939889  MEMB      136             0.0000000000
     15643       136  OSM       C10S          -23.5970416724        7.1572277700       -7.9529310115  MEMB      136             0.0000000000
     15644       136  OSM       H10S          -22.7993580874        7.9163941997       -8.1114500983  MEMB      136             0.0000000000
     15645       136  OSM       H10T          -23.1215486852        6.2320415583       -7.5460905591  MEMB      136             0.0000000000
     15646       136  OSM       C11S          -24.5379427982        7.7357993381       -6.8999862601  MEMB      136             0.0000000000
     15647       136  OSM       H11S          -24.8656370284        8.7222733799       -7.2916121215  MEMB      136             0.0000000000
     15648       136  OSM       H11T          -23.9884800179        7.8951091784       -5.9447327859  MEMB      136             0.0000000000
     15649       136  OSM       C12S          -25.8159434613        6.9529523069       -6.6040989380  MEMB      136             0.0000000000
     15650       136  OSM       H12S          -26.5035205825        6.9615062561       -7.4796669165  MEMB      136             0.0000000000
     15651       136  OSM       H12T          -26.3231778611        7.5322048313       -5.8003332503  MEMB      136             0.0000000000
     15652       136  OSM       C13S          -25.5962437224        5.5194055247       -6.1352100711  MEMB      136             0.0000000000
     15653       136  OSM       H13S          -24.7924456417        5.4364577296       -5.3781002183  MEMB      136             0.0000000000
     15654       136  OSM       H13T          -25.2783385537        4.8786118319       -6.9958646592  MEMB      136             0.0000000000
     15655       136  OSM       C14S          -26.8845430220        4.9554597401       -5.5394719139  MEMB      136             0.0000000000
     15656       136  OSM       H14S          -26.9384059492        4.0295730775       -6.1335642140  MEMB      136             0.0000000000
     15657       136  OSM       H14T          -27.7795701013        5.5736152864       -5.7482778302  MEMB      136             0.0000000000
     15658       136  OSM       C15S          -26.8266970085        4.5259370517       -4.0698946245  MEMB      136             0.0000000000
     15659       136  OSM       H15S          -25.7833955119        4.2185737904       -3.8887586691  MEMB      136             0.0000000000
     15660       136  OSM       H15T          -27.5153342895        3.6509484153       -3.9484123106  MEMB      136             0.0000000000
     15661       136  OSM       C16S          -27.1436179542        5.5496479033       -2.9809343685  MEMB      136             0.0000000000
     15662       136  OSM       H16S          -27.4030288690        5.0118062729       -2.0383615843  MEMB      136             0.0000000000
     15663       136  OSM       H16T          -28.0249264181        6.1391674155       -3.3042101791  MEMB      136             0.0000000000
     15664       136  OSM       C17S          -26.0130841567        6.5376334807       -2.6664498763  MEMB      136             0.0000000000
     15665       136  OSM       H17S          -26.4550051077        7.2844682373       -1.9735976502  MEMB      136             0.0000000000
     15666       136  OSM       H17T          -25.7565433669        7.0684308180       -3.6083841237  MEMB      136             0.0000000000
     15667       136  OSM       C18S          -24.7384613093        5.9970668738       -2.0053294218  MEMB      136             0.0000000000
     15668       136  OSM       H18S          -24.1470633333        6.8319036805       -1.6051477638  MEMB      136             0.0000000000
     15669       136  OSM       H18T          -24.0869569815        5.4698104905       -2.7249397245  MEMB      136             0.0000000000
     15670       136  OSM       H18U          -24.9630362114        5.3240284378       -1.1566854976  MEMB      136             0.0000000000
     15671       136  OSM       C1F           -28.2793593210        5.3264046920      -15.5981405468  MEMB      136             0.0000000000
     15672       136  OSM       OF            -27.8289055725        4.1964186889      -15.6784936402  MEMB      136             0.0000000000
     15673       136  OSM       C2F           -29.5738045122        5.6158759130      -15.0537618458  MEMB      136             0.0000000000
     15674       136  OSM       H2F           -30.1964716852        4.9570086891      -15.6553456477  MEMB      136             0.0000000000
     15675       136  OSM       H2G           -29.9352348458        6.6468046008      -15.2375793877  MEMB      136             0.0000000000
     15676       136  OSM       C3F           -29.5743519724        5.1952330155      -13.5902430627  MEMB      136             0.0000000000
     15677       136  OSM       H3F           -29.5073360513        4.0864789264      -13.4967819461  MEMB      136             0.0000000000
     15678       136  OSM       H3G           -30.4960553262        5.6564003242      -13.1825339979  MEMB      136             0.0000000000
     15679       136  OSM       C4F           -28.7534384947        5.8168286876      -12.5275472310  MEMB      136             0.0000000000
     15680       136  OSM       H4F           -28.5833988543        6.8493691839      -12.8916665590  MEMB      136             0.0000000000
     15681       136  OSM       H4G           -27.8363733222        5.1974399423      -12.4656326879  MEMB      136             0.0000000000
     15682       136  OSM       C5F           -29.5480098997        5.8505358559      -11.1939809831  MEMB      136             0.0000000000
     15683       136  OSM       H5F           -29.9334665607        4.8407430169      -10.9184227244  MEMB      136             0.0000000000
     15684       136  OSM       H5G           -30.4428529018        6.5118214693      -11.2954662355  MEMB      136             0.0000000000
     15685       136  OSM       C6F           -28.6295435756        6.3237142249      -10.0844826464  MEMB      136             0.0000000000
     15686       136  OSM       H6F           -27.6426021272        5.8587740400      -10.3220359338  MEMB      136             0.0000000000
     15687       136  OSM       H6G           -28.9260590451        5.9427352159       -9.0901064031  MEMB      136             0.0000000000
     15688       136  OSM       C7F           -28.4606124439        7.8457630632      -10.0511699895  MEMB      136             0.0000000000
     15689       136  OSM       H7F           -28.4017042655        8.2130390208      -11.0974505047  MEMB      136             0.0000000000
     15690       136  OSM       H7G           -27.4909826619        8.0434889738       -9.5511978786  MEMB      136             0.0000000000
     15691       136  OSM       C8F           -29.5427918681        8.6704681814       -9.3257490404  MEMB      136             0.0000000000
     15692       136  OSM       H8F           -30.5126984005        8.5648642841       -9.8527877671  MEMB      136             0.0000000000
     15693       136  OSM       H8G           -29.2394201741        9.7368502291       -9.4371985547  MEMB      136             0.0000000000
     15694       136  OSM       C9F           -29.7761498852        8.3161858585       -7.8826054533  MEMB      136             0.0000000000
     15695       136  OSM       H9F           -30.1395767122        7.2954631398       -7.7052521988  MEMB      136             0.0000000000
     15696       136  OSM       C10F          -29.5450685912        9.0985749968       -6.8220841382  MEMB      136             0.0000000000
     15697       136  OSM       H10F          -29.7810078743        8.7265242698       -5.8164410664  MEMB      136             0.0000000000
     15698       136  OSM       C11F          -28.9949620559       10.4893384184       -6.8397289661  MEMB      136             0.0000000000
     15699       136  OSM       H11F          -29.5747214442       11.2113411981       -6.2186983566  MEMB      136             0.0000000000
     15700       136  OSM       H11G          -28.8787309856       10.9378662603       -7.8503048482  MEMB      136             0.0000000000
     15701       136  OSM       C12F          -27.6203839916       10.3103539527       -6.2382408897  MEMB      136             0.0000000000
     15702       136  OSM       H12F          -27.0699203076       11.1028825043       -6.7524180474  MEMB      136             0.0000000000
     15703       136  OSM       H12G          -27.0247684002        9.4407485368       -6.5677543225  MEMB      136             0.0000000000
     15704       136  OSM       C13F          -27.7202932174       10.2669837854       -4.7116663150  MEMB      136             0.0000000000
     15705       136  OSM       H13F          -28.3883949789        9.4998323597       -4.3127610899  MEMB      136             0.0000000000
     15706       136  OSM       H13G          -28.1270831849       11.2575909778       -4.3675584466  MEMB      136             0.0000000000
     15707       136  OSM       C14F          -26.4207743904        9.8019804613       -4.0667456933  MEMB      136             0.0000000000
     15708       136  OSM       H14F          -26.0350846180       10.6860739327       -4.4559862142  MEMB      136             0.0000000000
     15709       136  OSM       H14G          -25.6433596419        9.1496355052       -4.4686471895  MEMB      136             0.0000000000
     15710       136  OSM       C15F          -26.3840766722        9.8747468742       -2.5826568265  MEMB      136             0.0000000000
     15711       136  OSM       H15F          -27.1797256831        9.4156188468       -1.9989093611  MEMB      136             0.0000000000
     15712       136  OSM       H15G          -26.8570577415       10.8599864746       -2.5119507299  MEMB      136             0.0000000000
     15713       136  OSM       C16F          -24.9784289035        9.6082245681       -1.9802750983  MEMB      136             0.0000000000
     15714       136  OSM       H16F          -24.1372826004       10.3610210994       -1.9075161437  MEMB      136             0.0000000000
     15715       136  OSM       H16G          -24.4381065624        8.9322042856       -2.6356062572  MEMB      136             0.0000000000
     15716       136  OSM       C17F          -25.0244515593        9.1214069929       -0.5916304801  MEMB      136             0.0000000000
     15717       136  OSM       H17F          -25.6441425518        8.2452372119       -0.4462863967  MEMB      136             0.0000000000
     15718       136  OSM       H17G          -25.4425848666        9.7496309753        0.2466591171  MEMB      136             0.0000000000
     15719       136  OSM       C18F          -23.5451899952        8.8813282014       -0.4796927396  MEMB      136             0.0000000000
     15720       136  OSM       H18F          -22.9321783091        8.1096693361       -0.9008106108  MEMB      136             0.0000000000
     15721       136  OSM       H18G          -23.6346464455        8.4519651674        0.4912243463  MEMB      136             0.0000000000
     15722       136  OSM       H18H          -22.9581661384        9.8438500805       -0.5601376416  MEMB      136             0.0000000000
     15723       137  SAPS      N               0.6394598529      -25.6130112829      -21.2844824507  MEMB      137             0.0000000000
     15724       137  SAPS      HN1             1.2228902555      -26.4523049940      -21.4331415917  MEMB      137             0.0000000000
     15725       137  SAPS      HN2            -0.2519699117      -25.6959802838      -21.8094162725  MEMB      137             0.0000000000
     15726       137  SAPS      HN3             1.1428345824      -24.7375474850      -21.6026137343  MEMB      137             0.0000000000
     15727       137  SAPS      C12             0.3565113691      -25.4242135374      -19.8360248877  MEMB      137             0.0000000000
     15728       137  SAPS      H12A            1.2185124658      -25.7371496376      -19.2721626321  MEMB      137             0.0000000000
     15729       137  SAPS      C13             0.0749740604      -23.9777986502      -19.4784727634  MEMB      137             0.0000000000
     15730       137  SAPS      O13A           -0.2739625087      -23.1633321283      -20.3726910621  MEMB      137             0.0000000000
     15731       137  SAPS      O13B            0.1686540484      -23.7174877264      -18.2544698900  MEMB      137             0.0000000000
     15732       137  SAPS      C11            -0.8905523320      -26.2317057452      -19.4061922857  MEMB      137             0.0000000000
     15733       137  SAPS      H11A           -1.7319109110      -25.9264794391      -20.0794245246  MEMB      137             0.0000000000
     15734       137  SAPS      H11B           -1.2084289678      -25.9660183141      -18.3698323424  MEMB      137             0.0000000000
     15735       137  SAPS      P              -1.3791102018      -28.5952123819      -20.3723130697  MEMB      137             0.0000000000
     15736       137  SAPS      O13            -1.3477046405      -28.0555789957      -21.7505455945  MEMB      137             0.0000000000
     15737       137  SAPS      O14            -0.8998598199      -29.9739118348      -20.1491621257  MEMB      137             0.0000000000
     15738       137  SAPS      O12            -0.5636589635      -27.6186322309      -19.4483525356  MEMB      137             0.0000000000
     15739       137  SAPS      O11            -2.8401672387      -28.3708290947      -19.8384542911  MEMB      137             0.0000000000
     15740       137  SAPS      C1             -4.0013239777      -29.0187423579      -20.3322637169  MEMB      137             0.0000000000
     15741       137  SAPS      HA             -4.5572874400      -28.2979645444      -20.9492123817  MEMB      137             0.0000000000
     15742       137  SAPS      HB             -3.7707602421      -29.8312533493      -21.0421996866  MEMB      137             0.0000000000
     15743       137  SAPS      C2             -4.8775212612      -29.5231880708      -19.1444677361  MEMB      137             0.0000000000
     15744       137  SAPS      HS             -5.8886424380      -29.7661360929      -19.5572409325  MEMB      137             0.0000000000
     15745       137  SAPS      O21            -4.9451816572      -28.5828947311      -18.0656867904  MEMB      137             0.0000000000
     15746       137  SAPS      C21            -5.3390429416      -27.4197982984      -18.3046223758  MEMB      137             0.0000000000
     15747       137  SAPS      O22            -5.8964574750      -26.9971905176      -19.2449056481  MEMB      137             0.0000000000
     15748       137  SAPS      C22            -5.2472063002      -26.3757870994      -17.3603740153  MEMB      137             0.0000000000
     15749       137  SAPS      H2R            -4.1847501239      -26.2646019368      -17.1214077986  MEMB      137             0.0000000000
     15750       137  SAPS      H2S            -5.6407985064      -25.4429233228      -17.8771971700  MEMB      137             0.0000000000
     15751       137  SAPS      C3             -4.3432944649      -30.7760003052      -18.4644511540  MEMB      137             0.0000000000
     15752       137  SAPS      HX             -4.1836488405      -31.5929094154      -19.1261871328  MEMB      137             0.0000000000
     15753       137  SAPS      HY             -4.9983653272      -31.1867999354      -17.7036826523  MEMB      137             0.0000000000
     15754       137  SAPS      O31            -3.0968841384      -30.5016908999      -17.9336660702  MEMB      137             0.0000000000
     15755       137  SAPS      C31            -2.9955627675      -30.5856624472      -16.6684680859  MEMB      137             0.0000000000
     15756       137  SAPS      O32            -3.7032096624      -31.0320708338      -15.8167435454  MEMB      137             0.0000000000
     15757       137  SAPS      C32            -1.6761114520      -30.3650333351      -16.3226763207  MEMB      137             0.0000000000
     15758       137  SAPS      H2X            -1.1778458192      -31.0634349124      -17.0612133946  MEMB      137             0.0000000000
     15759       137  SAPS      H2Y            -1.7004481400      -30.7024299148      -15.2382110709  MEMB      137             0.0000000000
     15760       137  SAPS      C23            -6.2354850140      -26.7817534589      -16.3200707231  MEMB      137             0.0000000000
     15761       137  SAPS      H3R            -7.1726151975      -27.3343285878      -16.6160094056  MEMB      137             0.0000000000
     15762       137  SAPS      H3S            -6.8224517910      -25.8734792804      -16.2948308642  MEMB      137             0.0000000000
     15763       137  SAPS      C24            -5.3685940502      -27.0195161653      -15.0417634083  MEMB      137             0.0000000000
     15764       137  SAPS      H4R            -4.3418369707      -26.7270361466      -15.0438227256  MEMB      137             0.0000000000
     15765       137  SAPS      H4S            -4.9783746482      -28.0685224296      -15.3962617999  MEMB      137             0.0000000000
     15766       137  SAPS      C25            -6.3718839372      -27.3614012104      -13.8040865393  MEMB      137             0.0000000000
     15767       137  SAPS      H5R            -7.3144833466      -27.6411424009      -13.7531113591  MEMB      137             0.0000000000
     15768       137  SAPS      C26            -6.2160505443      -27.0156693979      -12.4114875000  MEMB      137             0.0000000000
     15769       137  SAPS      H6R            -6.9497750988      -27.7828183199      -11.8328538042  MEMB      137             0.0000000000
     15770       137  SAPS      C27            -4.9772632127      -27.0061044133      -11.5934094613  MEMB      137             0.0000000000
     15771       137  SAPS      H7R            -4.2450832077      -27.1057488825      -12.5800708136  MEMB      137             0.0000000000
     15772       137  SAPS      H7S            -4.7912155021      -27.3373656777      -10.8508360553  MEMB      137             0.0000000000
     15773       137  SAPS      C28            -6.0443919505      -25.5741431637      -11.6106572569  MEMB      137             0.0000000000
     15774       137  SAPS      H8R            -5.6671852008      -24.8933484836      -11.6654059544  MEMB      137             0.0000000000
     15775       137  SAPS      C29            -6.4781981140      -24.8565523133      -10.3494086493  MEMB      137             0.0000000000
     15776       137  SAPS      H9R            -6.4769815918      -23.6199882252      -10.9455206796  MEMB      137             0.0000000000
     15777       137  SAPS      C210           -5.4962325792      -24.7282950189       -9.3342240240  MEMB      137             0.0000000000
     15778       137  SAPS      H10R           -5.6983507502      -23.8149959556       -8.7649886791  MEMB      137             0.0000000000
     15779       137  SAPS      H10S           -4.5547007035      -25.0825223656       -9.3780905106  MEMB      137             0.0000000000
     15780       137  SAPS      C211           -6.3953358303      -25.8282878408       -8.6613732896  MEMB      137             0.0000000000
     15781       137  SAPS      H11R           -7.4549804173      -25.9608639871       -9.0301792192  MEMB      137             0.0000000000
     15782       137  SAPS      C212           -5.7738906944      -26.7191694530       -7.9721282562  MEMB      137             0.0000000000
     15783       137  SAPS      H12R           -6.4444436924      -27.5367591181       -7.7746566678  MEMB      137             0.0000000000
     15784       137  SAPS      C213           -4.2802436824      -26.7880523315       -7.6680680882  MEMB      137             0.0000000000
     15785       137  SAPS      H13R           -4.1676032448      -26.4153342263       -6.6438597050  MEMB      137             0.0000000000
     15786       137  SAPS      H13S           -3.6085337369      -26.1244846594       -8.2351814887  MEMB      137             0.0000000000
     15787       137  SAPS      C214           -3.5990977987      -28.0908860024       -7.8234822481  MEMB      137             0.0000000000
     15788       137  SAPS      H14R           -3.3327648639      -28.2715653732       -8.8586371722  MEMB      137             0.0000000000
     15789       137  SAPS      C215           -3.3263634455      -29.0440199117       -6.9345576420  MEMB      137             0.0000000000
     15790       137  SAPS      H15R           -2.8530601801      -29.9638587972       -7.3096065096  MEMB      137             0.0000000000
     15791       137  SAPS      C216           -3.6776074813      -29.0096181043       -5.4893587531  MEMB      137             0.0000000000
     15792       137  SAPS      H16R           -3.8704867411      -27.9637046451       -5.1807486166  MEMB      137             0.0000000000
     15793       137  SAPS      H16S           -2.8155078964      -29.3426025324       -4.8912336773  MEMB      137             0.0000000000
     15794       137  SAPS      C217           -4.8843068285      -29.8688974733       -5.1151968410  MEMB      137             0.0000000000
     15795       137  SAPS      H17R           -4.5758343790      -30.9213151720       -4.9913934518  MEMB      137             0.0000000000
     15796       137  SAPS      H17S           -5.6987619586      -29.8500595297       -5.8746248949  MEMB      137             0.0000000000
     15797       137  SAPS      C218           -5.4701497347      -29.3589277177       -3.8231107064  MEMB      137             0.0000000000
     15798       137  SAPS      H18R           -4.7012029144      -29.1397303990       -3.0525887210  MEMB      137             0.0000000000
     15799       137  SAPS      H18S           -6.0946474021      -30.1402612223       -3.3603181120  MEMB      137             0.0000000000
     15800       137  SAPS      C219           -6.3558635005      -28.1733804454       -4.0866685068  MEMB      137             0.0000000000
     15801       137  SAPS      H19R           -7.1111843348      -28.3501708286       -4.8906121533  MEMB      137             0.0000000000
     15802       137  SAPS      H19S           -5.8230605558      -27.2353375715       -4.3922802893  MEMB      137             0.0000000000
     15803       137  SAPS      C220           -7.1440787341      -27.9823204990       -2.8351294250  MEMB      137             0.0000000000
     15804       137  SAPS      H20R           -7.7648412747      -28.7956152805       -2.4556271428  MEMB      137             0.0000000000
     15805       137  SAPS      H20S           -7.9413902335      -27.3777999846       -3.2332745375  MEMB      137             0.0000000000
     15806       137  SAPS      H20T           -6.5547911649      -27.5028501340       -2.0347698248  MEMB      137             0.0000000000
     15807       137  SAPS      C33            -0.9283200998      -29.1510754889      -16.5864064206  MEMB      137             0.0000000000
     15808       137  SAPS      H3X            -0.8056536919      -29.2047454404      -17.6862706425  MEMB      137             0.0000000000
     15809       137  SAPS      H3Y             0.0883519800      -29.2157815764      -16.1517661774  MEMB      137             0.0000000000
     15810       137  SAPS      C34            -1.6667044606      -28.0230559667      -15.9619424952  MEMB      137             0.0000000000
     15811       137  SAPS      H4X            -2.6286866445      -27.9689093667      -16.5208551537  MEMB      137             0.0000000000
     15812       137  SAPS      H4Y            -1.0175598915      -27.1605464404      -16.1798850870  MEMB      137             0.0000000000
     15813       137  SAPS      C35            -1.9617049661      -28.1394954658      -14.4505984833  MEMB      137             0.0000000000
     15814       137  SAPS      H5X            -2.6244746463      -29.0114545367      -14.2272129661  MEMB      137             0.0000000000
     15815       137  SAPS      H5Y            -2.4967561544      -27.2230063101      -14.1636886839  MEMB      137             0.0000000000
     15816       137  SAPS      C36            -0.7493610524      -28.2096436117      -13.5194507190  MEMB      137             0.0000000000
     15817       137  SAPS      H6X             0.1692917299      -27.7687785929      -13.9428056998  MEMB      137             0.0000000000
     15818       137  SAPS      H6Y            -0.5611196368      -29.2488106699      -13.5118666434  MEMB      137             0.0000000000
     15819       137  SAPS      C37            -0.9898559381      -27.7847179545      -12.0708799902  MEMB      137             0.0000000000
     15820       137  SAPS      H7X            -0.2006504529      -28.1918088770      -11.3986355407  MEMB      137             0.0000000000
     15821       137  SAPS      H7Y            -1.9668782530      -28.1601104690      -11.6877137341  MEMB      137             0.0000000000
     15822       137  SAPS      C38            -0.8866604786      -26.2790675709      -12.0230877514  MEMB      137             0.0000000000
     15823       137  SAPS      H8X            -1.6612340573      -25.8617127863      -12.7054299794  MEMB      137             0.0000000000
     15824       137  SAPS      H8Y             0.1001884839      -25.9452682099      -12.4070244193  MEMB      137             0.0000000000
     15825       137  SAPS      C39            -0.9554920018      -25.7393819414      -10.6218010731  MEMB      137             0.0000000000
     15826       137  SAPS      H9X            -0.1434739784      -26.0874618122       -9.9609899925  MEMB      137             0.0000000000
     15827       137  SAPS      H9Y            -1.8326682932      -26.1951990698      -10.1024009357  MEMB      137             0.0000000000
     15828       137  SAPS      C310           -0.8428758130      -24.2159975096      -10.6688622789  MEMB      137             0.0000000000
     15829       137  SAPS      H10X           -1.6811335961      -23.6381717743      -11.0139618333  MEMB      137             0.0000000000
     15830       137  SAPS      H10Y           -0.3680848145      -23.7540638340      -11.5463690956  MEMB      137             0.0000000000
     15831       137  SAPS      C311           -0.6680859252      -23.7058787260       -9.2683866160  MEMB      137             0.0000000000
     15832       137  SAPS      H11X           -0.8787865515      -22.6273605553       -9.4493615048  MEMB      137             0.0000000000
     15833       137  SAPS      H11Y            0.3551214234      -23.5416833554       -8.9464189939  MEMB      137             0.0000000000
     15834       137  SAPS      C312           -1.5085033887      -24.5146006595       -8.1503276650  MEMB      137             0.0000000000
     15835       137  SAPS      H12X           -1.3876166665      -25.5687707908       -7.9938541230  MEMB      137             0.0000000000
     15836       137  SAPS      H12Y           -2.5937844297      -24.5827934443       -8.1028809872  MEMB      137             0.0000000000
     15837       137  SAPS      C313           -1.7361713151      -23.7256350740       -6.9268270777  MEMB      137             0.0000000000
     15838       137  SAPS      H13X           -1.8160347856      -22.9692899900       -7.7726743662  MEMB      137             0.0000000000
     15839       137  SAPS      H13Y           -0.9619230391      -23.3694823578       -6.2816656700  MEMB      137             0.0000000000
     15840       137  SAPS      C314           -2.9964101794      -23.9090420370       -5.9824180926  MEMB      137             0.0000000000
     15841       137  SAPS      H14X           -3.9847563355      -24.0477589020       -6.4866444206  MEMB      137             0.0000000000
     15842       137  SAPS      H14Y           -3.1791175581      -23.0285450649       -5.2983660329  MEMB      137             0.0000000000
     15843       137  SAPS      C315           -2.7984345171      -24.8513195826       -4.9017193998  MEMB      137             0.0000000000
     15844       137  SAPS      H15X           -2.0845932381      -25.5436738953       -5.3855037455  MEMB      137             0.0000000000
     15845       137  SAPS      H15Y           -3.8162392809      -25.2793696973       -4.7246612156  MEMB      137             0.0000000000
     15846       137  SAPS      C316           -2.2741758824      -24.1224931559       -3.6639956569  MEMB      137             0.0000000000
     15847       137  SAPS      H16X           -3.0198948540      -23.3719088172       -3.2950011378  MEMB      137             0.0000000000
     15848       137  SAPS      H16Y           -1.3325013549      -23.5643010740       -3.8869059749  MEMB      137             0.0000000000
     15849       137  SAPS      C317           -2.0409903695      -25.1545178360       -2.6021728271  MEMB      137             0.0000000000
     15850       137  SAPS      H17X           -2.6874947394      -26.0341645130       -2.8383280140  MEMB      137             0.0000000000
     15851       137  SAPS      H17Y           -2.3646430292      -24.7310268363       -1.6273984487  MEMB      137             0.0000000000
     15852       137  SAPS      C318           -0.5761869743      -25.5443654934       -2.5358073930  MEMB      137             0.0000000000
     15853       137  SAPS      H18X           -0.2183700654      -26.0306018375       -3.4719005471  MEMB      137             0.0000000000
     15854       137  SAPS      H18Y           -0.4352877357      -26.2296874710       -1.6765186898  MEMB      137             0.0000000000
     15855       137  SAPS      H18Z            0.0455442134      -24.6366936584       -2.3805740197  MEMB      137             0.0000000000
     15856       138  SAPE      N              23.7606178700        4.7487530844      -21.4826689718  MEMB      138             0.0000000000
     15857       138  SAPE      HN1            22.9698386713        4.0741805796      -21.3885476489  MEMB      138             0.0000000000
     15858       138  SAPE      HN2            23.7160707721        4.9383292996      -20.4496293254  MEMB      138             0.0000000000
     15859       138  SAPE      HN3            23.3962732887        5.5820788648      -21.9774005109  MEMB      138             0.0000000000
     15860       138  SAPE      C12            24.9891973188        3.8611028266      -21.5494090426  MEMB      138             0.0000000000
     15861       138  SAPE      H12A           24.7733588244        3.0732978477      -22.2840857627  MEMB      138             0.0000000000
     15862       138  SAPE      H12B           25.2683281530        3.3578284025      -20.5650956757  MEMB      138             0.0000000000
     15863       138  SAPE      C11            26.1646426729        4.6539463860      -21.6089472922  MEMB      138             0.0000000000
     15864       138  SAPE      H11A           25.9227657168        5.0761016073      -22.6110056413  MEMB      138             0.0000000000
     15865       138  SAPE      H11B           26.9270177840        3.8208539257      -21.5388207327  MEMB      138             0.0000000000
     15866       138  SAPE      P              27.0283317439        5.3870661946      -19.2409288759  MEMB      138             0.0000000000
     15867       138  SAPE      O13            26.3723681351        4.5704759518      -18.2239838167  MEMB      138             0.0000000000
     15868       138  SAPE      O14            28.3440425126        4.9823987491      -19.7950459397  MEMB      138             0.0000000000
     15869       138  SAPE      O12            26.0574950260        5.5408805395      -20.4818275936  MEMB      138             0.0000000000
     15870       138  SAPE      O11            27.0744126094        6.8400316158      -18.6880203216  MEMB      138             0.0000000000
     15871       138  SAPE      C1             27.1240937720        7.9622723466      -19.5533686322  MEMB      138             0.0000000000
     15872       138  SAPE      HA             28.1146165253        8.0189765581      -20.0454847098  MEMB      138             0.0000000000
     15873       138  SAPE      HB             26.4050150265        7.8738861799      -20.3660353141  MEMB      138             0.0000000000
     15874       138  SAPE      C2             26.7842350898        9.2663882590      -18.7872352141  MEMB      138             0.0000000000
     15875       138  SAPE      HS             27.2363997823       10.1369685049      -19.3166137200  MEMB      138             0.0000000000
     15876       138  SAPE      O21            27.2257668276        9.2605627088      -17.4203234149  MEMB      138             0.0000000000
     15877       138  SAPE      C21            28.4625872285        8.8753339145      -17.2359697697  MEMB      138             0.0000000000
     15878       138  SAPE      O22            29.3327417902        8.7606341554      -18.0853738695  MEMB      138             0.0000000000
     15879       138  SAPE      C22            28.6683866719        8.6534481602      -15.7200921889  MEMB      138             0.0000000000
     15880       138  SAPE      H2R            29.7197175977        8.7567717919      -15.4474698437  MEMB      138             0.0000000000
     15881       138  SAPE      H2S            28.1205626503        9.4477022937      -15.1821675047  MEMB      138             0.0000000000
     15882       138  SAPE      C3             25.2520078222        9.4998746010      -18.8021116548  MEMB      138             0.0000000000
     15883       138  SAPE      HX             24.9358579187        9.7636118540      -19.8332598571  MEMB      138             0.0000000000
     15884       138  SAPE      HY             25.0795948462       10.3843283388      -18.2163033189  MEMB      138             0.0000000000
     15885       138  SAPE      O31            24.4769890130        8.3937229352      -18.3176213073  MEMB      138             0.0000000000
     15886       138  SAPE      C31            24.2326838168        8.2678305721      -17.0246093403  MEMB      138             0.0000000000
     15887       138  SAPE      O32            24.3549389980        9.0601826011      -16.1276548789  MEMB      138             0.0000000000
     15888       138  SAPE      C32            23.6293706086        6.9426617054      -16.7888315555  MEMB      138             0.0000000000
     15889       138  SAPE      H2X            24.1181000517        6.2646690695      -17.5182080492  MEMB      138             0.0000000000
     15890       138  SAPE      H2Y            22.5451915605        7.1186596695      -16.9944376526  MEMB      138             0.0000000000
     15891       138  SAPE      C23            28.3901127468        7.2194208656      -15.2271406699  MEMB      138             0.0000000000
     15892       138  SAPE      H3R            29.0152272658        6.5459096849      -15.8587026401  MEMB      138             0.0000000000
     15893       138  SAPE      H3S            27.3125602964        7.0246639336      -15.3660693318  MEMB      138             0.0000000000
     15894       138  SAPE      C24            28.7068523232        6.9293069791      -13.7542542630  MEMB      138             0.0000000000
     15895       138  SAPE      H4R            28.6233296177        5.8562442397      -13.5262069418  MEMB      138             0.0000000000
     15896       138  SAPE      H4S            27.9585250682        7.4458546789      -13.1054724646  MEMB      138             0.0000000000
     15897       138  SAPE      C25            30.0962196911        7.3567930386      -13.4772375685  MEMB      138             0.0000000000
     15898       138  SAPE      H5R            30.9545801416        6.7875750259      -13.8518788331  MEMB      138             0.0000000000
     15899       138  SAPE      C26            30.3179277109        8.4622122745      -12.8222531547  MEMB      138             0.0000000000
     15900       138  SAPE      H6R            31.4012390761        8.6173902272      -12.7113959563  MEMB      138             0.0000000000
     15901       138  SAPE      C27            29.2256350498        9.3993645712      -12.2672321577  MEMB      138             0.0000000000
     15902       138  SAPE      H7R            28.3766117407        9.6055229339      -12.9202064055  MEMB      138             0.0000000000
     15903       138  SAPE      H7S            29.5312016257       10.4792276979      -12.2067718417  MEMB      138             0.0000000000
     15904       138  SAPE      C28            28.7651221665        8.8465409812      -10.9241838316  MEMB      138             0.0000000000
     15905       138  SAPE      H8R            29.3348813893        8.0150068360      -10.5075207730  MEMB      138             0.0000000000
     15906       138  SAPE      C29            27.7987564905        9.2846669418      -10.1273854816  MEMB      138             0.0000000000
     15907       138  SAPE      H9R            27.7075157790        9.0523618240       -9.0398189304  MEMB      138             0.0000000000
     15908       138  SAPE      C210           27.0085485671       10.4107345468      -10.4837660270  MEMB      138             0.0000000000
     15909       138  SAPE      H10R           27.4664179440       11.1320621170      -11.2055410656  MEMB      138             0.0000000000
     15910       138  SAPE      H10S           26.8721161043       10.9153127504       -9.5466640064  MEMB      138             0.0000000000
     15911       138  SAPE      C211           25.7449702410        9.7157903637      -10.8956083012  MEMB      138             0.0000000000
     15912       138  SAPE      H11R           25.6154410133        9.6966389136      -11.9863931805  MEMB      138             0.0000000000
     15913       138  SAPE      C212           24.7597434893        9.2827921644      -10.0800827017  MEMB      138             0.0000000000
     15914       138  SAPE      H12R           23.8689469435        8.8532159226      -10.5362576755  MEMB      138             0.0000000000
     15915       138  SAPE      C213           24.6872811863        9.3725002543       -8.5792428062  MEMB      138             0.0000000000
     15916       138  SAPE      H13R           23.6712625093        9.6731557455       -8.2480784800  MEMB      138             0.0000000000
     15917       138  SAPE      H13S           25.3750404686       10.1070366316       -8.1831353847  MEMB      138             0.0000000000
     15918       138  SAPE      C214           25.0618542233        8.0565989582       -7.9827704562  MEMB      138             0.0000000000
     15919       138  SAPE      H14R           24.8563179163        7.1780002300       -8.6036803228  MEMB      138             0.0000000000
     15920       138  SAPE      C215           25.6283233740        7.8921839165       -6.7870568065  MEMB      138             0.0000000000
     15921       138  SAPE      H15R           25.8000748994        6.8783533745       -6.4039227329  MEMB      138             0.0000000000
     15922       138  SAPE      C216           25.9860771314        8.9836723560       -5.8299540529  MEMB      138             0.0000000000
     15923       138  SAPE      H16R           26.0550717297       10.0230135025       -6.2041946906  MEMB      138             0.0000000000
     15924       138  SAPE      H16S           26.9519834415        8.7705374996       -5.4299274642  MEMB      138             0.0000000000
     15925       138  SAPE      C217           25.0780493847        8.9416288934       -4.6459525816  MEMB      138             0.0000000000
     15926       138  SAPE      H17R           24.0168584390        8.8378115880       -4.9456677009  MEMB      138             0.0000000000
     15927       138  SAPE      H17S           25.1829117361        9.8993226044       -4.0875591570  MEMB      138             0.0000000000
     15928       138  SAPE      C218           25.4485831136        7.8692894477       -3.6708894964  MEMB      138             0.0000000000
     15929       138  SAPE      H18R           26.4850247306        7.9753402312       -3.3029818690  MEMB      138             0.0000000000
     15930       138  SAPE      H18S           25.4023609546        6.8164868628       -4.0419109904  MEMB      138             0.0000000000
     15931       138  SAPE      C219           24.5252551234        8.1646758255       -2.5212646600  MEMB      138             0.0000000000
     15932       138  SAPE      H19R           24.6335734082        7.1340433173       -2.1232354086  MEMB      138             0.0000000000
     15933       138  SAPE      H19S           23.4438371573        8.2028111817       -2.7153633221  MEMB      138             0.0000000000
     15934       138  SAPE      C220           24.9093144492        9.4344859816       -1.6546700757  MEMB      138             0.0000000000
     15935       138  SAPE      H20R           24.3268755766        9.4909753073       -0.7139877394  MEMB      138             0.0000000000
     15936       138  SAPE      H20S           24.6658688488       10.4117838305       -2.0793327129  MEMB      138             0.0000000000
     15937       138  SAPE      H20T           25.9731090380        9.3874308340       -1.3074261454  MEMB      138             0.0000000000
     15938       138  SAPE      C33            24.0238573255        6.2576419601      -15.4565818330  MEMB      138             0.0000000000
     15939       138  SAPE      H3X            25.0250889764        6.6415367424      -15.2004265875  MEMB      138             0.0000000000
     15940       138  SAPE      H3Y            24.0715073327        5.1540077617      -15.6264301833  MEMB      138             0.0000000000
     15941       138  SAPE      C34            23.0552137948        6.4543098251      -14.3051792061  MEMB      138             0.0000000000
     15942       138  SAPE      H4X            22.1474211680        5.8553245582      -14.5716186416  MEMB      138             0.0000000000
     15943       138  SAPE      H4Y            22.8794555881        7.5509621975      -14.2133514881  MEMB      138             0.0000000000
     15944       138  SAPE      C35            23.3001187390        5.8128464078      -12.9572668000  MEMB      138             0.0000000000
     15945       138  SAPE      H5X            23.1765656632        4.7576380817      -13.1748908222  MEMB      138             0.0000000000
     15946       138  SAPE      H5Y            22.4788610812        5.9996040349      -12.2462621518  MEMB      138             0.0000000000
     15947       138  SAPE      C36            24.6516720946        6.1874918841      -12.4184538159  MEMB      138             0.0000000000
     15948       138  SAPE      H6X            24.7069826473        7.2804164010      -12.2825660377  MEMB      138             0.0000000000
     15949       138  SAPE      H6Y            25.3679826986        5.9212220576      -13.2312128591  MEMB      138             0.0000000000
     15950       138  SAPE      C37            25.0895726800        5.5432614241      -11.1056002981  MEMB      138             0.0000000000
     15951       138  SAPE      H7X            24.8389868121        4.4775144988      -11.0740915290  MEMB      138             0.0000000000
     15952       138  SAPE      H7Y            24.3910782462        5.7502311852      -10.2927444037  MEMB      138             0.0000000000
     15953       138  SAPE      C38            26.5901106021        5.9562630637      -10.8833944152  MEMB      138             0.0000000000
     15954       138  SAPE      H8X            26.5195624508        7.0362677794      -10.7246818273  MEMB      138             0.0000000000
     15955       138  SAPE      H8Y            27.2901439342        5.6540035095      -11.6945804858  MEMB      138             0.0000000000
     15956       138  SAPE      C39            27.2825413518        5.4045342645       -9.6771241775  MEMB      138             0.0000000000
     15957       138  SAPE      H9X            27.7685515582        4.4268350379       -9.9400617728  MEMB      138             0.0000000000
     15958       138  SAPE      H9Y            26.4032882215        5.4790747501       -8.9858458546  MEMB      138             0.0000000000
     15959       138  SAPE      C310           28.2732190210        5.8851629688       -8.7217341890  MEMB      138             0.0000000000
     15960       138  SAPE      H10X           27.8309513803        6.8779722967       -8.4585217108  MEMB      138             0.0000000000
     15961       138  SAPE      H10Y           29.2479812744        5.9068927265       -9.2421336783  MEMB      138             0.0000000000
     15962       138  SAPE      C311           28.3123125578        4.8453996217       -7.5459532936  MEMB      138             0.0000000000
     15963       138  SAPE      H11X           28.7665323398        3.8700691481       -7.7739350158  MEMB      138             0.0000000000
     15964       138  SAPE      H11Y           27.2548695425        4.7632414805       -7.1897853533  MEMB      138             0.0000000000
     15965       138  SAPE      C312           29.0190772006        5.2575344723       -6.3490150485  MEMB      138             0.0000000000
     15966       138  SAPE      H12X           28.2585412732        6.0919786959       -6.2992672663  MEMB      138             0.0000000000
     15967       138  SAPE      H12Y           30.0604444534        5.4424796641       -6.6140227177  MEMB      138             0.0000000000
     15968       138  SAPE      C313           29.3292416884        4.5639366599       -5.0237622478  MEMB      138             0.0000000000
     15969       138  SAPE      H13X           30.1424169586        5.0853802603       -4.4741945004  MEMB      138             0.0000000000
     15970       138  SAPE      H13Y           29.5916961421        3.5097474437       -5.2600803166  MEMB      138             0.0000000000
     15971       138  SAPE      C314           28.1819572482        4.7349729337       -4.0865379313  MEMB      138             0.0000000000
     15972       138  SAPE      H14X           27.7275180803        4.0940128142       -4.8290651166  MEMB      138             0.0000000000
     15973       138  SAPE      H14Y           27.7220068399        5.7466155434       -4.0392474505  MEMB      138             0.0000000000
     15974       138  SAPE      C315           28.1319710744        3.9499832298       -2.8109861725  MEMB      138             0.0000000000
     15975       138  SAPE      H15X           28.8352659342        4.4193886139       -2.1110704218  MEMB      138             0.0000000000
     15976       138  SAPE      H15Y           28.3295548036        2.8575266242       -3.0012163133  MEMB      138             0.0000000000
     15977       138  SAPE      C316           27.0174520289        4.1144851168       -1.8410770179  MEMB      138             0.0000000000
     15978       138  SAPE      H16X           26.0103557505        4.0935382991       -2.0473707911  MEMB      138             0.0000000000
     15979       138  SAPE      H16Y           26.4199803591        5.0188351148       -1.6483288866  MEMB      138             0.0000000000
     15980       138  SAPE      C317           27.0029696643        2.9204025569       -1.0363015891  MEMB      138             0.0000000000
     15981       138  SAPE      H17X           26.9845284391        1.8378901536       -1.2937851671  MEMB      138             0.0000000000
     15982       138  SAPE      H17Y           25.9899366068        2.9604910809       -0.7452186585  MEMB      138             0.0000000000
     15983       138  SAPE      C318           27.3481369297        3.4186165612        0.2181699585  MEMB      138             0.0000000000
     15984       138  SAPE      H18X           28.4185490139        3.3221519202        0.3486202891  MEMB      138             0.0000000000
     15985       138  SAPE      H18Y           26.8990182423        2.6439983847        0.7229134592  MEMB      138             0.0000000000
     15986       138  SAPE      H18Z           26.7036128865        4.2643679119        0.5717652936  MEMB      138             0.0000000000
     15987       139  CHL1      C3             23.0339528709       12.8265613793      -17.3054475507  MEMB      139             0.0000000000
     15988       139  CHL1      H3             22.0101707652       12.6008280634      -16.9231865669  MEMB      139             0.0000000000
     15989       139  CHL1      O3             23.0499798313       12.7292240817      -18.7256619044  MEMB      139             0.0000000000
     15990       139  CHL1      H3'            22.2913004488       12.1865064635      -18.9596761366  MEMB      139             0.0000000000
     15991       139  CHL1      C4             23.5814468281       14.1753744912      -16.8596570990  MEMB      139             0.0000000000
     15992       139  CHL1      H4A            24.6122462398       14.2645998815      -17.2712873463  MEMB      139             0.0000000000
     15993       139  CHL1      H4B            22.9890064392       15.0156427832      -17.2654429755  MEMB      139             0.0000000000
     15994       139  CHL1      C5             23.6165368672       14.2392291001      -15.3593764097  MEMB      139             0.0000000000
     15995       139  CHL1      C6             22.8622758287       15.1107099952      -14.7003855790  MEMB      139             0.0000000000
     15996       139  CHL1      H6             22.2618997586       15.8106639499      -15.2764484593  MEMB      139             0.0000000000
     15997       139  CHL1      C7             22.9576014621       15.2827784379      -13.2191770559  MEMB      139             0.0000000000
     15998       139  CHL1      H7A            23.0812857638       16.3213160735      -12.9491182221  MEMB      139             0.0000000000
     15999       139  CHL1      H7B            22.1078556545       14.9292139925      -12.6611601340  MEMB      139             0.0000000000
     16000       139  CHL1      C8             24.1530426410       14.5844623769      -12.6149560885  MEMB      139             0.0000000000
     16001       139  CHL1      H8             25.0437874669       15.1677692024      -12.9234290423  MEMB      139             0.0000000000
     16002       139  CHL1      C14            24.0929874590       14.5639744203      -11.1134193221  MEMB      139             0.0000000000
     16003       139  CHL1      H14            23.2835907342       14.0046699443      -10.7218717575  MEMB      139             0.0000000000
     16004       139  CHL1      C15            23.6243456966       15.6853108318      -10.2753696065  MEMB      139             0.0000000000
     16005       139  CHL1      H15A           24.1419569453       16.2575000463      -11.0322130170  MEMB      139             0.0000000000
     16006       139  CHL1      H15B           23.0198715305       16.5188270277      -10.3316707791  MEMB      139             0.0000000000
     16007       139  CHL1      C16            24.1281899229       15.3539250189       -8.8572575104  MEMB      139             0.0000000000
     16008       139  CHL1      H16A           24.6406470968       16.1439637356       -8.3604500250  MEMB      139             0.0000000000
     16009       139  CHL1      H16B           23.6846307383       15.6452768559       -7.9434683049  MEMB      139             0.0000000000
     16010       139  CHL1      C17            24.8194002889       14.0148565861       -8.9330683109  MEMB      139             0.0000000000
     16011       139  CHL1      H17            23.8771218718       13.4643736654       -8.7519298206  MEMB      139             0.0000000000
     16012       139  CHL1      C13            25.1769324998       13.8281787356      -10.4512339815  MEMB      139             0.0000000000
     16013       139  CHL1      C18            26.5869404113       14.1349486407      -11.0653848789  MEMB      139             0.0000000000
     16014       139  CHL1      H18A           26.7727655744       13.8863283057      -12.1110097597  MEMB      139             0.0000000000
     16015       139  CHL1      H18B           26.8505640499       15.1801417266      -11.1962086923  MEMB      139             0.0000000000
     16016       139  CHL1      H18C           27.3523743056       13.7410548797      -10.3723997624  MEMB      139             0.0000000000
     16017       139  CHL1      C12            24.7970135785       12.4555432006      -10.8190842755  MEMB      139             0.0000000000
     16018       139  CHL1      H12A           25.4525683526       12.0061633659      -10.1128467705  MEMB      139             0.0000000000
     16019       139  CHL1      H12B           23.7958832086       12.1384030360      -10.4684551061  MEMB      139             0.0000000000
     16020       139  CHL1      C11            24.9750867437       12.1964091492      -12.3119030123  MEMB      139             0.0000000000
     16021       139  CHL1      H11A           26.0455955710       12.1365854767      -12.5882787548  MEMB      139             0.0000000000
     16022       139  CHL1      H11B           24.5306476584       11.2109026160      -12.5255815796  MEMB      139             0.0000000000
     16023       139  CHL1      C9             24.1732808746       13.1844361194      -13.1598180895  MEMB      139             0.0000000000
     16024       139  CHL1      H9             23.1253959998       12.7948697388      -13.0418598380  MEMB      139             0.0000000000
     16025       139  CHL1      C10            24.4768012703       13.1936688798      -14.6589878059  MEMB      139             0.0000000000
     16026       139  CHL1      C19            25.9885439961       13.4758195292      -14.8835617272  MEMB      139             0.0000000000
     16027       139  CHL1      H19A           26.6231055627       12.6472822776      -14.5094533207  MEMB      139             0.0000000000
     16028       139  CHL1      H19B           26.2574735740       13.6176556732      -15.9472041301  MEMB      139             0.0000000000
     16029       139  CHL1      H19C           26.2821751708       14.3912331794      -14.3382834770  MEMB      139             0.0000000000
     16030       139  CHL1      C1             24.0643717234       11.8267427880      -15.2061287629  MEMB      139             0.0000000000
     16031       139  CHL1      H1A            24.8533857429       11.1201255777      -14.8590364192  MEMB      139             0.0000000000
     16032       139  CHL1      H1B            23.0828141459       11.5267480853      -14.7769050128  MEMB      139             0.0000000000
     16033       139  CHL1      C2             23.9360863348       11.7752542114      -16.7247635742  MEMB      139             0.0000000000
     16034       139  CHL1      H2A            23.4592449152       10.8290098224      -17.0503453307  MEMB      139             0.0000000000
     16035       139  CHL1      H2B            24.9682393482       11.9045309540      -17.1202808100  MEMB      139             0.0000000000
     16036       139  CHL1      C20            25.5845438109       13.4824256984       -7.6981338082  MEMB      139             0.0000000000
     16037       139  CHL1      H20            26.5046020619       13.9966130615       -7.7613999876  MEMB      139             0.0000000000
     16038       139  CHL1      C21            26.6280709676       12.4153364430       -7.7394966751  MEMB      139             0.0000000000
     16039       139  CHL1      H21A           27.4026883330       12.5050739075       -6.9401130119  MEMB      139             0.0000000000
     16040       139  CHL1      H21B           27.1617734581       12.5021668761       -8.7181549404  MEMB      139             0.0000000000
     16041       139  CHL1      H21C           25.9213872881       11.6336539067       -7.5503019708  MEMB      139             0.0000000000
     16042       139  CHL1      C22            24.9530719586       13.8027108392       -6.3060899066  MEMB      139             0.0000000000
     16043       139  CHL1      H22A           24.5961122021       14.8612827181       -6.3219031866  MEMB      139             0.0000000000
     16044       139  CHL1      H22B           24.0056301142       13.2698504010       -6.2133449018  MEMB      139             0.0000000000
     16045       139  CHL1      C23            25.9270594306       13.5474810570       -5.1016488741  MEMB      139             0.0000000000
     16046       139  CHL1      H23A           26.1389404294       12.4982305806       -4.8855522509  MEMB      139             0.0000000000
     16047       139  CHL1      H23B           26.9139989490       13.9403381040       -5.4260410110  MEMB      139             0.0000000000
     16048       139  CHL1      C24            25.5454270520       14.1968215550       -3.7464615188  MEMB      139             0.0000000000
     16049       139  CHL1      H24A           24.8771637721       15.0341199556       -4.0945326246  MEMB      139             0.0000000000
     16050       139  CHL1      H24B           24.8081416245       13.7014818491       -3.1248701806  MEMB      139             0.0000000000
     16051       139  CHL1      C25            26.7357513739       14.6026756474       -2.7746874181  MEMB      139             0.0000000000
     16052       139  CHL1      H25            27.3992969337       15.2558244022       -3.4151377522  MEMB      139             0.0000000000
     16053       139  CHL1      C26            26.3100556292       15.1465075446       -1.3726957872  MEMB      139             0.0000000000
     16054       139  CHL1      H26A           25.4234268936       15.7049644231       -1.6033171195  MEMB      139             0.0000000000
     16055       139  CHL1      H26B           25.5807957379       14.7709449431       -0.6948545763  MEMB      139             0.0000000000
     16056       139  CHL1      H26C           27.0258466772       15.8956781004       -0.9389242543  MEMB      139             0.0000000000
     16057       139  CHL1      C27            27.9075666730       13.9146407025       -2.2795967915  MEMB      139             0.0000000000
     16058       139  CHL1      H27A           28.4527493032       13.5519948604       -3.1634561008  MEMB      139             0.0000000000
     16059       139  CHL1      H27B           28.4893417009       14.7445268202       -1.7469800443  MEMB      139             0.0000000000
     16060       139  CHL1      H27C           27.3838916898       13.2269403910       -1.5908968934  MEMB      139             0.0000000000
     16061       140  OSM       N             -15.1126287166      -23.1071919087      -22.8014524138  MEMB      140             0.0000000000
     16062       140  OSM       C15           -13.7409551050      -22.4757854416      -22.6650049281  MEMB      140             0.0000000000
     16063       140  OSM       H15A          -12.9951830029      -23.1919728822      -22.3090804837  MEMB      140             0.0000000000
     16064       140  OSM       H15B          -13.7790756894      -21.6775079415      -21.9190286111  MEMB      140             0.0000000000
     16065       140  OSM       H15C          -13.3619048019      -22.0573308522      -23.5889168232  MEMB      140             0.0000000000
     16066       140  OSM       C14           -16.0968598972      -21.9956633598      -22.9707551606  MEMB      140             0.0000000000
     16067       140  OSM       H14A          -16.0040267850      -21.3084409467      -22.1317962263  MEMB      140             0.0000000000
     16068       140  OSM       H14B          -17.1080933772      -22.3698970259      -22.9595205438  MEMB      140             0.0000000000
     16069       140  OSM       H14C          -15.9125843029      -21.4516476856      -23.8823213853  MEMB      140             0.0000000000
     16070       140  OSM       C13           -15.2476767617      -24.0124704244      -23.9903650669  MEMB      140             0.0000000000
     16071       140  OSM       H13A          -14.4630295221      -24.7751330065      -24.0057469300  MEMB      140             0.0000000000
     16072       140  OSM       H13B          -15.1736413881      -23.4357097749      -24.8996010317  MEMB      140             0.0000000000
     16073       140  OSM       H13C          -16.2160971309      -24.5115315281      -23.9912243268  MEMB      140             0.0000000000
     16074       140  OSM       C12           -15.3984667605      -23.9238336472      -21.5432573656  MEMB      140             0.0000000000
     16075       140  OSM       H12A          -14.7462479529      -24.7886278408      -21.6027943483  MEMB      140             0.0000000000
     16076       140  OSM       H12B          -16.4385161718      -24.2420233018      -21.5092783499  MEMB      140             0.0000000000
     16077       140  OSM       C11           -15.1020172671      -23.2720772342      -20.1756450936  MEMB      140             0.0000000000
     16078       140  OSM       H11A          -14.0196023967      -23.0258069085      -20.1609402865  MEMB      140             0.0000000000
     16079       140  OSM       H11B          -15.2663227159      -24.0013393760      -19.3438291826  MEMB      140             0.0000000000
     16080       140  OSM       P             -17.3036146996      -22.0540365350      -19.4329473844  MEMB      140             0.0000000000
     16081       140  OSM       O13           -17.6956836640      -20.6708016777      -19.1139291253  MEMB      140             0.0000000000
     16082       140  OSM       O14           -18.1253357813      -22.7276823406      -20.4683528746  MEMB      140             0.0000000000
     16083       140  OSM       O11           -17.2125065917      -22.9368622297      -18.1344015798  MEMB      140             0.0000000000
     16084       140  OSM       O12           -15.8335039448      -22.0695626576      -19.9969705521  MEMB      140             0.0000000000
     16085       140  OSM       C1S           -16.3641406379      -22.6117266605      -17.0348885603  MEMB      140             0.0000000000
     16086       140  OSM       H1S           -15.6657054649      -21.7650551540      -17.2359085672  MEMB      140             0.0000000000
     16087       140  OSM       H1T           -15.7363446900      -23.4942893398      -16.7904067406  MEMB      140             0.0000000000
     16088       140  OSM       NF            -16.1810866309      -22.0954357512      -14.7483017429  MEMB      140             0.0000000000
     16089       140  OSM       HNF           -16.0639532257      -22.7427131137      -14.0120942790  MEMB      140             0.0000000000
     16090       140  OSM       C2S           -17.1391366097      -22.2632909403      -15.7518271510  MEMB      140             0.0000000000
     16091       140  OSM       H2S           -17.7413603243      -21.3264507551      -15.9299106699  MEMB      140             0.0000000000
     16092       140  OSM       C3S           -18.0450809284      -23.3590043612      -15.3170819103  MEMB      140             0.0000000000
     16093       140  OSM       H3S           -17.5441189146      -24.3331375334      -15.1429647530  MEMB      140             0.0000000000
     16094       140  OSM       O3            -18.9889711445      -23.6297335468      -16.3081749031  MEMB      140             0.0000000000
     16095       140  OSM       HO3           -19.1291244995      -22.7611735722      -16.7150673803  MEMB      140             0.0000000000
     16096       140  OSM       C4S           -18.5529097904      -22.9390190402      -13.9663784291  MEMB      140             0.0000000000
     16097       140  OSM       H4S           -19.1129705464      -21.9833830117      -13.8971916944  MEMB      140             0.0000000000
     16098       140  OSM       C5S           -18.4438304928      -23.7029848202      -12.8952163848  MEMB      140             0.0000000000
     16099       140  OSM       H5S           -18.0622552951      -24.7223949098      -12.9192666853  MEMB      140             0.0000000000
     16100       140  OSM       C6S           -18.9173712355      -23.2894301196      -11.5854674065  MEMB      140             0.0000000000
     16101       140  OSM       H6S           -18.6293953682      -24.0076726793      -10.7791235542  MEMB      140             0.0000000000
     16102       140  OSM       H6T           -19.9639490843      -23.2315607082      -11.7127328207  MEMB      140             0.0000000000
     16103       140  OSM       C7S           -18.7786322931      -21.9580765126      -11.0420341617  MEMB      140             0.0000000000
     16104       140  OSM       H7S           -18.9028574973      -21.9392358619       -9.9241751175  MEMB      140             0.0000000000
     16105       140  OSM       H7T           -19.3459983126      -21.1787334729      -11.5975443874  MEMB      140             0.0000000000
     16106       140  OSM       C8S           -17.4321904112      -21.6997405591      -11.1570766177  MEMB      140             0.0000000000
     16107       140  OSM       H8S           -17.4905710820      -20.7676018984      -10.5145030447  MEMB      140             0.0000000000
     16108       140  OSM       H8T           -17.2522485337      -21.4367854945      -12.2278157771  MEMB      140             0.0000000000
     16109       140  OSM       C9S           -16.5754269097      -22.8742146185      -10.6889754205  MEMB      140             0.0000000000
     16110       140  OSM       H9S           -15.5989345682      -22.7108740666      -11.1617144958  MEMB      140             0.0000000000
     16111       140  OSM       H9T           -16.6776619736      -23.8314507922      -11.1834256024  MEMB      140             0.0000000000
     16112       140  OSM       C10S          -16.6463755227      -23.0029058758       -9.1252613758  MEMB      140             0.0000000000
     16113       140  OSM       H10S          -17.6821945207      -23.2185538026       -8.8681190428  MEMB      140             0.0000000000
     16114       140  OSM       H10T          -16.4799714337      -22.0417287547       -8.5614611955  MEMB      140             0.0000000000
     16115       140  OSM       C11S          -15.6883109991      -24.0368628759       -8.5397809314  MEMB      140             0.0000000000
     16116       140  OSM       H11S          -15.6027906035      -24.8438129749       -9.2857660158  MEMB      140             0.0000000000
     16117       140  OSM       H11T          -16.1625216726      -24.3775562656       -7.6065511828  MEMB      140             0.0000000000
     16118       140  OSM       C12S          -14.2693215607      -23.6149903007       -8.1501131058  MEMB      140             0.0000000000
     16119       140  OSM       H12S          -13.9845230889      -23.0231250374       -9.0184172305  MEMB      140             0.0000000000
     16120       140  OSM       H12T          -13.5336702786      -24.4381381391       -8.2307957716  MEMB      140             0.0000000000
     16121       140  OSM       C13S          -14.1837569376      -22.9849126777       -6.7299737254  MEMB      140             0.0000000000
     16122       140  OSM       H13S          -14.7043430638      -23.6508676100       -6.0244739536  MEMB      140             0.0000000000
     16123       140  OSM       H13T          -14.7825991936      -22.0632578435       -6.6294077686  MEMB      140             0.0000000000
     16124       140  OSM       C14S          -12.7625075084      -22.7087128570       -6.2007312058  MEMB      140             0.0000000000
     16125       140  OSM       H14S          -12.0663952594      -22.5866535684       -7.0341417093  MEMB      140             0.0000000000
     16126       140  OSM       H14T          -12.3426441988      -23.6538741203       -5.8023476505  MEMB      140             0.0000000000
     16127       140  OSM       C15S          -12.6604144239      -21.5963289314       -5.0943916381  MEMB      140             0.0000000000
     16128       140  OSM       H15S          -11.6088247486      -21.5823278124       -4.7298889091  MEMB      140             0.0000000000
     16129       140  OSM       H15T          -13.3114230118      -21.9937909046       -4.2901807812  MEMB      140             0.0000000000
     16130       140  OSM       C16S          -13.1304242386      -20.1084758608       -5.2735149862  MEMB      140             0.0000000000
     16131       140  OSM       H16S          -14.1430394496      -19.9957957534       -5.6636574587  MEMB      140             0.0000000000
     16132       140  OSM       H16T          -12.5811974436      -19.4582579356       -5.9685484163  MEMB      140             0.0000000000
     16133       140  OSM       C17S          -12.6579723210      -19.1406037042       -4.2396339215  MEMB      140             0.0000000000
     16134       140  OSM       H17S          -12.7722139983      -18.0818991189       -4.5941532869  MEMB      140             0.0000000000
     16135       140  OSM       H17T          -11.5983098737      -19.3911908399       -4.0361475697  MEMB      140             0.0000000000
     16136       140  OSM       C18S          -13.0624528719      -19.3245258358       -2.8780651013  MEMB      140             0.0000000000
     16137       140  OSM       H18S          -14.1588709944      -19.3653296205       -2.9655964345  MEMB      140             0.0000000000
     16138       140  OSM       H18T          -12.6292497442      -18.4299196413       -2.3658141674  MEMB      140             0.0000000000
     16139       140  OSM       H18U          -12.5575139091      -20.2755829950       -2.5656754427  MEMB      140             0.0000000000
     16140       140  OSM       C1F           -15.3417614808      -21.1807530096      -14.8111409959  MEMB      140             0.0000000000
     16141       140  OSM       OF            -15.5970508083      -20.1302816600      -15.4068644556  MEMB      140             0.0000000000
     16142       140  OSM       C2F           -14.3252542959      -21.4179952323      -13.6870205925  MEMB      140             0.0000000000
     16143       140  OSM       H2F           -13.2772862922      -21.3050532766      -13.9186294944  MEMB      140             0.0000000000
     16144       140  OSM       H2G           -14.6772558645      -22.0782030208      -12.8599069232  MEMB      140             0.0000000000
     16145       140  OSM       C3F           -14.4045514302      -20.3194632260      -12.8295110519  MEMB      140             0.0000000000
     16146       140  OSM       H3F           -15.4775554933      -19.9075270316      -13.0553899117  MEMB      140             0.0000000000
     16147       140  OSM       H3G           -14.9809390489      -19.5589157330      -13.4541885432  MEMB      140             0.0000000000
     16148       140  OSM       C4F           -13.2336988564      -19.5530618631      -11.3962540911  MEMB      140             0.0000000000
     16149       140  OSM       H4F           -12.2583585470      -19.2282938690      -11.5554997174  MEMB      140             0.0000000000
     16150       140  OSM       H4G           -12.9396020694      -20.5347210659      -11.3819141126  MEMB      140             0.0000000000
     16151       140  OSM       C5F           -13.7963343327      -18.4009689351       -9.9222890287  MEMB      140             0.0000000000
     16152       140  OSM       H5F           -14.1262691860      -17.3919298444      -10.1322559637  MEMB      140             0.0000000000
     16153       140  OSM       H5G           -12.9370033346      -18.2480121529       -9.4169768620  MEMB      140             0.0000000000
     16154       140  OSM       C6F           -15.2498347906      -18.5300434831       -8.8315124608  MEMB      140             0.0000000000
     16155       140  OSM       H6F           -15.4673655484      -19.4276528501       -8.2612514247  MEMB      140             0.0000000000
     16156       140  OSM       H6G           -16.2771112328      -18.7705810489       -9.1729211484  MEMB      140             0.0000000000
     16157       140  OSM       C7F           -15.8140221052      -17.5326362196       -8.0432393259  MEMB      140             0.0000000000
     16158       140  OSM       H7F           -15.8673213061      -17.0344140312       -9.0399570440  MEMB      140             0.0000000000
     16159       140  OSM       H7G           -14.8761850683      -17.7112953064       -7.5016606891  MEMB      140             0.0000000000
     16160       140  OSM       C8F           -17.0860877352      -18.0496601994       -7.3789281107  MEMB      140             0.0000000000
     16161       140  OSM       H8F           -17.7044253331      -18.7434861344       -8.0002556366  MEMB      140             0.0000000000
     16162       140  OSM       H8G           -17.6770754429      -17.1332222168       -7.2547356143  MEMB      140             0.0000000000
     16163       140  OSM       C9F           -16.6518034697      -18.7389422132       -6.1187792373  MEMB      140             0.0000000000
     16164       140  OSM       H9F           -15.8727252262      -18.2038870546       -5.5500094505  MEMB      140             0.0000000000
     16165       140  OSM       C10F          -17.0114891392      -19.9776403847       -5.7525275446  MEMB      140             0.0000000000
     16166       140  OSM       H10F          -16.7361942698      -20.3028925618       -4.7407741943  MEMB      140             0.0000000000
     16167       140  OSM       C11F          -17.9197428034      -20.9338705679       -6.4982339733  MEMB      140             0.0000000000
     16168       140  OSM       H11F          -17.5616410553      -21.9840323310       -6.3937569014  MEMB      140             0.0000000000
     16169       140  OSM       H11G          -17.9591853512      -20.7728088692       -7.5966976109  MEMB      140             0.0000000000
     16170       140  OSM       C12F          -19.3568450217      -20.7855525805       -5.9791755036  MEMB      140             0.0000000000
     16171       140  OSM       H12F          -20.0130169229      -21.4264036898       -6.5809640020  MEMB      140             0.0000000000
     16172       140  OSM       H12G          -19.7351623070      -19.7445422187       -6.0959978478  MEMB      140             0.0000000000
     16173       140  OSM       C13F          -19.5065124306      -21.1770974387       -4.5167945458  MEMB      140             0.0000000000
     16174       140  OSM       H13F          -20.5604729376      -21.0282554062       -4.1878935084  MEMB      140             0.0000000000
     16175       140  OSM       H13G          -18.8910719502      -20.4490789425       -3.9479444627  MEMB      140             0.0000000000
     16176       140  OSM       C14F          -18.9814341954      -22.5821832284       -4.1900737511  MEMB      140             0.0000000000
     16177       140  OSM       H14F          -17.8791431962      -22.6170915141       -4.3472823691  MEMB      140             0.0000000000
     16178       140  OSM       H14G          -19.4328192056      -23.3664740955       -4.8245731889  MEMB      140             0.0000000000
     16179       140  OSM       C15F          -19.2236622735      -22.8931262074       -2.7359647209  MEMB      140             0.0000000000
     16180       140  OSM       H15F          -18.8225713571      -23.8889576703       -2.4371005515  MEMB      140             0.0000000000
     16181       140  OSM       H15G          -20.3168856826      -22.9179045029       -2.5288279995  MEMB      140             0.0000000000
     16182       140  OSM       C16F          -18.5204400625      -21.8384529022       -1.8785235483  MEMB      140             0.0000000000
     16183       140  OSM       H16F          -18.7567645723      -22.3013800553       -0.9573422144  MEMB      140             0.0000000000
     16184       140  OSM       H16G          -18.9928146068      -20.8355240164       -1.9098463848  MEMB      140             0.0000000000
     16185       140  OSM       C17F          -16.9773957587      -21.8744395386       -1.9262706969  MEMB      140             0.0000000000
     16186       140  OSM       H17F          -16.6699440743      -21.5742797213       -2.9386349881  MEMB      140             0.0000000000
     16187       140  OSM       H17G          -16.7055822436      -22.9390441575       -1.7045150465  MEMB      140             0.0000000000
     16188       140  OSM       C18F          -16.1302457578      -20.9944776686       -1.0068356068  MEMB      140             0.0000000000
     16189       140  OSM       H18F          -16.5139685085      -19.9721369941       -0.7932636363  MEMB      140             0.0000000000
     16190       140  OSM       H18G          -15.0641952229      -21.2383186835       -0.8850653681  MEMB      140             0.0000000000
     16191       140  OSM       H18H          -16.1417019764      -21.4339401622       -0.0513671271  MEMB      140             0.0000000000
     16192       141  SAPE      N             -26.8543002654       -3.1991234638      -21.0898884161  MEMB      141             0.0000000000
     16193       141  SAPE      HN1           -27.8488292972       -3.1304311018      -20.7884473184  MEMB      141             0.0000000000
     16194       141  SAPE      HN2           -26.2212544813       -3.0425226267      -20.2733258106  MEMB      141             0.0000000000
     16195       141  SAPE      HN3           -26.6567089897       -2.4788831710      -21.8105876855  MEMB      141             0.0000000000
     16196       141  SAPE      C12           -26.5726973827       -4.5636921342      -21.6675355051  MEMB      141             0.0000000000
     16197       141  SAPE      H12A          -25.5770095214       -4.8792171170      -21.3051870553  MEMB      141             0.0000000000
     16198       141  SAPE      H12B          -26.5690050659       -4.4493402393      -22.7714858917  MEMB      141             0.0000000000
     16199       141  SAPE      C11           -27.6619218268       -5.5882168379      -21.3360517639  MEMB      141             0.0000000000
     16200       141  SAPE      H11A          -27.5085273407       -6.5179565613      -21.9325532807  MEMB      141             0.0000000000
     16201       141  SAPE      H11B          -28.6194977545       -5.1568602218      -21.6991749882  MEMB      141             0.0000000000
     16202       141  SAPE      P             -29.0786368857       -6.0340952582      -19.2015491255  MEMB      141             0.0000000000
     16203       141  SAPE      O13           -29.0212536315       -5.2137066345      -17.9761280645  MEMB      141             0.0000000000
     16204       141  SAPE      O14           -30.1663467452       -5.7641162019      -20.1688683560  MEMB      141             0.0000000000
     16205       141  SAPE      O12           -27.6704615244       -5.8816658307      -19.9388320914  MEMB      141             0.0000000000
     16206       141  SAPE      O11           -29.1042823840       -7.5102653733      -18.7747862347  MEMB      141             0.0000000000
     16207       141  SAPE      C1            -29.0930707486       -8.5239135551      -19.7590836721  MEMB      141             0.0000000000
     16208       141  SAPE      HA            -30.1030673358       -8.7233800839      -20.1251734987  MEMB      141             0.0000000000
     16209       141  SAPE      HB            -28.4376253035       -8.2978267030      -20.6332304943  MEMB      141             0.0000000000
     16210       141  SAPE      C2            -28.5727764439       -9.7597400781      -19.0986819088  MEMB      141             0.0000000000
     16211       141  SAPE      HS            -28.7934037621      -10.7053367978      -19.6453319492  MEMB      141             0.0000000000
     16212       141  SAPE      O21           -28.8938966525       -9.9419994819      -17.7528786239  MEMB      141             0.0000000000
     16213       141  SAPE      C21           -30.0704379459       -9.8647329986      -17.4818693707  MEMB      141             0.0000000000
     16214       141  SAPE      O22           -31.0601766342       -9.9761502229      -18.1906946732  MEMB      141             0.0000000000
     16215       141  SAPE      C22           -29.9826838630       -9.8819755378      -16.0019451391  MEMB      141             0.0000000000
     16216       141  SAPE      H2R           -29.4890224777      -10.8559821720      -15.7525705898  MEMB      141             0.0000000000
     16217       141  SAPE      H2S           -29.4996081337       -9.0644503966      -15.4758994653  MEMB      141             0.0000000000
     16218       141  SAPE      C3            -27.1351308797       -9.6787692016      -19.1089478493  MEMB      141             0.0000000000
     16219       141  SAPE      HX            -26.7207685780       -9.7359817426      -20.1035016767  MEMB      141             0.0000000000
     16220       141  SAPE      HY            -27.0551568765      -10.6206738351      -18.5033120541  MEMB      141             0.0000000000
     16221       141  SAPE      O31           -26.4829317926       -8.5827092995      -18.5657051473  MEMB      141             0.0000000000
     16222       141  SAPE      C31           -26.3024371263       -8.8072968444      -17.3667634877  MEMB      141             0.0000000000
     16223       141  SAPE      O32           -26.5183074021       -9.7985123337      -16.6721686607  MEMB      141             0.0000000000
     16224       141  SAPE      C32           -25.6218054186       -7.6592922087      -16.9750348316  MEMB      141             0.0000000000
     16225       141  SAPE      H2X           -26.2775262554       -6.7584833523      -17.0024804452  MEMB      141             0.0000000000
     16226       141  SAPE      H2Y           -24.7772385023       -7.3550566859      -17.7385935069  MEMB      141             0.0000000000
     16227       141  SAPE      C23           -31.3173515728       -9.8156323915      -15.4337884231  MEMB      141             0.0000000000
     16228       141  SAPE      H3R           -31.2834581040      -10.8194103554      -15.7235729598  MEMB      141             0.0000000000
     16229       141  SAPE      H3S           -32.1873764785       -9.3870971651      -15.9851514942  MEMB      141             0.0000000000
     16230       141  SAPE      C24           -31.2108886329       -9.9003486776      -13.9825590465  MEMB      141             0.0000000000
     16231       141  SAPE      H4R           -30.9716624471      -10.8220274316      -13.4061354229  MEMB      141             0.0000000000
     16232       141  SAPE      H4S           -32.0010965651      -10.3318321169      -13.4786855644  MEMB      141             0.0000000000
     16233       141  SAPE      C25           -31.6802038457       -8.6497419718      -13.5035617653  MEMB      141             0.0000000000
     16234       141  SAPE      H5R           -32.5589369865       -8.2135969770      -13.9627164276  MEMB      141             0.0000000000
     16235       141  SAPE      C26           -31.0621557575       -8.2294405333      -12.4590460879  MEMB      141             0.0000000000
     16236       141  SAPE      H6R           -31.0238219376       -7.2319288354      -12.1874789327  MEMB      141             0.0000000000
     16237       141  SAPE      C27           -30.1312078373       -9.0653029511      -11.8297758582  MEMB      141             0.0000000000
     16238       141  SAPE      H7R           -29.0054715730       -8.8781275716      -12.0961824734  MEMB      141             0.0000000000
     16239       141  SAPE      H7S           -30.1866880438      -10.1601541613      -11.9212099285  MEMB      141             0.0000000000
     16240       141  SAPE      C28           -29.9988805641       -9.3469965880      -10.4390294939  MEMB      141             0.0000000000
     16241       141  SAPE      H8R           -29.8614916493      -10.3393852235      -10.1013744492  MEMB      141             0.0000000000
     16242       141  SAPE      C29           -30.3537934927       -8.5393116063       -9.4901637039  MEMB      141             0.0000000000
     16243       141  SAPE      H9R           -29.6773972996       -9.0561360258       -8.8221741503  MEMB      141             0.0000000000
     16244       141  SAPE      C210          -30.2815639877       -6.9745499872       -9.2743011894  MEMB      141             0.0000000000
     16245       141  SAPE      H10R          -30.4792500183       -6.6469682405      -10.2923434152  MEMB      141             0.0000000000
     16246       141  SAPE      H10S          -29.8832862127       -6.6170192145       -8.4640820007  MEMB      141             0.0000000000
     16247       141  SAPE      C211          -31.8826811688       -7.1733460524       -8.9564831760  MEMB      141             0.0000000000
     16248       141  SAPE      H11R          -32.2870631532       -7.0390194863       -9.8345322638  MEMB      141             0.0000000000
     16249       141  SAPE      C212          -32.5679279419       -7.0022689353       -7.6415714492  MEMB      141             0.0000000000
     16250       141  SAPE      H12R          -33.6468679972       -7.1315560304       -7.4321217863  MEMB      141             0.0000000000
     16251       141  SAPE      C213          -32.4342612965       -7.5217983344       -6.3100747907  MEMB      141             0.0000000000
     16252       141  SAPE      H13R          -31.9483040091       -8.1423584636       -6.5314618964  MEMB      141             0.0000000000
     16253       141  SAPE      H13S          -33.3719484375       -7.9452018809       -5.8766418722  MEMB      141             0.0000000000
     16254       141  SAPE      C214          -32.0109037393       -6.2514370475       -5.5736472362  MEMB      141             0.0000000000
     16255       141  SAPE      H14R          -32.2871472743       -5.2829230340       -5.9477621834  MEMB      141             0.0000000000
     16256       141  SAPE      C215          -31.6638294645       -6.4774724542       -4.3836481829  MEMB      141             0.0000000000
     16257       141  SAPE      H15R          -31.1745411522       -5.6966807058       -3.8400337372  MEMB      141             0.0000000000
     16258       141  SAPE      C216          -31.5547862533       -7.7391623905       -3.6892868175  MEMB      141             0.0000000000
     16259       141  SAPE      H16R          -30.4789075368       -7.6069641819       -3.5238579278  MEMB      141             0.0000000000
     16260       141  SAPE      H16S          -31.3191662390       -8.6707238734       -3.9841408051  MEMB      141             0.0000000000
     16261       141  SAPE      C217          -32.6156960729       -8.6526845035       -3.0546130817  MEMB      141             0.0000000000
     16262       141  SAPE      H17R          -32.1711121696       -9.4864505267       -2.4500814427  MEMB      141             0.0000000000
     16263       141  SAPE      H17S          -33.3897884576       -9.0427548960       -3.7238113303  MEMB      141             0.0000000000
     16264       141  SAPE      C218          -33.1571642159       -7.9043421554       -2.0326807948  MEMB      141             0.0000000000
     16265       141  SAPE      H18R          -33.9871683977       -8.4017458168       -1.4823661920  MEMB      141             0.0000000000
     16266       141  SAPE      H18S          -33.5365151436       -6.9705479008       -2.5066247641  MEMB      141             0.0000000000
     16267       141  SAPE      C219          -31.9319457263       -7.7318720630       -1.2362800133  MEMB      141             0.0000000000
     16268       141  SAPE      H19R          -31.1915211297       -7.0507274143       -1.6719055604  MEMB      141             0.0000000000
     16269       141  SAPE      H19S          -31.2355512162       -8.3939878806       -0.6766744711  MEMB      141             0.0000000000
     16270       141  SAPE      C220          -32.7625925144       -7.1842492178       -0.3023939735  MEMB      141             0.0000000000
     16271       141  SAPE      H20R          -31.9239543330       -6.7300047950        0.0298456524  MEMB      141             0.0000000000
     16272       141  SAPE      H20S          -33.3167356271       -7.7612495878        0.3936164442  MEMB      141             0.0000000000
     16273       141  SAPE      H20T          -33.2944009939       -6.2753830909       -0.4637840182  MEMB      141             0.0000000000
     16274       141  SAPE      C33           -25.4215290115       -8.4310145032      -15.5403050607  MEMB      141             0.0000000000
     16275       141  SAPE      H3X           -24.9148730639       -7.7532740125      -16.0707088837  MEMB      141             0.0000000000
     16276       141  SAPE      H3Y           -24.3783602377       -8.8805977770      -15.3104085667  MEMB      141             0.0000000000
     16277       141  SAPE      C34           -26.2633982573       -7.8083196066      -14.1861082242  MEMB      141             0.0000000000
     16278       141  SAPE      H4X           -25.8803794423       -8.3477979045      -13.2699419511  MEMB      141             0.0000000000
     16279       141  SAPE      H4Y           -26.9943320794       -8.5073544994      -14.5665311783  MEMB      141             0.0000000000
     16280       141  SAPE      C35           -26.6568013773       -6.1404668637      -13.7707855951  MEMB      141             0.0000000000
     16281       141  SAPE      H5X           -26.6518809957       -5.4036016493      -14.5896159353  MEMB      141             0.0000000000
     16282       141  SAPE      H5Y           -25.9833507609       -5.4207017218      -13.2050243430  MEMB      141             0.0000000000
     16283       141  SAPE      C36           -27.9458160575       -5.6596174413      -13.0971548409  MEMB      141             0.0000000000
     16284       141  SAPE      H6X           -28.7139324343       -6.1361624433      -13.7128970130  MEMB      141             0.0000000000
     16285       141  SAPE      H6Y           -28.1052072606       -4.5438217737      -13.1861106829  MEMB      141             0.0000000000
     16286       141  SAPE      C37           -28.0394730802       -6.1495008689      -11.6711160969  MEMB      141             0.0000000000
     16287       141  SAPE      H7X           -27.3804490306       -7.0500020496      -11.6190649381  MEMB      141             0.0000000000
     16288       141  SAPE      H7Y           -29.0538709860       -6.5170221748      -11.5545677567  MEMB      141             0.0000000000
     16289       141  SAPE      C38           -27.8516366646       -5.0873764389      -10.5543993661  MEMB      141             0.0000000000
     16290       141  SAPE      H8X           -28.3929133163       -5.2867820512       -9.6225351379  MEMB      141             0.0000000000
     16291       141  SAPE      H8Y           -28.0100670998       -4.0681782118      -10.9877329553  MEMB      141             0.0000000000
     16292       141  SAPE      C39           -26.4739499583       -5.0322258132      -10.0028493755  MEMB      141             0.0000000000
     16293       141  SAPE      H9X           -25.9435489027       -4.1372336536      -10.2163529466  MEMB      141             0.0000000000
     16294       141  SAPE      H9Y           -26.2332211660       -5.7935407836      -10.7233606243  MEMB      141             0.0000000000
     16295       141  SAPE      C310          -25.7790702390       -5.8203825508       -8.9467924250  MEMB      141             0.0000000000
     16296       141  SAPE      H10X          -26.5931293838       -5.7885808743       -8.2672905134  MEMB      141             0.0000000000
     16297       141  SAPE      H10Y          -24.9663237509       -5.2244277260       -8.5138715058  MEMB      141             0.0000000000
     16298       141  SAPE      C311          -25.3032410026       -7.2159704193       -9.3628933984  MEMB      141             0.0000000000
     16299       141  SAPE      H11X          -24.3308332223       -7.2577218697       -9.8996127165  MEMB      141             0.0000000000
     16300       141  SAPE      H11Y          -26.1006659979       -7.6533923931      -10.0076596301  MEMB      141             0.0000000000
     16301       141  SAPE      C312          -25.1364895799       -8.1292741731       -8.1990870837  MEMB      141             0.0000000000
     16302       141  SAPE      H12X          -24.1743780834       -8.1663547710       -7.6982838231  MEMB      141             0.0000000000
     16303       141  SAPE      H12Y          -25.0298943698       -9.0941362429       -8.5823367082  MEMB      141             0.0000000000
     16304       141  SAPE      C313          -26.2999441061       -8.1161012825       -7.2665535317  MEMB      141             0.0000000000
     16305       141  SAPE      H13X          -26.2215209654       -9.1273331311       -6.7943032470  MEMB      141             0.0000000000
     16306       141  SAPE      H13Y          -27.2221851973       -8.0460373987       -7.8762889168  MEMB      141             0.0000000000
     16307       141  SAPE      C314          -26.2734854159       -6.9745113897       -6.2468058557  MEMB      141             0.0000000000
     16308       141  SAPE      H14X          -26.6797858959       -6.0062531309       -6.5192289842  MEMB      141             0.0000000000
     16309       141  SAPE      H14Y          -25.2883097848       -6.6182913783       -6.0285108218  MEMB      141             0.0000000000
     16310       141  SAPE      C315          -26.9770140985       -7.3742393822       -5.0199933350  MEMB      141             0.0000000000
     16311       141  SAPE      H15X          -26.5051283668       -8.3118150256       -4.6800099891  MEMB      141             0.0000000000
     16312       141  SAPE      H15Y          -27.9735660770       -7.6219958096       -5.4340242690  MEMB      141             0.0000000000
     16313       141  SAPE      C316          -27.0082791005       -6.2768072638       -3.9487924922  MEMB      141             0.0000000000
     16314       141  SAPE      H16X          -27.9746737501       -5.7439265616       -3.9318076968  MEMB      141             0.0000000000
     16315       141  SAPE      H16Y          -26.1364656619       -5.6181661997       -4.1573039234  MEMB      141             0.0000000000
     16316       141  SAPE      C317          -26.7621577840       -6.7077001171       -2.5337749436  MEMB      141             0.0000000000
     16317       141  SAPE      H17X          -26.2692938017       -5.9561737154       -1.9718179662  MEMB      141             0.0000000000
     16318       141  SAPE      H17Y          -26.1469105919       -7.6218906966       -2.6007081035  MEMB      141             0.0000000000
     16319       141  SAPE      C318          -27.9274174187       -6.8753298393       -1.6127114727  MEMB      141             0.0000000000
     16320       141  SAPE      H18X          -28.4841283860       -7.8105976341       -1.5369170684  MEMB      141             0.0000000000
     16321       141  SAPE      H18Y          -28.7170628300       -6.1333763923       -1.6759155358  MEMB      141             0.0000000000
     16322       141  SAPE      H18Z          -27.5092668607       -7.1196636513       -0.6668795781  MEMB      141             0.0000000000
     16323       142  CHL1      C3             -9.7501888755       27.4785838405      -17.3634532154  MEMB      142             0.0000000000
     16324       142  CHL1      H3            -10.6306933250       28.1744137866      -17.3897316830  MEMB      142             0.0000000000
     16325       142  CHL1      O3             -9.4852768638       26.9684926789      -18.6589570572  MEMB      142             0.0000000000
     16326       142  CHL1      H3'            -9.3857396163       27.7411461444      -19.2173765820  MEMB      142             0.0000000000
     16327       142  CHL1      C4             -8.5301004046       28.1503435528      -16.7641575950  MEMB      142             0.0000000000
     16328       142  CHL1      H4A            -7.6463600009       27.4795103834      -16.8345843381  MEMB      142             0.0000000000
     16329       142  CHL1      H4B            -8.3202872765       29.0280898287      -17.4239945922  MEMB      142             0.0000000000
     16330       142  CHL1      C5             -8.8786733768       28.5090011845      -15.3183998195  MEMB      142             0.0000000000
     16331       142  CHL1      C6             -9.0289803339       29.7493639740      -15.0066510070  MEMB      142             0.0000000000
     16332       142  CHL1      H6             -8.6906645538       30.3973304723      -15.8259883552  MEMB      142             0.0000000000
     16333       142  CHL1      C7             -9.1993391703       30.3182123163      -13.5866411769  MEMB      142             0.0000000000
     16334       142  CHL1      H7A            -8.5324260554       31.1379592435      -13.2425043233  MEMB      142             0.0000000000
     16335       142  CHL1      H7B           -10.1689563189       30.8049632875      -13.4843083232  MEMB      142             0.0000000000
     16336       142  CHL1      C8             -9.0684492297       29.3355524593      -12.4639881908  MEMB      142             0.0000000000
     16337       142  CHL1      H8             -8.0198605266       29.1078172514      -12.1888281349  MEMB      142             0.0000000000
     16338       142  CHL1      C14            -9.7246156736       29.9635504311      -11.2738814628  MEMB      142             0.0000000000
     16339       142  CHL1      H14           -10.7869526777       30.1758373339      -11.5665578384  MEMB      142             0.0000000000
     16340       142  CHL1      C15            -9.1982217107       31.2981078394      -10.7637394370  MEMB      142             0.0000000000
     16341       142  CHL1      H15A           -8.0851377797       31.2702942470      -10.8126194801  MEMB      142             0.0000000000
     16342       142  CHL1      H15B           -9.6192991037       32.1300312982      -11.3695559497  MEMB      142             0.0000000000
     16343       142  CHL1      C16            -9.6591122402       31.3447873598       -9.3198991929  MEMB      142             0.0000000000
     16344       142  CHL1      H16A           -8.7698012368       31.4628669481       -8.6641989099  MEMB      142             0.0000000000
     16345       142  CHL1      H16B          -10.4017052875       32.1516569704       -9.1063668675  MEMB      142             0.0000000000
     16346       142  CHL1      C17           -10.3465231286       30.0041629430       -9.1048466067  MEMB      142             0.0000000000
     16347       142  CHL1      H17           -11.4040179589       30.2514047858       -9.3891766932  MEMB      142             0.0000000000
     16348       142  CHL1      C13            -9.7513725279       29.0443432407      -10.1040909295  MEMB      142             0.0000000000
     16349       142  CHL1      C18            -8.3412447745       28.5874777685       -9.6523950213  MEMB      142             0.0000000000
     16350       142  CHL1      H18A           -7.6471809788       29.4229040962       -9.4472881072  MEMB      142             0.0000000000
     16351       142  CHL1      H18B           -8.4290221135       27.9232108050       -8.7675776280  MEMB      142             0.0000000000
     16352       142  CHL1      H18C           -7.8807382534       27.9773951955      -10.4481787985  MEMB      142             0.0000000000
     16353       142  CHL1      C12           -10.5817107001       27.8392413116      -10.5315056854  MEMB      142             0.0000000000
     16354       142  CHL1      H12A          -10.5643670655       27.0649039237       -9.7481811640  MEMB      142             0.0000000000
     16355       142  CHL1      H12B          -11.6094355588       28.2334434519      -10.6810304927  MEMB      142             0.0000000000
     16356       142  CHL1      C11           -10.0127407250       27.1521066060      -11.7700883993  MEMB      142             0.0000000000
     16357       142  CHL1      H11A           -9.0299972843       26.7214527566      -11.4825373967  MEMB      142             0.0000000000
     16358       142  CHL1      H11B          -10.6501028821       26.3061741748      -12.0747661620  MEMB      142             0.0000000000
     16359       142  CHL1      C9             -9.8382414392       28.1342835365      -12.9305368891  MEMB      142             0.0000000000
     16360       142  CHL1      H9            -10.8478023857       28.5713209822      -13.1534981896  MEMB      142             0.0000000000
     16361       142  CHL1      C10            -9.3035573344       27.5269252455      -14.2703093926  MEMB      142             0.0000000000
     16362       142  CHL1      C19            -8.2299112197       26.4938200354      -13.9135088400  MEMB      142             0.0000000000
     16363       142  CHL1      H19A           -8.6714283533       25.6719633854      -13.3180560391  MEMB      142             0.0000000000
     16364       142  CHL1      H19B           -7.7964870672       26.0367261875      -14.8243775975  MEMB      142             0.0000000000
     16365       142  CHL1      H19C           -7.4454156144       26.9668719167      -13.2931981984  MEMB      142             0.0000000000
     16366       142  CHL1      C1            -10.4537755609       26.9261562449      -15.0684551482  MEMB      142             0.0000000000
     16367       142  CHL1      H1A           -10.7413534937       26.1107038761      -14.4369947427  MEMB      142             0.0000000000
     16368       142  CHL1      H1B           -11.3000692478       27.6506957923      -15.1676669232  MEMB      142             0.0000000000
     16369       142  CHL1      C2            -10.1105745633       26.3528181100      -16.4472038506  MEMB      142             0.0000000000
     16370       142  CHL1      H2A           -11.0115658793       25.9542675368      -16.9354979158  MEMB      142             0.0000000000
     16371       142  CHL1      H2B            -9.3213113932       25.5717532336      -16.3775157097  MEMB      142             0.0000000000
     16372       142  CHL1      C20           -10.3275465105       29.5457204623       -7.7101785120  MEMB      142             0.0000000000
     16373       142  CHL1      H20            -9.3634920602       29.2158029237       -7.2831012999  MEMB      142             0.0000000000
     16374       142  CHL1      C21           -11.1657270182       28.2367574496       -7.6807470236  MEMB      142             0.0000000000
     16375       142  CHL1      H21A          -11.4397616241       28.1049950801       -6.6444970539  MEMB      142             0.0000000000
     16376       142  CHL1      H21B          -10.6257436015       27.3145337196       -7.8313047555  MEMB      142             0.0000000000
     16377       142  CHL1      H21C          -12.0439279041       28.1496454381       -8.3912027699  MEMB      142             0.0000000000
     16378       142  CHL1      C22           -10.5280952046       30.8059475235       -6.8475017842  MEMB      142             0.0000000000
     16379       142  CHL1      H22A           -9.5599271729       31.3321175004       -6.8526162388  MEMB      142             0.0000000000
     16380       142  CHL1      H22B          -11.3346628606       31.5431788401       -7.1230773799  MEMB      142             0.0000000000
     16381       142  CHL1      C23           -10.5872850440       30.5885133097       -5.4074435934  MEMB      142             0.0000000000
     16382       142  CHL1      H23A          -11.6471603261       30.4336979973       -5.2411691510  MEMB      142             0.0000000000
     16383       142  CHL1      H23B          -10.1870901983       29.7102448195       -4.9093514871  MEMB      142             0.0000000000
     16384       142  CHL1      C24           -10.0773718061       31.8714138181       -4.8647011529  MEMB      142             0.0000000000
     16385       142  CHL1      H24A           -9.0725904458       32.1627500560       -4.9955870445  MEMB      142             0.0000000000
     16386       142  CHL1      H24B          -10.8090249444       32.6403223630       -5.2111921400  MEMB      142             0.0000000000
     16387       142  CHL1      C25            -9.7362280567       31.9896271091       -3.4485062451  MEMB      142             0.0000000000
     16388       142  CHL1      H25            -9.6576996695       30.9304162208       -3.1337656643  MEMB      142             0.0000000000
     16389       142  CHL1      C26            -8.8597500435       32.9513245666       -2.8093918301  MEMB      142             0.0000000000
     16390       142  CHL1      H26A           -8.7334919518       33.2131391235       -1.7515684842  MEMB      142             0.0000000000
     16391       142  CHL1      H26B           -7.8970137417       32.7985399769       -3.0650514560  MEMB      142             0.0000000000
     16392       142  CHL1      H26C           -9.1421620370       33.9368955727       -2.9459210035  MEMB      142             0.0000000000
     16393       142  CHL1      C27           -10.7126234761       32.8745339765       -2.9496762114  MEMB      142             0.0000000000
     16394       142  CHL1      H27A          -11.1971762093       33.7670766533       -3.3066420056  MEMB      142             0.0000000000
     16395       142  CHL1      H27B          -11.3899697934       32.4846266033       -3.5921749432  MEMB      142             0.0000000000
     16396       142  CHL1      H27C          -11.0896594726       32.5556590185       -2.0029326294  MEMB      142             0.0000000000
     16397       143  POPC      N              28.5868463118       -2.9500127607      -20.5209766215  MEMB      143             0.0000000000
     16398       143  POPC      C12            27.3422875902       -2.8212010385      -19.6434640812  MEMB      143             0.0000000000
     16399       143  POPC      H12A           27.0147797963       -3.8270835615      -19.4216850937  MEMB      143             0.0000000000
     16400       143  POPC      H12B           26.5538453203       -2.3180394601      -20.1966181390  MEMB      143             0.0000000000
     16401       143  POPC      C13            29.7092758540       -3.4478012927      -19.6753100880  MEMB      143             0.0000000000
     16402       143  POPC      H13A           29.6232044994       -4.4828365714      -19.3838409323  MEMB      143             0.0000000000
     16403       143  POPC      H13B           30.6686450294       -3.2389630223      -20.1195988081  MEMB      143             0.0000000000
     16404       143  POPC      H13C           29.7034326413       -2.8949797538      -18.7267998692  MEMB      143             0.0000000000
     16405       143  POPC      C14            28.3664546217       -3.9093291903      -21.6287461742  MEMB      143             0.0000000000
     16406       143  POPC      H14A           27.4513566754       -3.6853265311      -22.1653826094  MEMB      143             0.0000000000
     16407       143  POPC      H14B           29.1877681094       -3.8225473145      -22.3277665879  MEMB      143             0.0000000000
     16408       143  POPC      H14C           28.3254665292       -4.9200840124      -21.2452255967  MEMB      143             0.0000000000
     16409       143  POPC      C15            28.9701777552       -1.6370779116      -21.1433023138  MEMB      143             0.0000000000
     16410       143  POPC      H15A           29.1522204887       -0.8708809907      -20.3804539227  MEMB      143             0.0000000000
     16411       143  POPC      H15B           28.1686175995       -1.2277498780      -21.7578856154  MEMB      143             0.0000000000
     16412       143  POPC      H15C           29.8647992429       -1.7283608809      -21.7398443663  MEMB      143             0.0000000000
     16413       143  POPC      C11            27.4690376937       -2.0528597412      -18.2940831367  MEMB      143             0.0000000000
     16414       143  POPC      H11A           27.9429520849       -2.7047561381      -17.5255432047  MEMB      143             0.0000000000
     16415       143  POPC      H11B           26.4491199718       -1.8059344197      -17.9110464451  MEMB      143             0.0000000000
     16416       143  POPC      P              29.3751680381       -0.3068202647      -17.6140193048  MEMB      143             0.0000000000
     16417       143  POPC      O13            28.9219403102       -0.1008376396      -16.2208305338  MEMB      143             0.0000000000
     16418       143  POPC      O14            30.0820357794        0.7924430420      -18.3194955469  MEMB      143             0.0000000000
     16419       143  POPC      O12            28.1667395358       -0.8353790319      -18.4866998431  MEMB      143             0.0000000000
     16420       143  POPC      O11            30.2840434176       -1.6033947217      -17.6480227901  MEMB      143             0.0000000000
     16421       143  POPC      C1             31.2744746147       -1.8405881345      -16.6598681332  MEMB      143             0.0000000000
     16422       143  POPC      HA             31.0271700877       -1.3222425612      -15.7212063809  MEMB      143             0.0000000000
     16423       143  POPC      HB             32.2214536001       -1.4871085157      -17.0822201631  MEMB      143             0.0000000000
     16424       143  POPC      C2             31.4620705470       -3.3266594501      -16.2693912281  MEMB      143             0.0000000000
     16425       143  POPC      HS             32.0779459610       -3.7803561187      -17.0842272452  MEMB      143             0.0000000000
     16426       143  POPC      O21            30.1664750721       -3.9109392096      -16.1814082073  MEMB      143             0.0000000000
     16427       143  POPC      C21            30.1398984373       -5.1837768192      -16.4236220225  MEMB      143             0.0000000000
     16428       143  POPC      O22            31.0840191588       -5.8508814366      -16.7996316707  MEMB      143             0.0000000000
     16429       143  POPC      C22            28.6823972797       -5.6460765097      -16.2725519469  MEMB      143             0.0000000000
     16430       143  POPC      H2R            28.6147788981       -6.7470236534      -16.3624324491  MEMB      143             0.0000000000
     16431       143  POPC      H2S            28.1124796640       -5.1970782394      -17.1159213780  MEMB      143             0.0000000000
     16432       143  POPC      C3             32.2126900234       -3.5446030238      -14.9265644277  MEMB      143             0.0000000000
     16433       143  POPC      HX             33.1708973778       -2.9608877483      -14.9491507468  MEMB      143             0.0000000000
     16434       143  POPC      HY             32.5792581125       -4.5705963518      -14.8424520982  MEMB      143             0.0000000000
     16435       143  POPC      O31            31.2942585224       -3.3366692427      -13.8136640366  MEMB      143             0.0000000000
     16436       143  POPC      C31            31.7158267208       -2.3599151257      -13.0549648317  MEMB      143             0.0000000000
     16437       143  POPC      O32            32.7483333700       -1.7819403068      -13.2396107724  MEMB      143             0.0000000000
     16438       143  POPC      C32            30.7981698844       -1.9708108668      -11.9374225929  MEMB      143             0.0000000000
     16439       143  POPC      H2X            31.2503251407       -2.1532755610      -10.9461744637  MEMB      143             0.0000000000
     16440       143  POPC      H2Y            29.8575420371       -2.5153243871      -12.0666477772  MEMB      143             0.0000000000
     16441       143  POPC      C23            27.9928979926       -5.1629139741      -14.9734264720  MEMB      143             0.0000000000
     16442       143  POPC      H3R            28.3461914176       -4.1443326482      -14.6937319680  MEMB      143             0.0000000000
     16443       143  POPC      H3S            28.2175969624       -5.8612781828      -14.1381060313  MEMB      143             0.0000000000
     16444       143  POPC      C24            26.4769237057       -5.0975938054      -15.1930392024  MEMB      143             0.0000000000
     16445       143  POPC      H4R            26.2036589829       -6.0613666074      -15.6820494700  MEMB      143             0.0000000000
     16446       143  POPC      H4S            26.2594643527       -4.2870264244      -15.9246194431  MEMB      143             0.0000000000
     16447       143  POPC      C25            25.6447184665       -4.9400325392      -13.9079480876  MEMB      143             0.0000000000
     16448       143  POPC      H5R            25.9687894929       -5.7063959457      -13.1692619711  MEMB      143             0.0000000000
     16449       143  POPC      H5S            24.5664784012       -5.0979230299      -14.1492933143  MEMB      143             0.0000000000
     16450       143  POPC      C26            25.7094180035       -3.5888326638      -13.2136674136  MEMB      143             0.0000000000
     16451       143  POPC      H6R            25.4456172684       -2.7841235917      -13.9390083433  MEMB      143             0.0000000000
     16452       143  POPC      H6S            26.7402023423       -3.4111275170      -12.8379202611  MEMB      143             0.0000000000
     16453       143  POPC      C27            24.7805575362       -3.5084472536      -12.0002721777  MEMB      143             0.0000000000
     16454       143  POPC      H7R            25.1149276190       -4.1961774901      -11.1926458200  MEMB      143             0.0000000000
     16455       143  POPC      H7S            23.7414852867       -3.7875620048      -12.2864107297  MEMB      143             0.0000000000
     16456       143  POPC      C28            24.7942920184       -2.0872794073      -11.4811474628  MEMB      143             0.0000000000
     16457       143  POPC      H8R            24.1801769550       -1.9321957144      -10.6450865134  MEMB      143             0.0000000000
     16458       143  POPC      H8S            24.3642410647       -1.4090647780      -12.2482396657  MEMB      143             0.0000000000
     16459       143  POPC      C29            26.0497096508       -1.5837547751      -10.9110594451  MEMB      143             0.0000000000
     16460       143  POPC      H91            26.4384303931       -0.8440894371      -11.6036369524  MEMB      143             0.0000000000
     16461       143  POPC      C210           26.7011038903       -1.9311166201       -9.7798123625  MEMB      143             0.0000000000
     16462       143  POPC      H101           27.6267750369       -1.3880720177       -9.5685447490  MEMB      143             0.0000000000
     16463       143  POPC      C211           26.3397987498       -2.9698409224       -8.7311416038  MEMB      143             0.0000000000
     16464       143  POPC      H11R           26.7625942579       -3.9441661267       -9.0486802591  MEMB      143             0.0000000000
     16465       143  POPC      H11S           25.2377602145       -3.1061981733       -8.6024604134  MEMB      143             0.0000000000
     16466       143  POPC      C212           26.9632725931       -2.7258312078       -7.3345089123  MEMB      143             0.0000000000
     16467       143  POPC      H12R           28.0669094237       -2.6726457624       -7.3996155952  MEMB      143             0.0000000000
     16468       143  POPC      H12S           26.7114018869       -3.5983445312       -6.6854213651  MEMB      143             0.0000000000
     16469       143  POPC      C213           26.3473563040       -1.5011156613       -6.6801473536  MEMB      143             0.0000000000
     16470       143  POPC      H13R           25.5421730955       -1.2762795254       -7.3753536813  MEMB      143             0.0000000000
     16471       143  POPC      H13S           26.9594474812       -0.5756405124       -6.6398569294  MEMB      143             0.0000000000
     16472       143  POPC      C214           25.7278486396       -1.7929928304       -5.3378704288  MEMB      143             0.0000000000
     16473       143  POPC      H14R           25.4568371167       -2.8714918410       -5.2098494740  MEMB      143             0.0000000000
     16474       143  POPC      H14S           24.8345080215       -1.1762456910       -5.1164901057  MEMB      143             0.0000000000
     16475       143  POPC      C215           26.7131868090       -1.3216188927       -4.3517627932  MEMB      143             0.0000000000
     16476       143  POPC      H15R           27.0473206953       -0.2807823652       -4.3836229898  MEMB      143             0.0000000000
     16477       143  POPC      H15S           27.6712200387       -1.8202059437       -4.5606091934  MEMB      143             0.0000000000
     16478       143  POPC      C216           26.1452280357       -1.5102973175       -3.0260329674  MEMB      143             0.0000000000
     16479       143  POPC      H16R           25.8223894302       -2.5998580319       -2.8623385617  MEMB      143             0.0000000000
     16480       143  POPC      H16S           25.2300834444       -0.9349486141       -2.7752436972  MEMB      143             0.0000000000
     16481       143  POPC      C217           27.2568497971       -0.9943294727       -2.2045227071  MEMB      143             0.0000000000
     16482       143  POPC      H17R           27.1233670638        0.0834967343       -1.9829789395  MEMB      143             0.0000000000
     16483       143  POPC      H17S           28.3801350736       -1.0748704985       -2.2396402716  MEMB      143             0.0000000000
     16484       143  POPC      C218           26.9065917943       -2.0577462929       -1.2615760486  MEMB      143             0.0000000000
     16485       143  POPC      H18R           25.8244000798       -2.2133604082       -1.0040241244  MEMB      143             0.0000000000
     16486       143  POPC      H18S           27.4077386539       -1.2468304532       -0.7120718928  MEMB      143             0.0000000000
     16487       143  POPC      H18T           27.4554597900       -2.8388548370       -0.7616031392  MEMB      143             0.0000000000
     16488       143  POPC      C33            30.5981692771       -0.4614194995      -12.0489448941  MEMB      143             0.0000000000
     16489       143  POPC      H3X            30.1929625164       -0.1923198257      -13.0460720440  MEMB      143             0.0000000000
     16490       143  POPC      H3Y            31.5590909283        0.0338000805      -11.9659129513  MEMB      143             0.0000000000
     16491       143  POPC      C34            29.7805584037        0.1621198078      -10.9356648118  MEMB      143             0.0000000000
     16492       143  POPC      H4X            28.7221768079       -0.0643806126      -11.1340902802  MEMB      143             0.0000000000
     16493       143  POPC      H4Y            29.9123941336        1.2640104382      -11.0589437284  MEMB      143             0.0000000000
     16494       143  POPC      C35            30.1762212522       -0.2847030624       -9.5157820299  MEMB      143             0.0000000000
     16495       143  POPC      H5X            31.2834805996       -0.3261138326       -9.4447596912  MEMB      143             0.0000000000
     16496       143  POPC      H5Y            29.8118790023       -1.3152513710       -9.3040711418  MEMB      143             0.0000000000
     16497       143  POPC      C36            29.6167839970        0.6850677499       -8.4717051558  MEMB      143             0.0000000000
     16498       143  POPC      H6X            28.5288975056        0.7001814254       -8.6080608244  MEMB      143             0.0000000000
     16499       143  POPC      H6Y            29.9922476464        1.7112660357       -8.6674122293  MEMB      143             0.0000000000
     16500       143  POPC      C37            29.8100412136        0.3072001622       -7.0118142071  MEMB      143             0.0000000000
     16501       143  POPC      H7X            29.3273451548       -0.6777428673       -6.8046228392  MEMB      143             0.0000000000
     16502       143  POPC      H7Y            29.3428559261        1.0704999249       -6.3432290095  MEMB      143             0.0000000000
     16503       143  POPC      C38            31.2460673760        0.2034266787       -6.5921163062  MEMB      143             0.0000000000
     16504       143  POPC      H8X            31.6562167185        1.2112988839       -6.3649749296  MEMB      143             0.0000000000
     16505       143  POPC      H8Y            31.8962593774       -0.2692834404       -7.3656988360  MEMB      143             0.0000000000
     16506       143  POPC      C39            31.2561241668       -0.6588901459       -5.3718528498  MEMB      143             0.0000000000
     16507       143  POPC      H9X            31.1284948503       -1.7170172547       -5.7020602960  MEMB      143             0.0000000000
     16508       143  POPC      H9Y            30.4917913362       -0.4604465923       -4.5925908714  MEMB      143             0.0000000000
     16509       143  POPC      C310           32.5221027453       -0.4259921201       -4.6903957306  MEMB      143             0.0000000000
     16510       143  POPC      H10X           32.7454541194        0.5599560456       -4.2372480734  MEMB      143             0.0000000000
     16511       143  POPC      H10Y           33.3257912977       -0.5905940038       -5.3669164470  MEMB      143             0.0000000000
     16512       143  POPC      C311           32.5999072958       -1.4364924329       -3.6579041742  MEMB      143             0.0000000000
     16513       143  POPC      H11X           32.1396113429       -1.1240572428       -2.7130324835  MEMB      143             0.0000000000
     16514       143  POPC      H11Y           33.5446224654       -1.2107127031       -3.4498782139  MEMB      143             0.0000000000
     16515       143  POPC      C312           32.7324425726       -2.8934781663       -4.0599185661  MEMB      143             0.0000000000
     16516       143  POPC      H12X           33.4916712203       -3.2952948192       -4.6335745690  MEMB      143             0.0000000000
     16517       143  POPC      H12Y           32.0038227658       -3.1631462620       -4.7942823923  MEMB      143             0.0000000000
     16518       143  POPC      C313           33.2507687266       -3.7691925474       -3.0172148664  MEMB      143             0.0000000000
     16519       143  POPC      H13X           34.1621572633       -3.5247806426       -2.3521998810  MEMB      143             0.0000000000
     16520       143  POPC      H13Y           32.9987947272       -4.8157460571       -3.1436948916  MEMB      143             0.0000000000
     16521       143  POPC      C314           32.3930365624       -4.2961754242       -2.1665588571  MEMB      143             0.0000000000
     16522       143  POPC      H14X           32.4102047073       -3.1532634154       -1.9643140478  MEMB      143             0.0000000000
     16523       143  POPC      H14Y           32.8663403662       -4.2267243381       -1.1720771857  MEMB      143             0.0000000000
     16524       143  POPC      C315           30.7974623021       -5.2477491604       -2.3716805664  MEMB      143             0.0000000000
     16525       143  POPC      H15X           31.3589626300       -6.0293205799       -2.5844275057  MEMB      143             0.0000000000
     16526       143  POPC      H15Y           30.0902785415       -5.4690645161       -3.0187922882  MEMB      143             0.0000000000
     16527       143  POPC      C316           29.2279567317       -5.1574421552       -1.4249621664  MEMB      143             0.0000000000
     16528       143  POPC      H16X           28.8148036275       -4.3227627182       -0.7665014150  MEMB      143             0.0000000000
     16529       143  POPC      H16Y           29.3844046227       -4.9164098856       -0.3815099966  MEMB      143             0.0000000000
     16530       143  POPC      H16Z           28.3067131847       -5.6806701644       -1.4878288700  MEMB      143             0.0000000000
     16531       144  SAPC      N               9.0164421638      -28.7110648201      -19.1201792190  MEMB      144             0.0000000000
     16532       144  SAPC      C12             8.1869028080      -27.5504076381      -19.5518694982  MEMB      144             0.0000000000
     16533       144  SAPC      H12A            8.8793228134      -26.6974260235      -19.5739435996  MEMB      144             0.0000000000
     16534       144  SAPC      H12B            7.4622821465      -27.2728783383      -18.7595900353  MEMB      144             0.0000000000
     16535       144  SAPC      C13             9.4487708785      -28.4980813857      -17.6965520142  MEMB      144             0.0000000000
     16536       144  SAPC      H13A           10.0394359844      -29.3246504732      -17.3247976715  MEMB      144             0.0000000000
     16537       144  SAPC      H13B           10.0313414273      -27.5859886473      -17.6119579210  MEMB      144             0.0000000000
     16538       144  SAPC      H13C            8.5804075245      -28.3745930478      -17.0481767948  MEMB      144             0.0000000000
     16539       144  SAPC      C14             8.2103309164      -29.9745769961      -19.2595632043  MEMB      144             0.0000000000
     16540       144  SAPC      H14A            7.8731351946      -30.1233101662      -20.2936833587  MEMB      144             0.0000000000
     16541       144  SAPC      H14B            8.7527727166      -30.8453146841      -18.9381484422  MEMB      144             0.0000000000
     16542       144  SAPC      H14C            7.2663497385      -29.9530216281      -18.7114523489  MEMB      144             0.0000000000
     16543       144  SAPC      C15            10.2261638994      -28.7354223153      -19.9910589547  MEMB      144             0.0000000000
     16544       144  SAPC      H15A           10.8738126062      -27.8983544966      -19.7711628815  MEMB      144             0.0000000000
     16545       144  SAPC      H15B           10.7961439633      -29.6381239677      -19.8311124385  MEMB      144             0.0000000000
     16546       144  SAPC      H15C            9.9126449244      -28.7211244194      -21.0354179335  MEMB      144             0.0000000000
     16547       144  SAPC      C11             7.4779110418      -27.4349972289      -20.8923440245  MEMB      144             0.0000000000
     16548       144  SAPC      H11A            8.2052814484      -27.5350908451      -21.7178601427  MEMB      144             0.0000000000
     16549       144  SAPC      H11B            7.0953287811      -26.3902132122      -21.0002344626  MEMB      144             0.0000000000
     16550       144  SAPC      P               4.9204331316      -28.0212401501      -20.8360177317  MEMB      144             0.0000000000
     16551       144  SAPC      O13             4.4762755023      -27.2241604018      -22.0033963978  MEMB      144             0.0000000000
     16552       144  SAPC      O14             4.0823475439      -29.1216177286      -20.3313526441  MEMB      144             0.0000000000
     16553       144  SAPC      O12             6.4528971915      -28.4135983333      -20.9677087505  MEMB      144             0.0000000000
     16554       144  SAPC      O11             4.9506610244      -27.0653053235      -19.6941547953  MEMB      144             0.0000000000
     16555       144  SAPC      C1              3.8448784743      -26.3354723162      -19.2049190529  MEMB      144             0.0000000000
     16556       144  SAPC      HA              3.6109882543      -25.4290474971      -19.8389826081  MEMB      144             0.0000000000
     16557       144  SAPC      HB              2.9587487178      -26.9556639690      -19.0108942869  MEMB      144             0.0000000000
     16558       144  SAPC      C2              4.2443755631      -25.7644826789      -17.8843763442  MEMB      144             0.0000000000
     16559       144  SAPC      HS              3.5381619900      -24.9291727593      -17.7529815058  MEMB      144             0.0000000000
     16560       144  SAPC      O21             5.7166255112      -25.7046103809      -17.8946085562  MEMB      144             0.0000000000
     16561       144  SAPC      C21             6.4100529933      -25.2279801800      -19.0292583140  MEMB      144             0.0000000000
     16562       144  SAPC      O22             5.8945076138      -24.5397389333      -19.8982849491  MEMB      144             0.0000000000
     16563       144  SAPC      C22             7.9417378564      -25.0026955167      -18.4998247302  MEMB      144             0.0000000000
     16564       144  SAPC      H2R             8.5425278594      -25.7870405604      -18.4651425476  MEMB      144             0.0000000000
     16565       144  SAPC      H2S             8.3824114796      -24.1739174835      -19.1077363368  MEMB      144             0.0000000000
     16566       144  SAPC      C3              3.7361878890      -26.4552111708      -16.6143343420  MEMB      144             0.0000000000
     16567       144  SAPC      HX              2.6216967754      -26.3612950664      -16.6986378883  MEMB      144             0.0000000000
     16568       144  SAPC      HY              4.0111355579      -25.9568453670      -15.6523108762  MEMB      144             0.0000000000
     16569       144  SAPC      O31             4.0657851609      -27.8082898657      -16.6688558836  MEMB      144             0.0000000000
     16570       144  SAPC      C31             5.2843498623      -28.1211993788      -16.3334130255  MEMB      144             0.0000000000
     16571       144  SAPC      O32             6.1307491191      -27.4173283010      -15.8097281130  MEMB      144             0.0000000000
     16572       144  SAPC      C32             5.3727010563      -29.5958657757      -16.6785427677  MEMB      144             0.0000000000
     16573       144  SAPC      H2X             5.7197971892      -29.6374790232      -17.7328538196  MEMB      144             0.0000000000
     16574       144  SAPC      H2Y             4.3436229246      -30.0191364334      -16.6559001352  MEMB      144             0.0000000000
     16575       144  SAPC      C23             8.3817657247      -25.0189836798      -16.9314076701  MEMB      144             0.0000000000
     16576       144  SAPC      H3R             7.7453100432      -25.4702656512      -16.1115876475  MEMB      144             0.0000000000
     16577       144  SAPC      H3S             8.1602281087      -24.1038699381      -17.2429944115  MEMB      144             0.0000000000
     16578       144  SAPC      C24             9.6024880966      -24.2526070811      -16.4103762350  MEMB      144             0.0000000000
     16579       144  SAPC      H4R             9.6825791843      -23.9383986415      -15.4390993259  MEMB      144             0.0000000000
     16580       144  SAPC      H4S            10.1153347231      -23.4388894868      -16.8754518595  MEMB      144             0.0000000000
     16581       144  SAPC      C25            10.2098932675      -25.4713125906      -16.3748341438  MEMB      144             0.0000000000
     16582       144  SAPC      H5R            10.3363659823      -25.7199240580      -17.4202654087  MEMB      144             0.0000000000
     16583       144  SAPC      C26            10.6124611225      -26.0680484382      -15.2641669807  MEMB      144             0.0000000000
     16584       144  SAPC      H6R            11.1982452927      -26.9184457090      -15.4640163462  MEMB      144             0.0000000000
     16585       144  SAPC      C27            10.5388547998      -25.6511924012      -13.8137136155  MEMB      144             0.0000000000
     16586       144  SAPC      H7R            10.6246710075      -24.6148173760      -13.5933034895  MEMB      144             0.0000000000
     16587       144  SAPC      H7S            11.4913193190      -25.9271848556      -13.3253058522  MEMB      144             0.0000000000
     16588       144  SAPC      C28             9.3169329078      -26.1080096187      -13.0940819153  MEMB      144             0.0000000000
     16589       144  SAPC      H8R             8.4347110716      -26.3399444670      -13.7076718551  MEMB      144             0.0000000000
     16590       144  SAPC      C29             9.2104266886      -26.0274790601      -11.7694242937  MEMB      144             0.0000000000
     16591       144  SAPC      H9R             8.3370726119      -26.4575564265      -11.2535649008  MEMB      144             0.0000000000
     16592       144  SAPC      C210           10.3142039953      -25.4637538764      -10.9231680665  MEMB      144             0.0000000000
     16593       144  SAPC      H10R           10.0129738510      -24.6588712619      -10.2523834824  MEMB      144             0.0000000000
     16594       144  SAPC      H10S           11.2219612920      -25.1301549559      -11.4752254778  MEMB      144             0.0000000000
     16595       144  SAPC      C211           10.7650728247      -26.2098804280       -9.8121263135  MEMB      144             0.0000000000
     16596       144  SAPC      H11R           11.7425370953      -26.5402552167      -10.2482238032  MEMB      144             0.0000000000
     16597       144  SAPC      C212            9.9874285332      -26.9081258924       -8.9216389366  MEMB      144             0.0000000000
     16598       144  SAPC      H12R           10.4118417604      -27.5253765645       -8.1613220645  MEMB      144             0.0000000000
     16599       144  SAPC      C213            8.6238079976      -27.2744557504       -8.6157504500  MEMB      144             0.0000000000
     16600       144  SAPC      H13R            8.3287247369      -27.8405313327       -9.4982566528  MEMB      144             0.0000000000
     16601       144  SAPC      H13S            8.3595330893      -26.2207458234       -8.5165750908  MEMB      144             0.0000000000
     16602       144  SAPC      C214            8.3377574705      -28.2473413043       -7.4575860387  MEMB      144             0.0000000000
     16603       144  SAPC      H14R            8.9847263757      -29.1521940082       -7.3306912465  MEMB      144             0.0000000000
     16604       144  SAPC      C215            7.6890172113      -27.8197913222       -6.3754443265  MEMB      144             0.0000000000
     16605       144  SAPC      H15R            7.8333794623      -28.3415596326       -5.4165815958  MEMB      144             0.0000000000
     16606       144  SAPC      C216            7.2043912185      -26.4123591948       -6.2832867828  MEMB      144             0.0000000000
     16607       144  SAPC      H16R            6.2547528309      -26.4771103810       -5.7375556969  MEMB      144             0.0000000000
     16608       144  SAPC      H16S            6.9573887585      -26.0427529948       -7.2980539574  MEMB      144             0.0000000000
     16609       144  SAPC      C217            7.9771432891      -25.2731399625       -5.6133903020  MEMB      144             0.0000000000
     16610       144  SAPC      H17R            7.4013330541      -24.3516115154       -5.8830922390  MEMB      144             0.0000000000
     16611       144  SAPC      H17S            9.0014581152      -25.1294966690       -6.0270610294  MEMB      144             0.0000000000
     16612       144  SAPC      C218            8.0056858966      -25.4117140738       -4.0872345685  MEMB      144             0.0000000000
     16613       144  SAPC      H18R            8.6724461665      -26.2649975958       -3.8404410084  MEMB      144             0.0000000000
     16614       144  SAPC      H18S            7.0046467234      -25.6178228004       -3.6568453228  MEMB      144             0.0000000000
     16615       144  SAPC      C219            8.5422061606      -24.1257879623       -3.4942774870  MEMB      144             0.0000000000
     16616       144  SAPC      H19R            7.9870025398      -23.2655972801       -3.9471080615  MEMB      144             0.0000000000
     16617       144  SAPC      H19S            9.6011650681      -24.1286608307       -3.8424976186  MEMB      144             0.0000000000
     16618       144  SAPC      C220            8.4969187959      -23.9067538019       -1.9919697051  MEMB      144             0.0000000000
     16619       144  SAPC      H20R            9.2781107938      -23.1780239417       -1.6803925293  MEMB      144             0.0000000000
     16620       144  SAPC      H20S            8.6565516406      -24.8553359645       -1.4434944281  MEMB      144             0.0000000000
     16621       144  SAPC      H20T            7.5158289186      -23.4654050164       -1.7164360428  MEMB      144             0.0000000000
     16622       144  SAPC      C33             6.2844620516      -30.4384237972      -15.7674606831  MEMB      144             0.0000000000
     16623       144  SAPC      H3X             7.2503971235      -29.9122795269      -15.6345542010  MEMB      144             0.0000000000
     16624       144  SAPC      H3Y             6.4608530256      -31.3758647356      -16.3510908947  MEMB      144             0.0000000000
     16625       144  SAPC      C34             5.6546076566      -30.8385014839      -14.4101512362  MEMB      144             0.0000000000
     16626       144  SAPC      H4X             6.0838510723      -31.8139785021      -14.0832325095  MEMB      144             0.0000000000
     16627       144  SAPC      H4Y             4.5677043340      -31.0233220340      -14.5553283520  MEMB      144             0.0000000000
     16628       144  SAPC      C35             5.8694110866      -29.7985716380      -13.2843388901  MEMB      144             0.0000000000
     16629       144  SAPC      H5X             5.2011528904      -28.9318284048      -13.4875384731  MEMB      144             0.0000000000
     16630       144  SAPC      H5Y             6.9231750923      -29.4429974065      -13.3103699197  MEMB      144             0.0000000000
     16631       144  SAPC      C36             5.5998341076      -30.3011255611      -11.8462126756  MEMB      144             0.0000000000
     16632       144  SAPC      H6X             6.0926609297      -31.2834683630      -11.6928005320  MEMB      144             0.0000000000
     16633       144  SAPC      H6Y             4.5035307176      -30.4552260757      -11.7305224088  MEMB      144             0.0000000000
     16634       144  SAPC      C37             6.1019647096      -29.3524368793      -10.7265822814  MEMB      144             0.0000000000
     16635       144  SAPC      H7X             6.0052697054      -28.3062095804      -11.0947811432  MEMB      144             0.0000000000
     16636       144  SAPC      H7Y             7.1708727871      -29.5407907326      -10.4864441887  MEMB      144             0.0000000000
     16637       144  SAPC      C38             5.2575867397      -29.4018837150       -9.4441144691  MEMB      144             0.0000000000
     16638       144  SAPC      H8X             4.1924286253      -29.3590609646       -9.7836758358  MEMB      144             0.0000000000
     16639       144  SAPC      H8Y             5.4243483745      -28.5722589767       -8.7441690730  MEMB      144             0.0000000000
     16640       144  SAPC      C39             5.5244095907      -30.5499880799       -8.4989873907  MEMB      144             0.0000000000
     16641       144  SAPC      H9X             6.5200949856      -30.8823595388       -8.2193905732  MEMB      144             0.0000000000
     16642       144  SAPC      H9Y             5.4659999061      -31.3123215626       -9.3486567360  MEMB      144             0.0000000000
     16643       144  SAPC      C310            4.4182385549      -30.4778204798       -7.2843768531  MEMB      144             0.0000000000
     16644       144  SAPC      H10X            4.2532737596      -31.3842629758       -6.6869904014  MEMB      144             0.0000000000
     16645       144  SAPC      H10Y            3.3201785493      -30.3911409705       -7.5583456069  MEMB      144             0.0000000000
     16646       144  SAPC      C311            4.5287372665      -29.6901486979       -6.1546642222  MEMB      144             0.0000000000
     16647       144  SAPC      H11X            4.2580904599      -28.7725019099       -6.7254080110  MEMB      144             0.0000000000
     16648       144  SAPC      H11Y            5.5917558983      -29.9707717319       -5.9783240969  MEMB      144             0.0000000000
     16649       144  SAPC      C312            3.4868368377      -30.2298457738       -5.1458748559  MEMB      144             0.0000000000
     16650       144  SAPC      H12X            3.6068430541      -31.3155029934       -4.8757984018  MEMB      144             0.0000000000
     16651       144  SAPC      H12Y            2.4349238363      -30.1696561512       -5.5222322102  MEMB      144             0.0000000000
     16652       144  SAPC      C313            3.7032807306      -29.4493555989       -3.9034140501  MEMB      144             0.0000000000
     16653       144  SAPC      H13X            4.7976783304      -29.4793797956       -3.6725467282  MEMB      144             0.0000000000
     16654       144  SAPC      H13Y            3.1232845599      -29.9778955324       -3.1242579988  MEMB      144             0.0000000000
     16655       144  SAPC      C314            3.2258178105      -28.0161725421       -4.0830305220  MEMB      144             0.0000000000
     16656       144  SAPC      H14X            2.1547530357      -28.0222730432       -4.3833539447  MEMB      144             0.0000000000
     16657       144  SAPC      H14Y            3.7825292003      -27.5159783528       -4.9078691153  MEMB      144             0.0000000000
     16658       144  SAPC      C315            3.4534212097      -27.1952551041       -2.8161786575  MEMB      144             0.0000000000
     16659       144  SAPC      H15X            3.2948274785      -26.1285726036       -3.0800078669  MEMB      144             0.0000000000
     16660       144  SAPC      H15Y            4.4950880959      -27.3363264116       -2.4643615467  MEMB      144             0.0000000000
     16661       144  SAPC      C316            2.4976875081      -27.5204964559       -1.6820488619  MEMB      144             0.0000000000
     16662       144  SAPC      H16X            2.5949267963      -28.5717593826       -1.3203050000  MEMB      144             0.0000000000
     16663       144  SAPC      H16Y            1.5026651250      -27.3493180518       -2.1251496255  MEMB      144             0.0000000000
     16664       144  SAPC      C317            2.4449866707      -26.5269649662       -0.5354886839  MEMB      144             0.0000000000
     16665       144  SAPC      H17X            2.0154025285      -27.0759097292        0.3347830571  MEMB      144             0.0000000000
     16666       144  SAPC      H17Y            1.7150413173      -25.7360896406       -0.8302717604  MEMB      144             0.0000000000
     16667       144  SAPC      C318            3.7789106242      -25.8983522068       -0.1484970071  MEMB      144             0.0000000000
     16668       144  SAPC      H18X            4.4676455742      -26.6990728820        0.1910949328  MEMB      144             0.0000000000
     16669       144  SAPC      H18Y            3.6230556170      -25.1721272389        0.6752366021  MEMB      144             0.0000000000
     16670       144  SAPC      H18Z            4.2711371552      -25.3554825052       -0.9835244312  MEMB      144             0.0000000000
     16671       145  SLPC      N             -25.4928179061      -12.8068863117      -19.2400018425  MEMB      145             0.0000000000
     16672       145  SLPC      C13           -25.1372008092      -11.4051570055      -19.2068434540  MEMB      145             0.0000000000
     16673       145  SLPC      H13A          -25.9163407439      -11.0421657308      -19.8722962885  MEMB      145             0.0000000000
     16674       145  SLPC      H13B          -25.3868223345      -10.9495518457      -18.2368023053  MEMB      145             0.0000000000
     16675       145  SLPC      H13C          -24.2267027893      -10.9403538091      -19.5576810675  MEMB      145             0.0000000000
     16676       145  SLPC      C14           -24.4552124866      -13.3095282265      -18.4195960542  MEMB      145             0.0000000000
     16677       145  SLPC      H14A          -24.6476385463      -12.9829148280      -17.3732711141  MEMB      145             0.0000000000
     16678       145  SLPC      H14B          -24.3715286456      -14.3796102848      -18.3199316505  MEMB      145             0.0000000000
     16679       145  SLPC      H14C          -23.5148188909      -12.8462618341      -18.6985618714  MEMB      145             0.0000000000
     16680       145  SLPC      C15           -25.4273188585      -13.0654469861      -20.6804456476  MEMB      145             0.0000000000
     16681       145  SLPC      H15A          -26.2746933982      -12.5714664444      -21.1513973925  MEMB      145             0.0000000000
     16682       145  SLPC      H15B          -24.5296802017      -12.5765142962      -21.0455145130  MEMB      145             0.0000000000
     16683       145  SLPC      H15C          -25.4790081407      -14.1154459348      -20.8829391033  MEMB      145             0.0000000000
     16684       145  SLPC      C12           -26.8446120127      -13.1930450669      -18.6337856215  MEMB      145             0.0000000000
     16685       145  SLPC      H12A          -26.9231761672      -14.2801015333      -18.6854351868  MEMB      145             0.0000000000
     16686       145  SLPC      H12B          -27.6122918303      -12.7378182480      -19.2390804460  MEMB      145             0.0000000000
     16687       145  SLPC      C11           -27.1468480128      -12.9244744478      -17.1305453223  MEMB      145             0.0000000000
     16688       145  SLPC      H11A          -28.2228790227      -13.1319267338      -16.9385717607  MEMB      145             0.0000000000
     16689       145  SLPC      H11B          -26.9986602961      -11.8712201202      -16.8712939694  MEMB      145             0.0000000000
     16690       145  SLPC      P             -26.2439763526      -13.5808730164      -14.7344902786  MEMB      145             0.0000000000
     16691       145  SLPC      O13           -25.5129103317      -14.7255209894      -14.1436788023  MEMB      145             0.0000000000
     16692       145  SLPC      O14           -25.7334142407      -12.2207117843      -14.4614007179  MEMB      145             0.0000000000
     16693       145  SLPC      O12           -26.3459757657      -13.7599233596      -16.3102765779  MEMB      145             0.0000000000
     16694       145  SLPC      O11           -27.7886757301      -13.7482760090      -14.3588645266  MEMB      145             0.0000000000
     16695       145  SLPC      C1            -28.6290497216      -12.6338838156      -14.2328888783  MEMB      145             0.0000000000
     16696       145  SLPC      HA            -28.2140810002      -11.7531728842      -14.7753781842  MEMB      145             0.0000000000
     16697       145  SLPC      HB            -29.6443380696      -12.8536449697      -14.6397711937  MEMB      145             0.0000000000
     16698       145  SLPC      C2            -28.7225873598      -12.2251489986      -12.7669565861  MEMB      145             0.0000000000
     16699       145  SLPC      HS            -29.3338056819      -11.3556928750      -12.8937987837  MEMB      145             0.0000000000
     16700       145  SLPC      O21           -27.4026171045      -11.9293545207      -12.3224122247  MEMB      145             0.0000000000
     16701       145  SLPC      C21           -27.1637299800      -11.1456808316      -11.3772696214  MEMB      145             0.0000000000
     16702       145  SLPC      O22           -27.8912516083      -10.4223983854      -10.7192225149  MEMB      145             0.0000000000
     16703       145  SLPC      C22           -25.9898003377      -11.1573855385      -10.6599535179  MEMB      145             0.0000000000
     16704       145  SLPC      H2R           -25.2109597347      -11.5732909288      -11.3004875148  MEMB      145             0.0000000000
     16705       145  SLPC      H2S           -25.7542565652      -10.0720638390      -10.4174108894  MEMB      145             0.0000000000
     16706       145  SLPC      C3            -29.3809836863      -13.3136310377      -11.8751740277  MEMB      145             0.0000000000
     16707       145  SLPC      HX            -28.6401674137      -14.1428818779      -11.9120131122  MEMB      145             0.0000000000
     16708       145  SLPC      HY            -30.3261290833      -13.6695947104      -12.3365457108  MEMB      145             0.0000000000
     16709       145  SLPC      O31           -29.5624150502      -12.9533503016      -10.4925699598  MEMB      145             0.0000000000
     16710       145  SLPC      C31           -30.6902877640      -12.3750996728      -10.1424590831  MEMB      145             0.0000000000
     16711       145  SLPC      O32           -31.6061128369      -12.0719374477      -10.8833014672  MEMB      145             0.0000000000
     16712       145  SLPC      C32           -30.5894226152      -12.0411822381       -8.6436437718  MEMB      145             0.0000000000
     16713       145  SLPC      H2X           -29.6429290105      -11.5513281945       -8.3745968364  MEMB      145             0.0000000000
     16714       145  SLPC      H2Y           -30.3696417131      -12.9746838365       -8.1891864497  MEMB      145             0.0000000000
     16715       145  SLPC      C23           -26.6573294979      -11.8088857210       -9.3843156056  MEMB      145             0.0000000000
     16716       145  SLPC      H3R           -27.3179632482      -11.4723438010       -8.5753445974  MEMB      145             0.0000000000
     16717       145  SLPC      H3S           -26.1093741240      -11.0739552343       -8.7862432615  MEMB      145             0.0000000000
     16718       145  SLPC      C24           -26.6153626945      -13.3652483369       -9.2750001303  MEMB      145             0.0000000000
     16719       145  SLPC      H4R           -25.9477856702      -13.7929067062      -10.0663774523  MEMB      145             0.0000000000
     16720       145  SLPC      H4S           -27.6540814548      -13.6778591570       -9.4817697095  MEMB      145             0.0000000000
     16721       145  SLPC      C25           -26.3842352807      -14.1414541530       -7.9426876165  MEMB      145             0.0000000000
     16722       145  SLPC      H5R           -25.4793535938      -14.5355221706       -7.5826191473  MEMB      145             0.0000000000
     16723       145  SLPC      H5S           -26.3371460340      -15.2023862641       -8.2448383319  MEMB      145             0.0000000000
     16724       145  SLPC      C26           -26.5991187977      -13.5540091115       -6.5347606971  MEMB      145             0.0000000000
     16725       145  SLPC      H6R           -26.5902002911      -12.4663642382       -6.3370239996  MEMB      145             0.0000000000
     16726       145  SLPC      H6S           -26.0351668042      -14.0561024308       -5.6945620155  MEMB      145             0.0000000000
     16727       145  SLPC      C27           -27.8348399902      -14.1117523447       -6.2434652659  MEMB      145             0.0000000000
     16728       145  SLPC      H7R           -28.4249366786      -13.5567828032       -7.0153868577  MEMB      145             0.0000000000
     16729       145  SLPC      H7S           -28.1087821967      -13.7409238493       -5.2481418053  MEMB      145             0.0000000000
     16730       145  SLPC      C28           -27.6588550483      -15.6783374891       -6.4364377876  MEMB      145             0.0000000000
     16731       145  SLPC      H8R           -27.7554789578      -16.0270109551       -7.4770704330  MEMB      145             0.0000000000
     16732       145  SLPC      H8S           -28.5418498243      -16.0458035635       -6.3349872329  MEMB      145             0.0000000000
     16733       145  SLPC      C29           -26.9275557839      -16.6203005390       -5.5164456836  MEMB      145             0.0000000000
     16734       145  SLPC      H9R           -26.0185881922      -16.9493268332       -5.9315663283  MEMB      145             0.0000000000
     16735       145  SLPC      C210          -27.2440110732      -17.1168881897       -4.2983839698  MEMB      145             0.0000000000
     16736       145  SLPC      H10R          -26.6764104182      -17.9074346874       -3.8163466770  MEMB      145             0.0000000000
     16737       145  SLPC      C211          -28.2284728296      -16.6764763386       -3.3960265370  MEMB      145             0.0000000000
     16738       145  SLPC      H11R          -28.1012435766      -17.3486989012       -2.4689604301  MEMB      145             0.0000000000
     16739       145  SLPC      H11S          -28.9695348281      -17.5968976861       -3.7116003553  MEMB      145             0.0000000000
     16740       145  SLPC      C212          -29.1012482785      -15.2949856470       -3.4060184531  MEMB      145             0.0000000000
     16741       145  SLPC      H12R          -30.0284707886      -15.1373334160       -3.7131262090  MEMB      145             0.0000000000
     16742       145  SLPC      C213          -29.1394525646      -14.1311681370       -2.8716321476  MEMB      145             0.0000000000
     16743       145  SLPC      H13R          -30.3066309506      -13.7579635501       -2.7992000230  MEMB      145             0.0000000000
     16744       145  SLPC      C214          -28.3436326286      -14.3106196739       -1.7381631515  MEMB      145             0.0000000000
     16745       145  SLPC      H14R          -27.9836974075      -13.2790911178       -1.9269024682  MEMB      145             0.0000000000
     16746       145  SLPC      H14S          -27.4942420401      -15.0402694850       -1.7829868287  MEMB      145             0.0000000000
     16747       145  SLPC      C215          -29.1546051981      -14.4385026171       -0.6029860012  MEMB      145             0.0000000000
     16748       145  SLPC      H15R          -28.2764530381      -14.4947783879        0.0326288065  MEMB      145             0.0000000000
     16749       145  SLPC      H15S          -29.6017657748      -15.3592448853       -0.2498825215  MEMB      145             0.0000000000
     16750       145  SLPC      C216          -30.1443379845      -13.3114094278       -0.6006478508  MEMB      145             0.0000000000
     16751       145  SLPC      H16R          -31.1886149231      -13.6031144728       -0.9538509252  MEMB      145             0.0000000000
     16752       145  SLPC      H16S          -29.8945195488      -12.2820610831       -0.8969081456  MEMB      145             0.0000000000
     16753       145  SLPC      C217          -30.0260978540      -12.9403170230        0.7276118634  MEMB      145             0.0000000000
     16754       145  SLPC      H17R          -30.6586271860      -13.7774059542        0.9350979904  MEMB      145             0.0000000000
     16755       145  SLPC      H17S          -30.8930536065      -12.2790518989        0.9195021744  MEMB      145             0.0000000000
     16756       145  SLPC      C218          -28.6196245131      -13.0365490812        1.5905969465  MEMB      145             0.0000000000
     16757       145  SLPC      H18R          -28.4487730009      -12.1719967331        2.1947351823  MEMB      145             0.0000000000
     16758       145  SLPC      H18S          -28.2930406096      -14.0451702992        1.8566394553  MEMB      145             0.0000000000
     16759       145  SLPC      H18T          -28.5798800574      -13.4553231872        2.6020306121  MEMB      145             0.0000000000
     16760       145  SLPC      C33           -31.8687961580      -11.4848518103       -8.0020416617  MEMB      145             0.0000000000
     16761       145  SLPC      H3X           -32.0790453939      -11.8165555903       -6.9695169390  MEMB      145             0.0000000000
     16762       145  SLPC      H3Y           -32.7685769034      -11.6041880179       -8.6571199772  MEMB      145             0.0000000000
     16763       145  SLPC      C34           -31.7714698202      -10.0506211645       -7.8190996072  MEMB      145             0.0000000000
     16764       145  SLPC      H4X           -32.7533094202       -9.6256342190       -7.5667049717  MEMB      145             0.0000000000
     16765       145  SLPC      H4Y           -32.0055990477       -9.8001887730       -8.8654870769  MEMB      145             0.0000000000
     16766       145  SLPC      C35           -30.4661954820       -9.5472404967       -7.0255012534  MEMB      145             0.0000000000
     16767       145  SLPC      H5X           -30.3506544704       -8.3933688379       -7.1722332023  MEMB      145             0.0000000000
     16768       145  SLPC      H5Y           -29.4049604083       -9.7084463032       -7.2565340097  MEMB      145             0.0000000000
     16769       145  SLPC      C36           -30.6277923984       -9.6150489554       -5.6588678358  MEMB      145             0.0000000000
     16770       145  SLPC      H6X           -31.7470665222       -9.6062344394       -5.4875309324  MEMB      145             0.0000000000
     16771       145  SLPC      H6Y           -30.1306185834       -8.6232413699       -5.3820859022  MEMB      145             0.0000000000
     16772       145  SLPC      C37           -30.0393171621      -10.7247002532       -4.9432950858  MEMB      145             0.0000000000
     16773       145  SLPC      H7X           -28.9912845969      -10.6170155746       -5.2880089108  MEMB      145             0.0000000000
     16774       145  SLPC      H7Y           -30.5427440792      -11.5887890847       -5.4063068602  MEMB      145             0.0000000000
     16775       145  SLPC      C38           -30.1675907824      -10.7743389289       -3.3937106856  MEMB      145             0.0000000000
     16776       145  SLPC      H8X           -29.5010532655      -11.6139461257       -3.1539190881  MEMB      145             0.0000000000
     16777       145  SLPC      H8Y           -31.1680880723      -10.9750795468       -3.0042841470  MEMB      145             0.0000000000
     16778       145  SLPC      C39           -29.5654519297       -9.6833700255       -2.5409180034  MEMB      145             0.0000000000
     16779       145  SLPC      H9X           -29.4863974073       -9.8449122994       -1.4699519381  MEMB      145             0.0000000000
     16780       145  SLPC      H9Y           -30.1409560771       -8.8233976556       -2.2879162301  MEMB      145             0.0000000000
     16781       145  SLPC      C310          -28.3802830282       -9.2970202728       -3.3182623849  MEMB      145             0.0000000000
     16782       145  SLPC      H10X          -28.0020271366       -8.3876197621       -3.1609245319  MEMB      145             0.0000000000
     16783       145  SLPC      H10Y          -28.7042672444       -8.8102477265       -4.2208066684  MEMB      145             0.0000000000
     16784       145  SLPC      C311          -27.1036313665      -10.0167076733       -3.0070191980  MEMB      145             0.0000000000
     16785       145  SLPC      H11X          -26.1569533311       -9.4791408853       -3.2330628317  MEMB      145             0.0000000000
     16786       145  SLPC      H11Y          -27.1854251937      -10.8654907274       -3.6840770514  MEMB      145             0.0000000000
     16787       145  SLPC      C312          -26.9773213042      -10.3438832863       -1.5440699132  MEMB      145             0.0000000000
     16788       145  SLPC      H12X          -27.9192706259      -10.6242025410       -1.0550916160  MEMB      145             0.0000000000
     16789       145  SLPC      H12Y          -26.6836102269       -9.4743661299       -0.9637869497  MEMB      145             0.0000000000
     16790       145  SLPC      C313          -26.0235143651      -11.4894546181       -1.3594154615  MEMB      145             0.0000000000
     16791       145  SLPC      H13X          -24.9652247124      -11.1592566622       -1.3736374048  MEMB      145             0.0000000000
     16792       145  SLPC      H13Y          -26.2407068070      -12.2948378007       -2.0822827000  MEMB      145             0.0000000000
     16793       145  SLPC      C314          -26.4183688829      -12.1843777072       -0.1068402996  MEMB      145             0.0000000000
     16794       145  SLPC      H14X          -27.4722531350      -12.3250705338       -0.1630156413  MEMB      145             0.0000000000
     16795       145  SLPC      H14Y          -26.4435978406      -11.3371108898        0.6259485757  MEMB      145             0.0000000000
     16796       145  SLPC      C315          -25.6959665636      -13.5774663046        0.1471211404  MEMB      145             0.0000000000
     16797       145  SLPC      H15X          -24.6133899653      -13.5311657761       -0.0026752229  MEMB      145             0.0000000000
     16798       145  SLPC      H15Y          -25.8300874882      -14.2473158103       -0.7031584629  MEMB      145             0.0000000000
     16799       145  SLPC      C316          -25.7743040919      -14.1879064491        1.5985967650  MEMB      145             0.0000000000
     16800       145  SLPC      H16X          -26.6790141619      -14.7826966914        1.5681537009  MEMB      145             0.0000000000
     16801       145  SLPC      H16Y          -25.9576459196      -13.5037935798        2.4598348552  MEMB      145             0.0000000000
     16802       145  SLPC      C317          -24.6108839894      -15.0201086978        2.1434765730  MEMB      145             0.0000000000
     16803       145  SLPC      H17X          -23.5981971141      -14.6664146678        2.3924230042  MEMB      145             0.0000000000
     16804       145  SLPC      H17Y          -24.3754890025      -15.7636073856        1.4090032284  MEMB      145             0.0000000000
     16805       145  SLPC      C318          -25.0538590906      -15.7203065686        3.3603394680  MEMB      145             0.0000000000
     16806       145  SLPC      H18X          -24.2849680257      -16.5268962877        3.4934747047  MEMB      145             0.0000000000
     16807       145  SLPC      H18Y          -26.0530470941      -16.1358147262        3.0776070351  MEMB      145             0.0000000000
     16808       145  SLPC      H18Z          -25.1764692186      -15.2117265662        4.3286401268  MEMB      145             0.0000000000
     16809       146  CHL1      C3             20.9565204505       20.0037073023      -17.3841240953  MEMB      146             0.0000000000
     16810       146  CHL1      H3             19.8408723429       19.9737933813      -17.3673401777  MEMB      146             0.0000000000
     16811       146  CHL1      O3             21.4597423101       20.2272282254      -18.6790039406  MEMB      146             0.0000000000
     16812       146  CHL1      H3'            20.9364061914       19.6559729366      -19.2750844155  MEMB      146             0.0000000000
     16813       146  CHL1      C4             21.4429849279       21.1647989190      -16.5175230472  MEMB      146             0.0000000000
     16814       146  CHL1      H4A            22.5314824297       21.3007881543      -16.6916186572  MEMB      146             0.0000000000
     16815       146  CHL1      H4B            20.9540118545       22.1019585908      -16.8592501974  MEMB      146             0.0000000000
     16816       146  CHL1      C5             21.2059331885       20.9252392609      -15.0608865513  MEMB      146             0.0000000000
     16817       146  CHL1      C6             20.7659031014       21.8390727456      -14.2468651162  MEMB      146             0.0000000000
     16818       146  CHL1      H6             20.5416299222       22.7703537551      -14.7381850621  MEMB      146             0.0000000000
     16819       146  CHL1      C7             20.6215021036       21.7258833776      -12.7474105190  MEMB      146             0.0000000000
     16820       146  CHL1      H7A            21.0316572126       22.5993695161      -12.1799983740  MEMB      146             0.0000000000
     16821       146  CHL1      H7B            19.5530585899       21.5854048316      -12.4917122917  MEMB      146             0.0000000000
     16822       146  CHL1      C8             21.3084298953       20.5667054178      -12.1560937225  MEMB      146             0.0000000000
     16823       146  CHL1      H8             22.3702402712       20.9055657149      -12.1778314906  MEMB      146             0.0000000000
     16824       146  CHL1      C14            20.7125738006       20.3613762653      -10.7384703705  MEMB      146             0.0000000000
     16825       146  CHL1      H14            19.6586175312       20.0537654162      -10.8693105197  MEMB      146             0.0000000000
     16826       146  CHL1      C15            20.8330671726       21.4714947762       -9.6705332234  MEMB      146             0.0000000000
     16827       146  CHL1      H15A           21.7684845701       22.0883961611       -9.7555556700  MEMB      146             0.0000000000
     16828       146  CHL1      H15B           20.0249051424       22.1648611334       -9.8303276930  MEMB      146             0.0000000000
     16829       146  CHL1      C16            20.6866763054       20.7023648165       -8.3121543361  MEMB      146             0.0000000000
     16830       146  CHL1      H16A           21.4515827400       21.0302077094       -7.5739737279  MEMB      146             0.0000000000
     16831       146  CHL1      H16B           19.6789671685       20.8698486810       -7.9160353474  MEMB      146             0.0000000000
     16832       146  CHL1      C17            20.8551153295       19.1634574994       -8.5501521561  MEMB      146             0.0000000000
     16833       146  CHL1      H17            19.8850544232       18.6444548232       -8.5600557675  MEMB      146             0.0000000000
     16834       146  CHL1      C13            21.2787896723       19.2391972591      -10.0211999649  MEMB      146             0.0000000000
     16835       146  CHL1      C18            22.5398941351       19.9022346991       -9.7716001181  MEMB      146             0.0000000000
     16836       146  CHL1      H18A           22.9968759255       20.2787392165       -8.8403200417  MEMB      146             0.0000000000
     16837       146  CHL1      H18B           22.8219097333       18.8475423347       -9.8863532330  MEMB      146             0.0000000000
     16838       146  CHL1      H18C           23.0726322116       20.5581458793      -10.4906521406  MEMB      146             0.0000000000
     16839       146  CHL1      C12            21.1156750903       18.0130886063      -10.9705991058  MEMB      146             0.0000000000
     16840       146  CHL1      H12A           21.4157534842       17.1028523726      -10.5237013249  MEMB      146             0.0000000000
     16841       146  CHL1      H12B           20.0355978902       17.8337192032      -10.9744386449  MEMB      146             0.0000000000
     16842       146  CHL1      C11            21.4902708165       18.1122902388      -12.4643130630  MEMB      146             0.0000000000
     16843       146  CHL1      H11A           22.5180102136       18.1407435472      -12.7364632899  MEMB      146             0.0000000000
     16844       146  CHL1      H11B           21.2459122730       17.2082389099      -13.0349249913  MEMB      146             0.0000000000
     16845       146  CHL1      C9             21.0328172392       19.3925671760      -13.0933629592  MEMB      146             0.0000000000
     16846       146  CHL1      H9             19.9326484878       19.2636569177      -13.1474225605  MEMB      146             0.0000000000
     16847       146  CHL1      C10            21.5176758190       19.5917496709      -14.5595384023  MEMB      146             0.0000000000
     16848       146  CHL1      C19            23.0037893371       19.7052106614      -14.6506481759  MEMB      146             0.0000000000
     16849       146  CHL1      H19A           23.3244001705       20.4476162800      -13.9279638476  MEMB      146             0.0000000000
     16850       146  CHL1      H19B           23.2485369455       18.6954847852      -14.3883002494  MEMB      146             0.0000000000
     16851       146  CHL1      H19C           23.5548087248       19.8747695296      -15.5908859714  MEMB      146             0.0000000000
     16852       146  CHL1      C1             21.1007301180       18.4358546579      -15.4640248369  MEMB      146             0.0000000000
     16853       146  CHL1      H1A            21.5732405663       17.5123792059      -15.1048347625  MEMB      146             0.0000000000
     16854       146  CHL1      H1B            20.0113394125       18.3176204841      -15.3536734777  MEMB      146             0.0000000000
     16855       146  CHL1      C2             21.5329646570       18.6741092739      -16.9142852929  MEMB      146             0.0000000000
     16856       146  CHL1      H2A            21.2666043259       17.8216480526      -17.5659331657  MEMB      146             0.0000000000
     16857       146  CHL1      H2B            22.6388783140       18.7776110278      -17.0100037571  MEMB      146             0.0000000000
     16858       146  CHL1      C20            21.6931361847       18.4977773328       -7.3821125017  MEMB      146             0.0000000000
     16859       146  CHL1      H20            22.7177854972       18.9456294149       -7.3058727387  MEMB      146             0.0000000000
     16860       146  CHL1      C21            21.8642733884       16.9930200650       -7.5136112856  MEMB      146             0.0000000000
     16861       146  CHL1      H21A           22.4984951520       16.5501025278       -6.6959110850  MEMB      146             0.0000000000
     16862       146  CHL1      H21B           22.3846974920       16.9246241165       -8.4749443897  MEMB      146             0.0000000000
     16863       146  CHL1      H21C           20.9743781376       16.3535896588       -7.5944641328  MEMB      146             0.0000000000
     16864       146  CHL1      C22            21.0115863848       18.7301130158       -6.0358995775  MEMB      146             0.0000000000
     16865       146  CHL1      H22A           20.8866937031       19.8207728374       -5.8948434653  MEMB      146             0.0000000000
     16866       146  CHL1      H22B           20.0068927366       18.2668043759       -6.1089801784  MEMB      146             0.0000000000
     16867       146  CHL1      C23            21.7472361618       18.2348592982       -4.7911545871  MEMB      146             0.0000000000
     16868       146  CHL1      H23A           21.3497477833       18.6746479333       -3.8787608265  MEMB      146             0.0000000000
     16869       146  CHL1      H23B           21.6178258412       17.1570229796       -4.5570359863  MEMB      146             0.0000000000
     16870       146  CHL1      C24            23.0209268832       18.9737501568       -4.5759679541  MEMB      146             0.0000000000
     16871       146  CHL1      H24A           23.7769438366       18.6283475760       -5.3198121157  MEMB      146             0.0000000000
     16872       146  CHL1      H24B           22.9140395837       20.0745959788       -4.5958286834  MEMB      146             0.0000000000
     16873       146  CHL1      C25            23.5123959041       18.7235562985       -3.1888353810  MEMB      146             0.0000000000
     16874       146  CHL1      H25            24.5373134128       19.1814748990       -3.3404765276  MEMB      146             0.0000000000
     16875       146  CHL1      C26            22.9996250618       19.2556243155       -1.8674592669  MEMB      146             0.0000000000
     16876       146  CHL1      H26A           22.1529586218       18.6408035983       -1.5745266698  MEMB      146             0.0000000000
     16877       146  CHL1      H26B           23.6099550190       18.8440116914       -1.0607174495  MEMB      146             0.0000000000
     16878       146  CHL1      H26C           22.9269807145       20.3422233632       -1.7253699525  MEMB      146             0.0000000000
     16879       146  CHL1      C27            23.4314664848       17.2287882132       -2.8972902778  MEMB      146             0.0000000000
     16880       146  CHL1      H27A           23.2608886262       16.3193332840       -3.4629164898  MEMB      146             0.0000000000
     16881       146  CHL1      H27B           24.1858006845       17.2765668994       -3.6748134610  MEMB      146             0.0000000000
     16882       146  CHL1      H27C           23.8341046056       16.9473886436       -1.9084590950  MEMB      146             0.0000000000
     16883       147  SOPE      N              27.1843343696      -12.9116696045      -22.9847874523  MEMB      147             0.0000000000
     16884       147  SOPE      HN1            28.2059895251      -12.9763986494      -23.1602996501  MEMB      147             0.0000000000
     16885       147  SOPE      HN2            26.7407508320      -12.2753100697      -23.6757841114  MEMB      147             0.0000000000
     16886       147  SOPE      HN3            27.0435223123      -12.4999032273      -22.0326954913  MEMB      147             0.0000000000
     16887       147  SOPE      C12            26.5294547505      -14.2676785051      -23.0973390158  MEMB      147             0.0000000000
     16888       147  SOPE      H12A           26.9878258843      -14.7856813355      -23.9656104731  MEMB      147             0.0000000000
     16889       147  SOPE      H12B           25.4561539367      -14.0882757021      -23.3166801089  MEMB      147             0.0000000000
     16890       147  SOPE      C11            26.6503003486      -15.1348459812      -21.8185518006  MEMB      147             0.0000000000
     16891       147  SOPE      H11A           27.6414030815      -15.6264823677      -21.7876727633  MEMB      147             0.0000000000
     16892       147  SOPE      H11B           25.9069089140      -15.9679836836      -21.9019116712  MEMB      147             0.0000000000
     16893       147  SOPE      P              24.9722810316      -14.1141156170      -20.1024849663  MEMB      147             0.0000000000
     16894       147  SOPE      O13            24.0684102814      -14.6089477581      -21.1666796474  MEMB      147             0.0000000000
     16895       147  SOPE      O14            24.8244075830      -12.7471406087      -19.5941869865  MEMB      147             0.0000000000
     16896       147  SOPE      O12            26.4815594447      -14.3787241127      -20.6133783730  MEMB      147             0.0000000000
     16897       147  SOPE      O11            24.8691069057      -15.0359209634      -18.8700689696  MEMB      147             0.0000000000
     16898       147  SOPE      C1             25.1278798532      -16.3890336827      -18.6183567530  MEMB      147             0.0000000000
     16899       147  SOPE      HA             26.2228058689      -16.5446847544      -18.6401813715  MEMB      147             0.0000000000
     16900       147  SOPE      HB             24.6144013802      -17.0589114242      -19.3500079966  MEMB      147             0.0000000000
     16901       147  SOPE      C2             24.5723608533      -16.7541264543      -17.2261626930  MEMB      147             0.0000000000
     16902       147  SOPE      HS             24.1782981982      -17.7749688207      -17.2607254719  MEMB      147             0.0000000000
     16903       147  SOPE      O21            23.5097766533      -15.8167884635      -16.9315342423  MEMB      147             0.0000000000
     16904       147  SOPE      C21            22.8090577927      -16.0572289681      -15.8766361174  MEMB      147             0.0000000000
     16905       147  SOPE      O22            23.1660996851      -16.7206494372      -14.9229205560  MEMB      147             0.0000000000
     16906       147  SOPE      C22            21.5274900765      -15.2928908484      -15.8906373224  MEMB      147             0.0000000000
     16907       147  SOPE      H2R            20.7345266604      -15.7124328477      -15.2347796258  MEMB      147             0.0000000000
     16908       147  SOPE      H2S            21.1695136667      -15.1833750937      -16.9241538355  MEMB      147             0.0000000000
     16909       147  SOPE      C3             25.7599137867      -16.7553111855      -16.1994654611  MEMB      147             0.0000000000
     16910       147  SOPE      HX             26.5464736969      -17.3403038226      -16.7459670231  MEMB      147             0.0000000000
     16911       147  SOPE      HY             25.5203552126      -17.3444289636      -15.2910379513  MEMB      147             0.0000000000
     16912       147  SOPE      O31            26.1743283627      -15.4520196474      -15.7660710235  MEMB      147             0.0000000000
     16913       147  SOPE      C31            27.4576271795      -15.1684825553      -15.8759935261  MEMB      147             0.0000000000
     16914       147  SOPE      O32            28.2669570393      -15.7465796462      -16.5681222174  MEMB      147             0.0000000000
     16915       147  SOPE      C32            27.7019181910      -13.8706394293      -15.1544398175  MEMB      147             0.0000000000
     16916       147  SOPE      H2X            26.7848816928      -13.5733447455      -14.5992236264  MEMB      147             0.0000000000
     16917       147  SOPE      H2Y            27.8727284216      -13.1581118796      -15.9847710909  MEMB      147             0.0000000000
     16918       147  SOPE      C23            21.9654246261      -13.9542447522      -15.4636669276  MEMB      147             0.0000000000
     16919       147  SOPE      H3R            21.1939508918      -13.1572867499      -15.5843404501  MEMB      147             0.0000000000
     16920       147  SOPE      H3S            22.9217211121      -13.6304684313      -15.9538586598  MEMB      147             0.0000000000
     16921       147  SOPE      C24            22.3567846729      -13.9514291381      -14.0887527485  MEMB      147             0.0000000000
     16922       147  SOPE      H4R            21.3756456468      -14.1962180199      -13.4954917008  MEMB      147             0.0000000000
     16923       147  SOPE      H4S            23.0887155800      -14.6769931576      -13.6329578869  MEMB      147             0.0000000000
     16924       147  SOPE      C25            23.1059619576      -12.4702507054      -14.2706372059  MEMB      147             0.0000000000
     16925       147  SOPE      H5R            22.5511284883      -11.5048365392      -14.2025074248  MEMB      147             0.0000000000
     16926       147  SOPE      H5S            22.6568449343      -12.9326820237      -13.6142101988  MEMB      147             0.0000000000
     16927       147  SOPE      C26            24.3519259565      -12.0837956535      -13.4734862457  MEMB      147             0.0000000000
     16928       147  SOPE      H6R            24.8288741199      -12.8085266710      -12.8012896005  MEMB      147             0.0000000000
     16929       147  SOPE      H6S            24.8238095256      -11.9727652305      -14.4490283921  MEMB      147             0.0000000000
     16930       147  SOPE      C27            24.4317465660      -10.7446193720      -12.7637953248  MEMB      147             0.0000000000
     16931       147  SOPE      H7R            25.5047183204      -10.4888626334      -12.6742321827  MEMB      147             0.0000000000
     16932       147  SOPE      H7S            23.9667289568      -10.0730393117      -13.5013888322  MEMB      147             0.0000000000
     16933       147  SOPE      C28            23.9144814093      -10.5384731836      -11.3181747901  MEMB      147             0.0000000000
     16934       147  SOPE      H8R            24.1677103768       -9.5137951284      -11.1841353306  MEMB      147             0.0000000000
     16935       147  SOPE      H8S            22.8362313727      -10.4287193556      -11.2179705473  MEMB      147             0.0000000000
     16936       147  SOPE      C29            24.4684757839      -11.0521139658      -10.0370662926  MEMB      147             0.0000000000
     16937       147  SOPE      H91            25.5432724428      -11.1424583686      -10.1136660996  MEMB      147             0.0000000000
     16938       147  SOPE      C210           23.7818443418      -11.4054304137       -8.9097260503  MEMB      147             0.0000000000
     16939       147  SOPE      H101           24.2985390708      -11.7967057240       -8.0578771310  MEMB      147             0.0000000000
     16940       147  SOPE      C211           22.2938432082      -11.4093131364       -8.6155835055  MEMB      147             0.0000000000
     16941       147  SOPE      H11R           21.9525312119      -12.4530871939       -8.4216099017  MEMB      147             0.0000000000
     16942       147  SOPE      H11S           21.7346967267      -11.2855158021       -9.5541137907  MEMB      147             0.0000000000
     16943       147  SOPE      C212           21.6465987566      -10.9363040328       -7.3954693216  MEMB      147             0.0000000000
     16944       147  SOPE      H12R           20.5699016235      -11.0370260976       -7.3428650773  MEMB      147             0.0000000000
     16945       147  SOPE      H12S           21.6700009187       -9.9124881759       -7.4132568119  MEMB      147             0.0000000000
     16946       147  SOPE      C213           22.2639770553      -11.5969635929       -6.2523308265  MEMB      147             0.0000000000
     16947       147  SOPE      H13R           23.3237448584      -11.2913190048       -6.2764759573  MEMB      147             0.0000000000
     16948       147  SOPE      H13S           22.1734678272      -12.6957959087       -6.4220767895  MEMB      147             0.0000000000
     16949       147  SOPE      C214           21.6835371640      -11.1352214857       -4.9562944084  MEMB      147             0.0000000000
     16950       147  SOPE      H14R           20.5950972512      -11.3812390905       -4.9160210102  MEMB      147             0.0000000000
     16951       147  SOPE      H14S           21.7219497618      -10.0286521164       -4.9220430593  MEMB      147             0.0000000000
     16952       147  SOPE      C215           22.6774441328      -11.6347367698       -3.8795800747  MEMB      147             0.0000000000
     16953       147  SOPE      H15R           22.4986194841      -11.1324291602       -2.9034982380  MEMB      147             0.0000000000
     16954       147  SOPE      H15S           23.6979818452      -11.6216774961       -4.2719910442  MEMB      147             0.0000000000
     16955       147  SOPE      C216           22.7275448612      -13.1376922627       -3.7079459018  MEMB      147             0.0000000000
     16956       147  SOPE      H16R           22.3644067392      -13.6070942776       -4.6457966424  MEMB      147             0.0000000000
     16957       147  SOPE      H16S           21.8138925090      -12.7955414165       -3.4003813636  MEMB      147             0.0000000000
     16958       147  SOPE      C217           23.1363733656      -13.9841757883       -2.3799192120  MEMB      147             0.0000000000
     16959       147  SOPE      H17R           23.1292868869      -13.3535467921       -1.4608911374  MEMB      147             0.0000000000
     16960       147  SOPE      H17S           24.1045695686      -14.2705409357       -2.7767616741  MEMB      147             0.0000000000
     16961       147  SOPE      C218           22.7099741459      -15.4314606871       -1.8848564742  MEMB      147             0.0000000000
     16962       147  SOPE      H18R           22.6054379786      -16.2159978159       -2.6195867472  MEMB      147             0.0000000000
     16963       147  SOPE      H18S           21.6937091955      -15.3639625870       -1.4288845703  MEMB      147             0.0000000000
     16964       147  SOPE      H18T           23.3510007748      -15.9416746880       -1.1589165109  MEMB      147             0.0000000000
     16965       147  SOPE      C33            28.9058192248      -13.7936184714      -14.2132185292  MEMB      147             0.0000000000
     16966       147  SOPE      H3X            29.8281748333      -13.5706237953      -14.8046808341  MEMB      147             0.0000000000
     16967       147  SOPE      H3Y            29.1450521855      -14.7080059002      -13.6265106677  MEMB      147             0.0000000000
     16968       147  SOPE      C34            28.5721623460      -12.6610633090      -13.2633103465  MEMB      147             0.0000000000
     16969       147  SOPE      H4X            27.7285054565      -12.9048368465      -12.5930096264  MEMB      147             0.0000000000
     16970       147  SOPE      H4Y            28.3027397265      -11.7496609070      -13.8586488265  MEMB      147             0.0000000000
     16971       147  SOPE      C35            29.7435267314      -12.3255332881      -12.4196972580  MEMB      147             0.0000000000
     16972       147  SOPE      H5X            30.5202777859      -12.2646118061      -13.2105633678  MEMB      147             0.0000000000
     16973       147  SOPE      H5Y            30.0819530242      -13.1032514732      -11.7069060805  MEMB      147             0.0000000000
     16974       147  SOPE      C36            29.4167222328      -11.0341798071      -11.6993275574  MEMB      147             0.0000000000
     16975       147  SOPE      H6X            29.0634114318      -10.2350072685      -12.3710405754  MEMB      147             0.0000000000
     16976       147  SOPE      H6Y            30.3027447724      -10.6590726918      -11.3062583266  MEMB      147             0.0000000000
     16977       147  SOPE      C37            28.5593694236      -11.1469145195      -10.4549026062  MEMB      147             0.0000000000
     16978       147  SOPE      H7X            27.5562029417      -11.4448812292      -10.8136467577  MEMB      147             0.0000000000
     16979       147  SOPE      H7Y            28.5170294310      -10.1218281890      -10.0203028241  MEMB      147             0.0000000000
     16980       147  SOPE      C38            29.0701704765      -12.1282770868       -9.3890081128  MEMB      147             0.0000000000
     16981       147  SOPE      H8X            30.1195577430      -12.4598517163       -9.5588980223  MEMB      147             0.0000000000
     16982       147  SOPE      H8Y            28.4032709849      -13.0192304039       -9.4638027680  MEMB      147             0.0000000000
     16983       147  SOPE      C39            28.9048896695      -11.5976763011       -7.9599530955  MEMB      147             0.0000000000
     16984       147  SOPE      H9X            27.8985618428      -11.1262350948       -7.9534411883  MEMB      147             0.0000000000
     16985       147  SOPE      H9Y            29.6731165928      -10.8474936233       -7.6637902725  MEMB      147             0.0000000000
     16986       147  SOPE      C310           29.0081500438      -12.7356271226       -6.9499496669  MEMB      147             0.0000000000
     16987       147  SOPE      H10X           30.0166928693      -13.1797496759       -7.1138696733  MEMB      147             0.0000000000
     16988       147  SOPE      H10Y           28.2229358296      -13.5004349808       -7.1568374147  MEMB      147             0.0000000000
     16989       147  SOPE      C311           28.9234843909      -12.3422340733       -5.4791749565  MEMB      147             0.0000000000
     16990       147  SOPE      H11X           29.7750201887      -11.6704897933       -5.2220765935  MEMB      147             0.0000000000
     16991       147  SOPE      H11Y           29.0597231667      -13.2714412143       -4.8782824891  MEMB      147             0.0000000000
     16992       147  SOPE      C312           27.5860077097      -11.6767909843       -5.1318812927  MEMB      147             0.0000000000
     16993       147  SOPE      H12X           26.7328283122      -12.3041355120       -5.4643270909  MEMB      147             0.0000000000
     16994       147  SOPE      H12Y           27.5169872605      -10.7038427092       -5.6713426416  MEMB      147             0.0000000000
     16995       147  SOPE      C313           27.4304864598      -11.4157156622       -3.6359240875  MEMB      147             0.0000000000
     16996       147  SOPE      H13X           27.2229982364      -12.3534512838       -3.0831229311  MEMB      147             0.0000000000
     16997       147  SOPE      H13Y           26.6047978696      -10.6834654474       -3.4733312110  MEMB      147             0.0000000000
     16998       147  SOPE      C314           28.7237283226      -10.8825204372       -3.0402178193  MEMB      147             0.0000000000
     16999       147  SOPE      H14X           28.9969360119      -10.1992309824       -3.7830824082  MEMB      147             0.0000000000
     17000       147  SOPE      H14Y           29.4716026778      -11.6747104741       -2.8386161268  MEMB      147             0.0000000000
     17001       147  SOPE      C315           28.6558941995      -10.0196738827       -1.8495127368  MEMB      147             0.0000000000
     17002       147  SOPE      H15X           28.0010998233       -9.1085777296       -2.0146415004  MEMB      147             0.0000000000
     17003       147  SOPE      H15Y           29.6064077762       -9.7118807547       -1.4024950311  MEMB      147             0.0000000000
     17004       147  SOPE      C316           28.0902450087      -10.9413338557       -0.8735595117  MEMB      147             0.0000000000
     17005       147  SOPE      H16X           27.1298536497      -11.2943244833       -1.2918264328  MEMB      147             0.0000000000
     17006       147  SOPE      H16Y           28.1997122836      -10.1394402358       -0.1194658961  MEMB      147             0.0000000000
     17007       147  SOPE      C317           28.6419579270      -11.8953449292        0.1203524876  MEMB      147             0.0000000000
     17008       147  SOPE      H17X           29.6055484530      -11.4916268495        0.4877286726  MEMB      147             0.0000000000
     17009       147  SOPE      H17Y           28.6676320381      -12.8183553954       -0.4883480401  MEMB      147             0.0000000000
     17010       147  SOPE      C318           27.7174992152      -12.0588080216        1.3273206469  MEMB      147             0.0000000000
     17011       147  SOPE      H18X           28.1799888896      -12.4959869633        2.1879733420  MEMB      147             0.0000000000
     17012       147  SOPE      H18Y           26.7578827280      -12.5599698245        1.0516009900  MEMB      147             0.0000000000
     17013       147  SOPE      H18Z           27.4642753693      -11.1703547366        1.9265469364  MEMB      147             0.0000000000
     17014       148  SAPE      N             -31.2599453594       -0.1601740278      -23.1729843914  MEMB      148             0.0000000000
     17015       148  SAPE      HN1           -30.9233391967       -1.1373535052      -23.2738579877  MEMB      148             0.0000000000
     17016       148  SAPE      HN2           -32.2256543164       -0.0863532269      -23.5606162949  MEMB      148             0.0000000000
     17017       148  SAPE      HN3           -30.6264120307        0.4831488505      -23.6895609623  MEMB      148             0.0000000000
     17018       148  SAPE      C12           -31.1895953502        0.1591834934      -21.7134092684  MEMB      148             0.0000000000
     17019       148  SAPE      H12A          -30.1600270304        0.4852114381      -21.4513233682  MEMB      148             0.0000000000
     17020       148  SAPE      H12B          -31.4852197573       -0.7449723212      -21.1354132140  MEMB      148             0.0000000000
     17021       148  SAPE      C11           -32.1333524120        1.2791694882      -21.3662506355  MEMB      148             0.0000000000
     17022       148  SAPE      H11A          -33.1153296418        0.7785312770      -21.1656878034  MEMB      148             0.0000000000
     17023       148  SAPE      H11B          -32.2752316704        1.9406169464      -22.2075468322  MEMB      148             0.0000000000
     17024       148  SAPE      P             -31.3964231373        1.3332206139      -18.9385951166  MEMB      148             0.0000000000
     17025       148  SAPE      O13           -32.6439585355        0.6680320284      -19.0107201511  MEMB      148             0.0000000000
     17026       148  SAPE      O14           -30.3355666087        0.3386606210      -18.8160100166  MEMB      148             0.0000000000
     17027       148  SAPE      O12           -31.5875136811        2.0816207453      -20.3143843484  MEMB      148             0.0000000000
     17028       148  SAPE      O11           -31.3559011152        2.4842187744      -17.8808453968  MEMB      148             0.0000000000
     17029       148  SAPE      C1            -32.4336958821        3.3582686554      -17.7477923247  MEMB      148             0.0000000000
     17030       148  SAPE      HA            -32.7131974668        4.0493350535      -18.5740902120  MEMB      148             0.0000000000
     17031       148  SAPE      HB            -33.2916186400        2.7137123294      -17.5346637900  MEMB      148             0.0000000000
     17032       148  SAPE      C2            -32.3065711963        4.1592380798      -16.5392558196  MEMB      148             0.0000000000
     17033       148  SAPE      HS            -31.7994059119        5.1303399714      -16.6113747166  MEMB      148             0.0000000000
     17034       148  SAPE      O21           -31.6349968579        3.3283553296      -15.4883764596  MEMB      148             0.0000000000
     17035       148  SAPE      C21           -31.6970974048        3.5245910952      -14.1360826165  MEMB      148             0.0000000000
     17036       148  SAPE      O22           -32.1358662050        4.5343059221      -13.6672791439  MEMB      148             0.0000000000
     17037       148  SAPE      C22           -31.2683568026        2.2987088256      -13.1942848402  MEMB      148             0.0000000000
     17038       148  SAPE      H2R           -30.2672500159        2.0250643801      -13.5169096447  MEMB      148             0.0000000000
     17039       148  SAPE      H2S           -31.3052684021        2.7230392812      -12.1642228968  MEMB      148             0.0000000000
     17040       148  SAPE      C3            -33.9342821841        4.4346864740      -16.5761396175  MEMB      148             0.0000000000
     17041       148  SAPE      HX            -34.0481682714        5.3825008134      -17.0695485986  MEMB      148             0.0000000000
     17042       148  SAPE      HY            -33.6810346758        4.5671297918      -15.5122683637  MEMB      148             0.0000000000
     17043       148  SAPE      O31           -35.1390901525        3.4579157121      -16.9682259951  MEMB      148             0.0000000000
     17044       148  SAPE      C31           -36.0457646273        3.4317119010      -15.8771019236  MEMB      148             0.0000000000
     17045       148  SAPE      O32           -35.7481569062        4.0549570664      -15.0422062118  MEMB      148             0.0000000000
     17046       148  SAPE      C32           -37.2845414446        3.0331441876      -15.0891461377  MEMB      148             0.0000000000
     17047       148  SAPE      H2X           -37.0921037339        2.0256814724      -14.7982737358  MEMB      148             0.0000000000
     17048       148  SAPE      H2Y           -37.9240163251        3.4222704424      -15.8317851255  MEMB      148             0.0000000000
     17049       148  SAPE      C23           -32.0886180053        0.9701600198      -12.9739060813  MEMB      148             0.0000000000
     17050       148  SAPE      H3R           -31.6584266405        0.0255760508      -12.6859231932  MEMB      148             0.0000000000
     17051       148  SAPE      H3S           -32.3246685345        0.4877693173      -13.9581387891  MEMB      148             0.0000000000
     17052       148  SAPE      C24           -33.1948153250        1.2300532868      -11.9943910707  MEMB      148             0.0000000000
     17053       148  SAPE      H4R           -33.3542460371        2.3266622817      -11.8974704934  MEMB      148             0.0000000000
     17054       148  SAPE      H4S           -33.3547977769        1.4365260736      -10.9799746018  MEMB      148             0.0000000000
     17055       148  SAPE      C25           -34.2420354115        0.3166521483      -12.4587386473  MEMB      148             0.0000000000
     17056       148  SAPE      H5R           -34.8084301680        0.5850410056      -13.3141503465  MEMB      148             0.0000000000
     17057       148  SAPE      C26           -34.8322239433       -0.5554963721      -11.7693622452  MEMB      148             0.0000000000
     17058       148  SAPE      H6R           -35.6491047914       -1.1981016428      -12.0525747088  MEMB      148             0.0000000000
     17059       148  SAPE      C27           -34.6815273143       -0.8506257919      -10.5222643844  MEMB      148             0.0000000000
     17060       148  SAPE      H7R           -35.6555831983       -1.2876053996      -10.2968687102  MEMB      148             0.0000000000
     17061       148  SAPE      H7S           -34.4138714714        0.1523291538      -10.2083458915  MEMB      148             0.0000000000
     17062       148  SAPE      C28           -33.9005824428       -1.9597076800      -10.2649207591  MEMB      148             0.0000000000
     17063       148  SAPE      H8R           -34.5390210580       -2.8138563937      -10.2944562064  MEMB      148             0.0000000000
     17064       148  SAPE      C29           -32.6974585547       -1.9549506867       -9.8556041130  MEMB      148             0.0000000000
     17065       148  SAPE      H9R           -32.2789017816       -2.9506381226       -9.7895803941  MEMB      148             0.0000000000
     17066       148  SAPE      C210          -31.9268983458       -0.7004331765       -9.6058153173  MEMB      148             0.0000000000
     17067       148  SAPE      H10R          -32.5926923175        0.1842780832       -9.3470657670  MEMB      148             0.0000000000
     17068       148  SAPE      H10S          -31.4347915122       -0.4076033527      -10.5465372173  MEMB      148             0.0000000000
     17069       148  SAPE      C211          -30.8946211211       -1.0463055099       -8.5394746127  MEMB      148             0.0000000000
     17070       148  SAPE      H11R          -29.8711815708       -1.0400609546       -8.8125322952  MEMB      148             0.0000000000
     17071       148  SAPE      C212          -31.0986549588       -1.3616771099       -7.2563675183  MEMB      148             0.0000000000
     17072       148  SAPE      H12R          -30.3963707166       -1.7293689614       -6.5170727781  MEMB      148             0.0000000000
     17073       148  SAPE      C213          -32.2437394549       -1.2846465601       -6.7016252521  MEMB      148             0.0000000000
     17074       148  SAPE      H13R          -32.6971098481       -2.3778363835       -6.5023633538  MEMB      148             0.0000000000
     17075       148  SAPE      H13S          -32.9719830572       -1.2775252089       -7.5512849572  MEMB      148             0.0000000000
     17076       148  SAPE      C214          -32.2324749972       -0.6599369286       -5.1623444991  MEMB      148             0.0000000000
     17077       148  SAPE      H14R          -32.2653886674       -1.3058908563       -4.5031755509  MEMB      148             0.0000000000
     17078       148  SAPE      C215          -32.7900275945        0.7062515844       -4.7723487226  MEMB      148             0.0000000000
     17079       148  SAPE      H15R          -33.0722151564        0.2781443198       -3.6687898296  MEMB      148             0.0000000000
     17080       148  SAPE      C216          -34.2083717540        1.5414423254       -5.1775183475  MEMB      148             0.0000000000
     17081       148  SAPE      H16R          -34.0772228953        1.7288281175       -6.2515816447  MEMB      148             0.0000000000
     17082       148  SAPE      H16S          -33.8919437264        2.6370664315       -4.9998555531  MEMB      148             0.0000000000
     17083       148  SAPE      C217          -35.7889840060        1.5499514242       -4.8559933034  MEMB      148             0.0000000000
     17084       148  SAPE      H17R          -36.6857320963        1.0113559393       -5.0164759289  MEMB      148             0.0000000000
     17085       148  SAPE      H17S          -36.3630168351        1.9227413525       -5.6752180988  MEMB      148             0.0000000000
     17086       148  SAPE      C218          -36.2062504895        2.3608027198       -3.8215889991  MEMB      148             0.0000000000
     17087       148  SAPE      H18R          -35.4260598046        3.1120124756       -3.8373228109  MEMB      148             0.0000000000
     17088       148  SAPE      H18S          -35.9504841322        1.9694922347       -3.0779911192  MEMB      148             0.0000000000
     17089       148  SAPE      C219          -37.4535015801        2.2789058014       -3.0405162514  MEMB      148             0.0000000000
     17090       148  SAPE      H19R          -38.0984863773        1.4061648877       -3.0488145731  MEMB      148             0.0000000000
     17091       148  SAPE      H19S          -37.8285921657        3.1504205771       -3.5331933395  MEMB      148             0.0000000000
     17092       148  SAPE      C220          -37.4537862431        2.6746289128       -1.6290871529  MEMB      148             0.0000000000
     17093       148  SAPE      H20R          -37.2986248812        1.9914128013       -0.7858181455  MEMB      148             0.0000000000
     17094       148  SAPE      H20S          -38.0587766999        3.5168134307       -1.5518252738  MEMB      148             0.0000000000
     17095       148  SAPE      H20T          -36.9671414671        3.5642943277       -1.2351072272  MEMB      148             0.0000000000
     17096       148  SAPE      C33           -37.9414948748        3.6438823495      -13.7378043865  MEMB      148             0.0000000000
     17097       148  SAPE      H3X           -38.8872046011        3.2992139574      -14.0925226034  MEMB      148             0.0000000000
     17098       148  SAPE      H3Y           -38.2501836807        4.6917594285      -13.5695234638  MEMB      148             0.0000000000
     17099       148  SAPE      C34           -37.8794770609        3.0385053974      -12.3082603793  MEMB      148             0.0000000000
     17100       148  SAPE      H4X           -37.7526348780        2.0591981916      -12.6428642050  MEMB      148             0.0000000000
     17101       148  SAPE      H4Y           -38.8413818347        3.3136365591      -11.7772909118  MEMB      148             0.0000000000
     17102       148  SAPE      C35           -36.6914902144        2.8109807379      -11.3738398614  MEMB      148             0.0000000000
     17103       148  SAPE      H5X           -37.2781336698        3.7036994112      -11.2642765947  MEMB      148             0.0000000000
     17104       148  SAPE      H5Y           -36.4304035785        1.7552338692      -11.6074993068  MEMB      148             0.0000000000
     17105       148  SAPE      C36           -36.7150217242        2.5816648910      -10.0435965795  MEMB      148             0.0000000000
     17106       148  SAPE      H6X           -35.7594925308        2.0137143834       -9.9499080410  MEMB      148             0.0000000000
     17107       148  SAPE      H6Y           -37.6811973802        2.4364625513       -9.4852813768  MEMB      148             0.0000000000
     17108       148  SAPE      C37           -35.9491338169        3.1973618068       -9.1336914768  MEMB      148             0.0000000000
     17109       148  SAPE      H7X           -36.3366340012        2.8160192316       -8.1900595633  MEMB      148             0.0000000000
     17110       148  SAPE      H7Y           -36.7802423520        3.8881627721       -9.3997245344  MEMB      148             0.0000000000
     17111       148  SAPE      C38           -34.4633426102        3.7960976787       -9.0826327413  MEMB      148             0.0000000000
     17112       148  SAPE      H8X           -34.1644374179        4.8268090360       -8.7424740404  MEMB      148             0.0000000000
     17113       148  SAPE      H8Y           -34.6271061839        3.6503494595      -10.0357988183  MEMB      148             0.0000000000
     17114       148  SAPE      C39           -33.3741676778        3.0184651117       -8.6515411051  MEMB      148             0.0000000000
     17115       148  SAPE      H9X           -33.4379081072        2.2664073404       -9.4213345277  MEMB      148             0.0000000000
     17116       148  SAPE      H9Y           -33.7718497558        2.7276762881       -7.6840286982  MEMB      148             0.0000000000
     17117       148  SAPE      C310          -32.1060721655        3.8160825516       -8.5773135070  MEMB      148             0.0000000000
     17118       148  SAPE      H10X          -32.1680533029        4.7100856527       -7.9038794151  MEMB      148             0.0000000000
     17119       148  SAPE      H10Y          -31.7249044995        4.1609785026       -9.5616809216  MEMB      148             0.0000000000
     17120       148  SAPE      C311          -31.1994324586        2.8604166465       -7.9404143813  MEMB      148             0.0000000000
     17121       148  SAPE      H11X          -30.8995951082        2.0323812377       -8.6269857065  MEMB      148             0.0000000000
     17122       148  SAPE      H11Y          -31.7249965986        2.3714149980       -7.0789418439  MEMB      148             0.0000000000
     17123       148  SAPE      C312          -30.0333327156        3.6275148719       -7.4641473938  MEMB      148             0.0000000000
     17124       148  SAPE      H12X          -30.1962772783        4.5470321002       -6.8695606867  MEMB      148             0.0000000000
     17125       148  SAPE      H12Y          -29.3657068301        3.8953406640       -8.3197539659  MEMB      148             0.0000000000
     17126       148  SAPE      C313          -29.3837876273        2.6020072344       -6.6563759942  MEMB      148             0.0000000000
     17127       148  SAPE      H13X          -28.4814121252        3.1266868776       -6.3424886433  MEMB      148             0.0000000000
     17128       148  SAPE      H13Y          -29.2031485699        1.7696660546       -7.3834241037  MEMB      148             0.0000000000
     17129       148  SAPE      C314          -29.9295699741        1.9899244791       -5.3913519128  MEMB      148             0.0000000000
     17130       148  SAPE      H14X          -29.1876652724        1.3299067254       -4.9074583339  MEMB      148             0.0000000000
     17131       148  SAPE      H14Y          -30.6884806800        1.2727002341       -5.6265375682  MEMB      148             0.0000000000
     17132       148  SAPE      C315          -30.4043706640        3.1053614355       -4.5041398379  MEMB      148             0.0000000000
     17133       148  SAPE      H15X          -31.0549604843        3.8073077592       -5.0710556898  MEMB      148             0.0000000000
     17134       148  SAPE      H15Y          -29.5290599123        3.6775154001       -4.1416307793  MEMB      148             0.0000000000
     17135       148  SAPE      C316          -31.1532587608        2.5873227184       -3.3169749022  MEMB      148             0.0000000000
     17136       148  SAPE      H16X          -30.6480908588        1.7141862243       -2.8631480842  MEMB      148             0.0000000000
     17137       148  SAPE      H16Y          -32.1865872903        2.3673978479       -3.5983078206  MEMB      148             0.0000000000
     17138       148  SAPE      C317          -31.2637918814        3.6192364958       -2.2616551589  MEMB      148             0.0000000000
     17139       148  SAPE      H17X          -31.8299844664        4.4191642068       -2.6538226172  MEMB      148             0.0000000000
     17140       148  SAPE      H17Y          -30.3480385757        4.1491295406       -2.0482915264  MEMB      148             0.0000000000
     17141       148  SAPE      C318          -31.8222848178        3.0630403451       -1.0006945372  MEMB      148             0.0000000000
     17142       148  SAPE      H18X          -32.7075792429        2.5649739608       -1.2290716468  MEMB      148             0.0000000000
     17143       148  SAPE      H18Y          -31.9896518467        3.8063959586       -0.2283172464  MEMB      148             0.0000000000
     17144       148  SAPE      H18Z          -31.2805239925        2.2466613196       -0.5585707947  MEMB      148             0.0000000000
     17145       149  CHL1      C3            -27.9751337723       14.7003534146      -17.3100423966  MEMB      149             0.0000000000
     17146       149  CHL1      H3            -28.6170718197       13.7910473880      -17.2066315589  MEMB      149             0.0000000000
     17147       149  CHL1      O3            -27.5815834497       14.7977679392      -18.6752071993  MEMB      149             0.0000000000
     17148       149  CHL1      H3'           -27.3536204957       13.8988965820      -18.9150738222  MEMB      149             0.0000000000
     17149       149  CHL1      C4            -28.7582052054       15.9477652254      -16.8354859819  MEMB      149             0.0000000000
     17150       149  CHL1      H4A           -28.2178022074       16.8809202186      -17.0409451080  MEMB      149             0.0000000000
     17151       149  CHL1      H4B           -29.6847147868       16.0191671701      -17.4497392129  MEMB      149             0.0000000000
     17152       149  CHL1      C5            -28.9992915194       15.9369000412      -15.3401771241  MEMB      149             0.0000000000
     17153       149  CHL1      C6            -30.1912914784       16.0855565554      -14.8462580431  MEMB      149             0.0000000000
     17154       149  CHL1      H6            -30.9934426673       16.3119806371      -15.5500236360  MEMB      149             0.0000000000
     17155       149  CHL1      C7            -30.5376919492       15.9094552343      -13.4085536893  MEMB      149             0.0000000000
     17156       149  CHL1      H7A           -31.5242213971       16.3158479906      -13.3270196511  MEMB      149             0.0000000000
     17157       149  CHL1      H7B           -30.8387819050       14.9277386750      -13.0491261784  MEMB      149             0.0000000000
     17158       149  CHL1      C8            -29.3808955462       16.2763889317      -12.4737102945  MEMB      149             0.0000000000
     17159       149  CHL1      H8            -28.9803406396       17.3089349282      -12.5563798948  MEMB      149             0.0000000000
     17160       149  CHL1      C14           -29.7378712206       15.9466714254      -11.0398510388  MEMB      149             0.0000000000
     17161       149  CHL1      H14           -29.8863489620       14.8413947276      -11.0697163942  MEMB      149             0.0000000000
     17162       149  CHL1      C15           -31.0595113998       16.2783545851      -10.3631333227  MEMB      149             0.0000000000
     17163       149  CHL1      H15A          -31.4026965726       17.1870389592      -10.4777051312  MEMB      149             0.0000000000
     17164       149  CHL1      H15B          -32.0198722630       15.9397134251      -10.7396223467  MEMB      149             0.0000000000
     17165       149  CHL1      C16           -30.7587745469       16.5788068488       -8.9199670151  MEMB      149             0.0000000000
     17166       149  CHL1      H16A          -30.8232335195       17.6152517338       -8.6128367844  MEMB      149             0.0000000000
     17167       149  CHL1      H16B          -31.5326830745       16.1030198942       -8.3626729324  MEMB      149             0.0000000000
     17168       149  CHL1      C17           -29.3404435458       16.0958619086       -8.7136351671  MEMB      149             0.0000000000
     17169       149  CHL1      H17           -29.4925834968       15.0002588894       -8.5861985721  MEMB      149             0.0000000000
     17170       149  CHL1      C13           -28.6283809490       16.2836441465      -10.0525626968  MEMB      149             0.0000000000
     17171       149  CHL1      C18           -27.9872296407       17.7048277301      -10.0727415063  MEMB      149             0.0000000000
     17172       149  CHL1      H18A          -28.6781663615       18.4954045199       -9.7303096410  MEMB      149             0.0000000000
     17173       149  CHL1      H18B          -27.1679323713       17.7786821751       -9.3444125387  MEMB      149             0.0000000000
     17174       149  CHL1      H18C          -27.5838971709       17.9610556000      -11.0703941374  MEMB      149             0.0000000000
     17175       149  CHL1      C12           -27.5610613427       15.2778756017      -10.4070138825  MEMB      149             0.0000000000
     17176       149  CHL1      H12A          -26.7230555829       15.4259651125       -9.7107694904  MEMB      149             0.0000000000
     17177       149  CHL1      H12B          -28.0142140345       14.2772124801      -10.2563998266  MEMB      149             0.0000000000
     17178       149  CHL1      C11           -27.0947784839       15.4229250285      -11.8726260933  MEMB      149             0.0000000000
     17179       149  CHL1      H11A          -26.5145745158       16.3652032996      -11.9609383636  MEMB      149             0.0000000000
     17180       149  CHL1      H11B          -26.4249483520       14.5732389155      -12.0892782752  MEMB      149             0.0000000000
     17181       149  CHL1      C9            -28.2441929631       15.3949187115      -12.9131076634  MEMB      149             0.0000000000
     17182       149  CHL1      H9            -28.6903100754       14.3710008621      -12.8828899304  MEMB      149             0.0000000000
     17183       149  CHL1      C10           -27.8485128760       15.6489228618      -14.4019085961  MEMB      149             0.0000000000
     17184       149  CHL1      C19           -26.9638553337       16.9021916013      -14.4772681968  MEMB      149             0.0000000000
     17185       149  CHL1      H19A          -26.0219357078       16.7025288059      -13.9376578237  MEMB      149             0.0000000000
     17186       149  CHL1      H19B          -26.6965576451       17.1201617550      -15.5299325810  MEMB      149             0.0000000000
     17187       149  CHL1      H19C          -27.4562176308       17.7910836627      -14.0261259794  MEMB      149             0.0000000000
     17188       149  CHL1      C1            -27.1139100896       14.4188019776      -14.9595845980  MEMB      149             0.0000000000
     17189       149  CHL1      H1A           -26.2164465643       14.2846239126      -14.3229259013  MEMB      149             0.0000000000
     17190       149  CHL1      H1B           -27.7935883365       13.5462644929      -14.8201794470  MEMB      149             0.0000000000
     17191       149  CHL1      C2            -26.7280461126       14.5009236430      -16.4507526607  MEMB      149             0.0000000000
     17192       149  CHL1      H2A           -26.2393256530       13.5602877382      -16.7679549303  MEMB      149             0.0000000000
     17193       149  CHL1      H2B           -26.0113712017       15.3330187765      -16.6302290111  MEMB      149             0.0000000000
     17194       149  CHL1      C20           -28.6882424013       16.7512013581       -7.4910357277  MEMB      149             0.0000000000
     17195       149  CHL1      H20           -28.4473598703       17.8027744926       -7.6701919782  MEMB      149             0.0000000000
     17196       149  CHL1      C21           -27.4617402364       15.8721204116       -7.1279274706  MEMB      149             0.0000000000
     17197       149  CHL1      H21A          -26.6343036146       16.1375071726       -7.8037866138  MEMB      149             0.0000000000
     17198       149  CHL1      H21B          -27.6562738648       14.7767943669       -7.2281245937  MEMB      149             0.0000000000
     17199       149  CHL1      H21C          -27.1371323201       16.0467471759       -6.0863877811  MEMB      149             0.0000000000
     17200       149  CHL1      C22           -29.6209185118       16.9139845063       -6.2832517005  MEMB      149             0.0000000000
     17201       149  CHL1      H22A          -30.6860410184       17.0996868948       -6.4310613028  MEMB      149             0.0000000000
     17202       149  CHL1      H22B          -29.4953983455       15.8781592089       -6.3505268517  MEMB      149             0.0000000000
     17203       149  CHL1      C23           -29.0818599211       17.3923754791       -4.9153942368  MEMB      149             0.0000000000
     17204       149  CHL1      H23A          -28.3980958031       16.5851970017       -4.5205013166  MEMB      149             0.0000000000
     17205       149  CHL1      H23B          -28.5444223626       18.3067929587       -5.1102212196  MEMB      149             0.0000000000
     17206       149  CHL1      C24           -30.0949906425       17.9808492526       -3.8375325289  MEMB      149             0.0000000000
     17207       149  CHL1      H24A          -31.1511439064       18.0583008731       -4.1392827002  MEMB      149             0.0000000000
     17208       149  CHL1      H24B          -30.1372632365       17.0604701992       -3.5889559207  MEMB      149             0.0000000000
     17209       149  CHL1      C25           -29.8393268685       17.7868018972       -2.2886967308  MEMB      149             0.0000000000
     17210       149  CHL1      H25           -29.1289899105       16.9535419763       -2.0400951089  MEMB      149             0.0000000000
     17211       149  CHL1      C26           -29.0142913354       18.9791980495       -2.1846111390  MEMB      149             0.0000000000
     17212       149  CHL1      H26A          -28.6998067662       19.0711471656       -1.1372265181  MEMB      149             0.0000000000
     17213       149  CHL1      H26B          -28.1694536304       18.8580677593       -2.9040839742  MEMB      149             0.0000000000
     17214       149  CHL1      H26C          -29.7102866928       19.7729166403       -2.5419871910  MEMB      149             0.0000000000
     17215       149  CHL1      C27           -31.0634918408       17.6187999724       -1.3007228389  MEMB      149             0.0000000000
     17216       149  CHL1      H27A          -31.6268084791       16.6690266914       -1.2050087541  MEMB      149             0.0000000000
     17217       149  CHL1      H27B          -30.6711141455       17.7713672909       -0.2688452695  MEMB      149             0.0000000000
     17218       149  CHL1      H27C          -31.8244274001       18.3851467028       -1.5258783294  MEMB      149             0.0000000000
     17219       150  SAPC      N               1.6545575233       30.9917655656      -19.0066359698  MEMB      150             0.0000000000
     17220       150  SAPC      C12             2.4681954960       29.7267182931      -19.2688196621  MEMB      150             0.0000000000
     17221       150  SAPC      H12A            1.9563470761       29.0887283146      -19.9859924318  MEMB      150             0.0000000000
     17222       150  SAPC      H12B            2.4831350596       29.1596674884      -18.3503007654  MEMB      150             0.0000000000
     17223       150  SAPC      C13             0.4971546999       30.7018753460      -18.1032519037  MEMB      150             0.0000000000
     17224       150  SAPC      H13A           -0.1417533193       29.8811881746      -18.4508568413  MEMB      150             0.0000000000
     17225       150  SAPC      H13B            0.8514925005       30.4705591407      -17.1026528387  MEMB      150             0.0000000000
     17226       150  SAPC      H13C           -0.1002146666       31.5840436354      -18.0280380762  MEMB      150             0.0000000000
     17227       150  SAPC      C14             2.5241810177       31.9889507964      -18.2815193368  MEMB      150             0.0000000000
     17228       150  SAPC      H14A            3.3969901368       32.2868838140      -18.8773015635  MEMB      150             0.0000000000
     17229       150  SAPC      H14B            1.9958110693       32.8961374912      -18.0328709624  MEMB      150             0.0000000000
     17230       150  SAPC      H14C            2.9379673712       31.5742022547      -17.3681188900  MEMB      150             0.0000000000
     17231       150  SAPC      C15             1.1578848876       31.5505636558      -20.3193670373  MEMB      150             0.0000000000
     17232       150  SAPC      H15A            1.9498244063       31.5059961961      -21.0813342739  MEMB      150             0.0000000000
     17233       150  SAPC      H15B            0.3211628773       30.9726796763      -20.7131883051  MEMB      150             0.0000000000
     17234       150  SAPC      H15C            0.8585178877       32.5822657806      -20.2207122506  MEMB      150             0.0000000000
     17235       150  SAPC      C11             3.9463395541       29.9003129237      -19.7323420742  MEMB      150             0.0000000000
     17236       150  SAPC      H11A            4.3959981176       28.9045476313      -19.9470592027  MEMB      150             0.0000000000
     17237       150  SAPC      H11B            4.5305980178       30.3201417781      -18.8822063407  MEMB      150             0.0000000000
     17238       150  SAPC      P               5.0224990938       31.9232771205      -21.0880998578  MEMB      150             0.0000000000
     17239       150  SAPC      O13             6.3186213734       31.4673239632      -21.6431333432  MEMB      150             0.0000000000
     17240       150  SAPC      O14             4.2725254912       32.9442511181      -21.8736281087  MEMB      150             0.0000000000
     17241       150  SAPC      O12             4.0373719633       30.6908844489      -20.9057321605  MEMB      150             0.0000000000
     17242       150  SAPC      O11             5.2560795943       32.4023860220      -19.5893514362  MEMB      150             0.0000000000
     17243       150  SAPC      C1              6.5303464492       32.9067879952      -19.1663418861  MEMB      150             0.0000000000
     17244       150  SAPC      HA              7.2685428835       32.0861235070      -19.0617116015  MEMB      150             0.0000000000
     17245       150  SAPC      HB              6.9507229717       33.5935838123      -19.9261704120  MEMB      150             0.0000000000
     17246       150  SAPC      C2              6.4107212263       33.7262150184      -17.8422740364  MEMB      150             0.0000000000
     17247       150  SAPC      HS              7.3915191297       34.2007839631      -17.6007006329  MEMB      150             0.0000000000
     17248       150  SAPC      O21             5.9635090135       32.9359862572      -16.7351918383  MEMB      150             0.0000000000
     17249       150  SAPC      C21             6.7687397424       32.0378965566      -16.2352383769  MEMB      150             0.0000000000
     17250       150  SAPC      O22             7.8855601934       31.7448509062      -16.6243193855  MEMB      150             0.0000000000
     17251       150  SAPC      C22             5.9922681797       31.3807865757      -15.0745129898  MEMB      150             0.0000000000
     17252       150  SAPC      H2R             4.9786568460       31.8386910592      -15.0622659554  MEMB      150             0.0000000000
     17253       150  SAPC      H2S             5.8851038077       30.3027435297      -15.2968942679  MEMB      150             0.0000000000
     17254       150  SAPC      C3              5.3992878274       34.8826008152      -18.0091012736  MEMB      150             0.0000000000
     17255       150  SAPC      HX              4.4218296925       34.4682303257      -18.3390752764  MEMB      150             0.0000000000
     17256       150  SAPC      HY              5.7529755077       35.5271661090      -18.8206432423  MEMB      150             0.0000000000
     17257       150  SAPC      O31             5.3381114242       35.6866860320      -16.8188429189  MEMB      150             0.0000000000
     17258       150  SAPC      C31             4.2931160724       35.5154559072      -16.0361086987  MEMB      150             0.0000000000
     17259       150  SAPC      O32             3.3360223361       34.7834668734      -16.2406429809  MEMB      150             0.0000000000
     17260       150  SAPC      C32             4.5426681008       36.2397101961      -14.7020900393  MEMB      150             0.0000000000
     17261       150  SAPC      H2X             3.5678044438       36.5075636912      -14.2503272536  MEMB      150             0.0000000000
     17262       150  SAPC      H2Y             5.1063202669       37.1731027549      -14.9058918238  MEMB      150             0.0000000000
     17263       150  SAPC      C23             6.5696191093       31.6027489928      -13.6528738622  MEMB      150             0.0000000000
     17264       150  SAPC      H3R             6.3220408310       32.6431775962      -13.3434201879  MEMB      150             0.0000000000
     17265       150  SAPC      H3S             7.6752211672       31.4737747074      -13.6936881155  MEMB      150             0.0000000000
     17266       150  SAPC      C24             5.9728671490       30.6671380001      -12.5791584348  MEMB      150             0.0000000000
     17267       150  SAPC      H4R             6.3713489812       30.9223341011      -11.5720946911  MEMB      150             0.0000000000
     17268       150  SAPC      H4S             6.3315353988       29.6413206034      -12.8056823515  MEMB      150             0.0000000000
     17269       150  SAPC      C25             4.4642137977       30.7080307024      -12.6265569177  MEMB      150             0.0000000000
     17270       150  SAPC      H5R             4.0412509122       30.6228139003      -13.6332522370  MEMB      150             0.0000000000
     17271       150  SAPC      C26             3.5973483227       30.8547869670      -11.6143870529  MEMB      150             0.0000000000
     17272       150  SAPC      H6R             2.5195437335       30.7522694044      -11.8036868581  MEMB      150             0.0000000000
     17273       150  SAPC      C27             3.9144560630       31.0130758895      -10.1685195613  MEMB      150             0.0000000000
     17274       150  SAPC      H7R             3.2901721782       31.8346893160       -9.7564861660  MEMB      150             0.0000000000
     17275       150  SAPC      H7S             4.9630218706       31.3743359452      -10.0276780710  MEMB      150             0.0000000000
     17276       150  SAPC      C28             3.6440168887       29.6560014460       -9.5278948129  MEMB      150             0.0000000000
     17277       150  SAPC      H8R             4.4193899693       28.9048035577       -9.7939367964  MEMB      150             0.0000000000
     17278       150  SAPC      C29             2.7307203111       29.3779729203       -8.5362323375  MEMB      150             0.0000000000
     17279       150  SAPC      H9R             2.8852932153       28.4147575149       -8.0122574307  MEMB      150             0.0000000000
     17280       150  SAPC      C210            1.7624374111       30.3883024041       -7.8310838934  MEMB      150             0.0000000000
     17281       150  SAPC      H10R            0.8039508394       30.0966861559       -8.2253949026  MEMB      150             0.0000000000
     17282       150  SAPC      H10S            2.0534494084       31.3686457583       -8.2463832242  MEMB      150             0.0000000000
     17283       150  SAPC      C211            1.4365600936       30.8856314309       -6.3958683596  MEMB      150             0.0000000000
     17284       150  SAPC      H11R            1.2421693191       29.9801621194       -5.7707369174  MEMB      150             0.0000000000
     17285       150  SAPC      C212            1.9678786101       31.9573517413       -5.6542433762  MEMB      150             0.0000000000
     17286       150  SAPC      H12R            1.9881742215       31.8857919491       -4.5353034452  MEMB      150             0.0000000000
     17287       150  SAPC      C213            3.0719901573       32.9858640714       -5.9712643660  MEMB      150             0.0000000000
     17288       150  SAPC      H13R            3.5395259467       33.0161330084       -6.9812611869  MEMB      150             0.0000000000
     17289       150  SAPC      H13S            3.9972911670       32.9948130173       -5.3010536092  MEMB      150             0.0000000000
     17290       150  SAPC      C214            2.3348804924       34.1712259422       -6.0594873907  MEMB      150             0.0000000000
     17291       150  SAPC      H14R            1.2613495651       34.0976827888       -5.9282410351  MEMB      150             0.0000000000
     17292       150  SAPC      C215            2.8769076096       35.2627701163       -6.4725441328  MEMB      150             0.0000000000
     17293       150  SAPC      H15R            2.1036731749       36.0198643352       -6.5113052383  MEMB      150             0.0000000000
     17294       150  SAPC      C216            4.3124995826       35.5252237140       -6.9123812880  MEMB      150             0.0000000000
     17295       150  SAPC      H16R            4.2214041569       36.2476263024       -7.7525798433  MEMB      150             0.0000000000
     17296       150  SAPC      H16S            4.9212683034       34.6672721795       -7.2700080176  MEMB      150             0.0000000000
     17297       150  SAPC      C217            5.2587516066       36.0992315356       -5.8371598080  MEMB      150             0.0000000000
     17298       150  SAPC      H17R            4.7909538621       36.9834172952       -5.5364370005  MEMB      150             0.0000000000
     17299       150  SAPC      H17S            6.1946416148       36.4725045037       -6.2734770638  MEMB      150             0.0000000000
     17300       150  SAPC      C218            5.4570601676       35.3829381624       -4.4933587375  MEMB      150             0.0000000000
     17301       150  SAPC      H18R            5.9447581176       34.4322027647       -4.7389029284  MEMB      150             0.0000000000
     17302       150  SAPC      H18S            4.4509369369       35.1689630039       -4.0443087603  MEMB      150             0.0000000000
     17303       150  SAPC      C219            6.3417470807       36.1956290155       -3.4973834423  MEMB      150             0.0000000000
     17304       150  SAPC      H19R            6.1115618834       37.2693185121       -3.3659394515  MEMB      150             0.0000000000
     17305       150  SAPC      H19S            7.3494966794       36.2507044645       -3.9429250303  MEMB      150             0.0000000000
     17306       150  SAPC      C220            6.4324563614       35.6051743882       -2.0921676220  MEMB      150             0.0000000000
     17307       150  SAPC      H20R            5.4780376474       35.6336199339       -1.5171946873  MEMB      150             0.0000000000
     17308       150  SAPC      H20S            7.2032746090       36.1699994144       -1.5230883707  MEMB      150             0.0000000000
     17309       150  SAPC      H20T            6.7440926022       34.5511811255       -2.2053391272  MEMB      150             0.0000000000
     17310       150  SAPC      C33             5.3061655769       35.2828490281      -13.7500163644  MEMB      150             0.0000000000
     17311       150  SAPC      H3X             6.2379590308       34.9635114803      -14.2709226917  MEMB      150             0.0000000000
     17312       150  SAPC      H3Y             4.6887417965       34.3734526409      -13.5656333387  MEMB      150             0.0000000000
     17313       150  SAPC      C34             5.6912324076       35.8790067056      -12.3925632380  MEMB      150             0.0000000000
     17314       150  SAPC      H4X             4.8041696423       36.3514415044      -11.9113193328  MEMB      150             0.0000000000
     17315       150  SAPC      H4Y             6.4726690224       36.6580199944      -12.5463376442  MEMB      150             0.0000000000
     17316       150  SAPC      C35             6.2756993214       34.8539918138      -11.4089921961  MEMB      150             0.0000000000
     17317       150  SAPC      H5X             5.6635760954       33.9254785331      -11.3795744987  MEMB      150             0.0000000000
     17318       150  SAPC      H5Y             6.1585809715       35.3525384380      -10.4193215987  MEMB      150             0.0000000000
     17319       150  SAPC      C36             7.7359870473       34.4691716257      -11.7569722374  MEMB      150             0.0000000000
     17320       150  SAPC      H6X             8.1552874974       35.2341564115      -12.4444426254  MEMB      150             0.0000000000
     17321       150  SAPC      H6Y             7.7482204229       33.4856214049      -12.2543404143  MEMB      150             0.0000000000
     17322       150  SAPC      C37             8.7038761025       34.2272655564      -10.6147516447  MEMB      150             0.0000000000
     17323       150  SAPC      H7X             9.3550108724       35.1229901524      -10.5607092170  MEMB      150             0.0000000000
     17324       150  SAPC      H7Y             9.5108128170       33.5015544181      -10.8388658006  MEMB      150             0.0000000000
     17325       150  SAPC      C38             7.8956407140       33.7979143641       -9.3776554147  MEMB      150             0.0000000000
     17326       150  SAPC      H8X             6.9578113795       34.2877717959       -9.1023445283  MEMB      150             0.0000000000
     17327       150  SAPC      H8Y             8.3265032630       33.9771998955       -8.3962002231  MEMB      150             0.0000000000
     17328       150  SAPC      C39             7.8352616467       32.3703489147       -9.2414883649  MEMB      150             0.0000000000
     17329       150  SAPC      H9X             8.8478182892       31.9823336512       -9.4012591760  MEMB      150             0.0000000000
     17330       150  SAPC      H9Y             7.1118229738       32.0095258565       -9.9897598840  MEMB      150             0.0000000000
     17331       150  SAPC      C310            7.4664489793       32.1140509829       -7.8096564761  MEMB      150             0.0000000000
     17332       150  SAPC      H10X            6.4121910876       32.4130407201       -7.7496627365  MEMB      150             0.0000000000
     17333       150  SAPC      H10Y            8.0319587471       32.5707955851       -6.9783225211  MEMB      150             0.0000000000
     17334       150  SAPC      C311            7.7457074160       30.7257958760       -7.5560709605  MEMB      150             0.0000000000
     17335       150  SAPC      H11X            8.2693108570       30.3748131848       -8.4540757096  MEMB      150             0.0000000000
     17336       150  SAPC      H11Y            6.8771190276       30.3571248634       -8.1581647453  MEMB      150             0.0000000000
     17337       150  SAPC      C312            8.0959273907       30.5040382226       -5.8998291253  MEMB      150             0.0000000000
     17338       150  SAPC      H12X            9.0691296264       30.8216720363       -5.5861785096  MEMB      150             0.0000000000
     17339       150  SAPC      H12Y            8.1811738054       29.5094433918       -5.6494512079  MEMB      150             0.0000000000
     17340       150  SAPC      C313            7.1003619014       30.5272227122       -4.5270444400  MEMB      150             0.0000000000
     17341       150  SAPC      H13X            6.0511752378       30.5220906185       -4.6565377216  MEMB      150             0.0000000000
     17342       150  SAPC      H13Y            6.4013555803       31.3758016799       -4.5412521737  MEMB      150             0.0000000000
     17343       150  SAPC      C314            6.7370453002       29.1765042163       -3.6475379006  MEMB      150             0.0000000000
     17344       150  SAPC      H14X            7.5207709914       29.4046356270       -3.0010353831  MEMB      150             0.0000000000
     17345       150  SAPC      H14Y            6.9012185917       28.1232393480       -3.9179444501  MEMB      150             0.0000000000
     17346       150  SAPC      C315            5.2799261867       28.9890241347       -3.1812865202  MEMB      150             0.0000000000
     17347       150  SAPC      H15X            4.6626526099       28.4226558315       -3.9719668305  MEMB      150             0.0000000000
     17348       150  SAPC      H15Y            4.8248958917       29.9444684170       -2.8469383783  MEMB      150             0.0000000000
     17349       150  SAPC      C316            4.6534457569       28.2668642402       -2.1264517792  MEMB      150             0.0000000000
     17350       150  SAPC      H16X            4.9946894129       28.2536795090       -1.0628076405  MEMB      150             0.0000000000
     17351       150  SAPC      H16Y            4.7926487117       27.3072153880       -2.5770714128  MEMB      150             0.0000000000
     17352       150  SAPC      C317            3.2202232850       28.4364891413       -2.1771890013  MEMB      150             0.0000000000
     17353       150  SAPC      H17X            3.3260175641       27.6048959044       -1.6184837453  MEMB      150             0.0000000000
     17354       150  SAPC      H17Y            2.7595237091       27.9681328213       -3.0494355780  MEMB      150             0.0000000000
     17355       150  SAPC      C318            2.4722597997       29.4442995953       -1.3742799755  MEMB      150             0.0000000000
     17356       150  SAPC      H18X            3.1191062100       29.9752285235       -0.6586349195  MEMB      150             0.0000000000
     17357       150  SAPC      H18Y            1.6612574750       29.0291326161       -0.7533669485  MEMB      150             0.0000000000
     17358       150  SAPC      H18Z            1.9897991771       30.0691808199       -2.1179729887  MEMB      150             0.0000000000
     17359       151  CHL1      C3             10.8440333426       29.3213081762      -17.3449466941  MEMB      151             0.0000000000
     17360       151  CHL1      H3              9.9388708271       29.9669829072      -17.2457067876  MEMB      151             0.0000000000
     17361       151  CHL1      O3             11.3853682547       29.5153868337      -18.6410803344  MEMB      151             0.0000000000
     17362       151  CHL1      H3'            11.6186708478       30.4500062845      -18.7047191053  MEMB      151             0.0000000000
     17363       151  CHL1      C4             11.8750280737       29.7097689417      -16.2853971167  MEMB      151             0.0000000000
     17364       151  CHL1      H4A            12.7937798140       29.0872635426      -16.3678237358  MEMB      151             0.0000000000
     17365       151  CHL1      H4B            12.1834961825       30.7543255070      -16.4986057974  MEMB      151             0.0000000000
     17366       151  CHL1      C5             11.2963284281       29.5597882879      -14.9002417269  MEMB      151             0.0000000000
     17367       151  CHL1      C6             11.2582537567       30.6109330890      -14.0630528287  MEMB      151             0.0000000000
     17368       151  CHL1      H6             11.6538739573       31.5731453445      -14.4199217212  MEMB      151             0.0000000000
     17369       151  CHL1      C7             10.8239350949       30.5297433141      -12.6221431725  MEMB      151             0.0000000000
     17370       151  CHL1      H7A            11.5828018633       30.9913282963      -11.9615854038  MEMB      151             0.0000000000
     17371       151  CHL1      H7B             9.8581254248       31.0622123634      -12.4617815464  MEMB      151             0.0000000000
     17372       151  CHL1      C8             10.6379766633       29.0718075064      -12.1595683430  MEMB      151             0.0000000000
     17373       151  CHL1      H8             11.5914584213       28.5369917608      -11.9958608517  MEMB      151             0.0000000000
     17374       151  CHL1      C14             9.9147995606       29.0315182489      -10.8251981774  MEMB      151             0.0000000000
     17375       151  CHL1      H14             8.8909434275       29.4718271406      -11.0116940305  MEMB      151             0.0000000000
     17376       151  CHL1      C15            10.5673248937       29.8303050447       -9.7033236353  MEMB      151             0.0000000000
     17377       151  CHL1      H15A           11.6544970052       29.8174854209       -9.5832829290  MEMB      151             0.0000000000
     17378       151  CHL1      H15B           10.2587783675       30.8782957531       -9.8024930083  MEMB      151             0.0000000000
     17379       151  CHL1      C16            10.0926843565       29.1519475793       -8.4476948669  MEMB      151             0.0000000000
     17380       151  CHL1      H16A           10.8134756497       28.6371384101       -7.8024741650  MEMB      151             0.0000000000
     17381       151  CHL1      H16B            9.9137540696       29.9692066480       -7.7640487288  MEMB      151             0.0000000000
     17382       151  CHL1      C17             9.0226971333       28.1305547373       -8.8828365869  MEMB      151             0.0000000000
     17383       151  CHL1      H17             8.0274580289       28.5217910349       -9.2009874814  MEMB      151             0.0000000000
     17384       151  CHL1      C13             9.6145385849       27.6611566684      -10.2427631226  MEMB      151             0.0000000000
     17385       151  CHL1      C18            10.9018432346       26.8605019339       -9.9072941836  MEMB      151             0.0000000000
     17386       151  CHL1      H18A           11.5309921605       26.7178664747      -10.7987279537  MEMB      151             0.0000000000
     17387       151  CHL1      H18B           11.5440139342       27.3700759209       -9.1635597997  MEMB      151             0.0000000000
     17388       151  CHL1      H18C           10.6507434778       25.8690492281       -9.4801444444  MEMB      151             0.0000000000
     17389       151  CHL1      C12             8.7476006193       27.1016479943      -11.3831201906  MEMB      151             0.0000000000
     17390       151  CHL1      H12A            8.7371786128       26.0466600008      -11.4864396700  MEMB      151             0.0000000000
     17391       151  CHL1      H12B            7.6903437657       27.4219196907      -11.3484831087  MEMB      151             0.0000000000
     17392       151  CHL1      C11             9.4743557345       27.0338390330      -12.7256508150  MEMB      151             0.0000000000
     17393       151  CHL1      H11A           10.3061010615       26.2986542035      -12.5839934787  MEMB      151             0.0000000000
     17394       151  CHL1      H11B            8.8262524449       26.6823772305      -13.5379988654  MEMB      151             0.0000000000
     17395       151  CHL1      C9              9.9108634965       28.3381840071      -13.2574522648  MEMB      151             0.0000000000
     17396       151  CHL1      H9              8.9690922967       28.8975973496      -13.4788046737  MEMB      151             0.0000000000
     17397       151  CHL1      C10            10.6876576261       28.1808002493      -14.5850368187  MEMB      151             0.0000000000
     17398       151  CHL1      C19            11.7390170285       27.0593136911      -14.4379601956  MEMB      151             0.0000000000
     17399       151  CHL1      H19A           12.3317436352       26.9435402578      -15.3705504157  MEMB      151             0.0000000000
     17400       151  CHL1      H19B           12.3810229789       27.2648858231      -13.5719884908  MEMB      151             0.0000000000
     17401       151  CHL1      H19C           11.3418309781       26.0632474017      -14.2082141730  MEMB      151             0.0000000000
     17402       151  CHL1      C1              9.7740955318       27.7184786983      -15.7565702889  MEMB      151             0.0000000000
     17403       151  CHL1      H1A             9.4668049986       26.6594226687      -15.6085166939  MEMB      151             0.0000000000
     17404       151  CHL1      H1B             8.8655591861       28.3520212909      -15.7816248531  MEMB      151             0.0000000000
     17405       151  CHL1      C2             10.4321699116       27.8616819462      -17.1394970227  MEMB      151             0.0000000000
     17406       151  CHL1      H2A             9.6934111446       27.5517916030      -17.9067647278  MEMB      151             0.0000000000
     17407       151  CHL1      H2B            11.3387927478       27.2196911405      -17.2070761269  MEMB      151             0.0000000000
     17408       151  CHL1      C20             8.8929834103       27.2679404169       -7.6408747904  MEMB      151             0.0000000000
     17409       151  CHL1      H20             9.8619254077       26.7850330447       -7.3203078362  MEMB      151             0.0000000000
     17410       151  CHL1      C21             7.9613720098       26.3675611203       -7.9504278819  MEMB      151             0.0000000000
     17411       151  CHL1      H21A            7.2096037605       26.6417550395       -8.7171694828  MEMB      151             0.0000000000
     17412       151  CHL1      H21B            7.6429961112       25.6651826771       -7.1532500630  MEMB      151             0.0000000000
     17413       151  CHL1      H21C            8.7265521650       25.7740761993       -8.3645940471  MEMB      151             0.0000000000
     17414       151  CHL1      C22             7.9789199261       27.5979941108       -6.5071146109  MEMB      151             0.0000000000
     17415       151  CHL1      H22A            7.9003083938       26.9626669829       -5.6039562342  MEMB      151             0.0000000000
     17416       151  CHL1      H22B            8.9190203158       28.0454100926       -6.1332119177  MEMB      151             0.0000000000
     17417       151  CHL1      C23             6.5311577840       28.1360382621       -7.0600161236  MEMB      151             0.0000000000
     17418       151  CHL1      H23A            6.5451095032       28.5925875224       -8.0236856132  MEMB      151             0.0000000000
     17419       151  CHL1      H23B            5.7108454069       27.4407418196       -7.1831600936  MEMB      151             0.0000000000
     17420       151  CHL1      C24             5.7119077447       29.1031922426       -6.2920053839  MEMB      151             0.0000000000
     17421       151  CHL1      H24A            5.7233334055       28.4514929265       -5.4673100222  MEMB      151             0.0000000000
     17422       151  CHL1      H24B            6.1092098096       30.0830018844       -6.3788190481  MEMB      151             0.0000000000
     17423       151  CHL1      C25             4.3509471368       29.6998634527       -6.1643159602  MEMB      151             0.0000000000
     17424       151  CHL1      H25             3.7322720666       28.8552893027       -6.4337421549  MEMB      151             0.0000000000
     17425       151  CHL1      C26             3.7718958228       30.2755320557       -4.8412567636  MEMB      151             0.0000000000
     17426       151  CHL1      H26A            3.3967606004       29.8291058574       -3.9467831313  MEMB      151             0.0000000000
     17427       151  CHL1      H26B            4.1222429746       31.2345302437       -4.3903343020  MEMB      151             0.0000000000
     17428       151  CHL1      H26C            2.7411856486       29.9647293967       -4.7384222976  MEMB      151             0.0000000000
     17429       151  CHL1      C27             4.5751795206       30.9441159775       -7.0228764455  MEMB      151             0.0000000000
     17430       151  CHL1      H27A            5.0870200088       30.7943329685       -7.9634579223  MEMB      151             0.0000000000
     17431       151  CHL1      H27B            3.6830917902       31.3022219539       -7.3412649946  MEMB      151             0.0000000000
     17432       151  CHL1      H27C            5.1011932242       31.7751535550       -6.5069589462  MEMB      151             0.0000000000
     17433       152  CHL1      C3            -23.2743736247      -20.8208231726      -17.3061719043  MEMB      152             0.0000000000
     17434       152  CHL1      H3            -24.0154491528      -20.0778433117      -16.9284928257  MEMB      152             0.0000000000
     17435       152  CHL1      O3            -23.1447192826      -20.6981925615      -18.7102603638  MEMB      152             0.0000000000
     17436       152  CHL1      H3'           -22.4120926535      -21.3174708609      -18.9040883098  MEMB      152             0.0000000000
     17437       152  CHL1      C4            -21.9227750661      -20.5349508922      -16.6058908737  MEMB      152             0.0000000000
     17438       152  CHL1      H4A           -21.0713542101      -21.0637150635      -17.0819592823  MEMB      152             0.0000000000
     17439       152  CHL1      H4B           -21.7049594260      -19.4458268961      -16.7354850758  MEMB      152             0.0000000000
     17440       152  CHL1      C5            -21.9916415737      -20.9241066215      -15.1462350933  MEMB      152             0.0000000000
     17441       152  CHL1      C6            -21.6806212078      -20.0705542866      -14.1970131142  MEMB      152             0.0000000000
     17442       152  CHL1      H6            -21.3665449865      -19.1248551643      -14.5925889786  MEMB      152             0.0000000000
     17443       152  CHL1      C7            -21.6688031910      -20.3040901783      -12.7095362218  MEMB      152             0.0000000000
     17444       152  CHL1      H7A           -20.7394903914      -19.9171030102      -12.2275294067  MEMB      152             0.0000000000
     17445       152  CHL1      H7B           -22.5330716496      -19.8158020940      -12.2291907821  MEMB      152             0.0000000000
     17446       152  CHL1      C8            -21.7305470432      -21.8086124658      -12.4219660209  MEMB      152             0.0000000000
     17447       152  CHL1      H8            -20.7603859419      -22.0914927893      -12.8031071175  MEMB      152             0.0000000000
     17448       152  CHL1      C14           -22.0395017887      -22.1203260678      -10.9396699092  MEMB      152             0.0000000000
     17449       152  CHL1      H14           -23.1112982813      -21.7744425926      -10.9068596399  MEMB      152             0.0000000000
     17450       152  CHL1      C15           -21.4844374381      -21.2319386855       -9.8136634084  MEMB      152             0.0000000000
     17451       152  CHL1      H15A          -20.4461295745      -21.0525555765       -9.8270250444  MEMB      152             0.0000000000
     17452       152  CHL1      H15B          -21.7947487423      -20.1805002702       -9.8344281465  MEMB      152             0.0000000000
     17453       152  CHL1      C16           -21.7599275448      -22.0197756346       -8.5455310647  MEMB      152             0.0000000000
     17454       152  CHL1      H16A          -20.8245488073      -22.3411171666       -8.0373510103  MEMB      152             0.0000000000
     17455       152  CHL1      H16B          -22.3519665310      -21.3873356094       -7.8626978721  MEMB      152             0.0000000000
     17456       152  CHL1      C17           -22.5280666955      -23.3071331104       -8.9746796465  MEMB      152             0.0000000000
     17457       152  CHL1      H17           -23.5873159280      -22.9849811351       -8.9846415474  MEMB      152             0.0000000000
     17458       152  CHL1      C13           -22.1123391847      -23.6057143702      -10.4167394422  MEMB      152             0.0000000000
     17459       152  CHL1      C18           -20.8788394273      -24.5115396986      -10.1578566518  MEMB      152             0.0000000000
     17460       152  CHL1      H18A          -20.4910321621      -24.8388703630      -11.1341422992  MEMB      152             0.0000000000
     17461       152  CHL1      H18B          -20.1484049600      -23.9511045105       -9.5191960344  MEMB      152             0.0000000000
     17462       152  CHL1      H18C          -20.8852747462      -25.5628697748       -9.8964669935  MEMB      152             0.0000000000
     17463       152  CHL1      C12           -23.0330815575      -24.3412760301      -11.3860210327  MEMB      152             0.0000000000
     17464       152  CHL1      H12A          -22.9480376804      -25.4313741265      -11.1956308483  MEMB      152             0.0000000000
     17465       152  CHL1      H12B          -24.0524476769      -23.9863561086      -11.1528943109  MEMB      152             0.0000000000
     17466       152  CHL1      C11           -22.7183232697      -24.0913973939      -12.8898105737  MEMB      152             0.0000000000
     17467       152  CHL1      H11A          -21.7816262397      -24.6331010194      -13.1524724954  MEMB      152             0.0000000000
     17468       152  CHL1      H11B          -23.5311639498      -24.5504016740      -13.4825923866  MEMB      152             0.0000000000
     17469       152  CHL1      C9            -22.6648131168      -22.5909382573      -13.3158165524  MEMB      152             0.0000000000
     17470       152  CHL1      H9            -23.6610678263      -22.1572520874      -13.1059913460  MEMB      152             0.0000000000
     17471       152  CHL1      C10           -22.4628948522      -22.3223823832      -14.8308231848  MEMB      152             0.0000000000
     17472       152  CHL1      C19           -21.4451771642      -23.2492228440      -15.3921673947  MEMB      152             0.0000000000
     17473       152  CHL1      H19A          -20.5805393672      -22.8573848061      -14.8993270033  MEMB      152             0.0000000000
     17474       152  CHL1      H19B          -21.4477732149      -24.3217703737      -15.1442504375  MEMB      152             0.0000000000
     17475       152  CHL1      H19C          -21.2522970346      -23.1324931718      -16.4797630596  MEMB      152             0.0000000000
     17476       152  CHL1      C1            -23.7280482847      -22.5975002778      -15.5723487682  MEMB      152             0.0000000000
     17477       152  CHL1      H1A           -23.8081018809      -23.7055641641      -15.5230780523  MEMB      152             0.0000000000
     17478       152  CHL1      H1B           -24.5270049839      -22.0645689589      -15.0238404762  MEMB      152             0.0000000000
     17479       152  CHL1      C2            -23.8184291859      -22.2213974518      -17.0422353146  MEMB      152             0.0000000000
     17480       152  CHL1      H2A           -24.9034820921      -22.2645468614      -17.2874439136  MEMB      152             0.0000000000
     17481       152  CHL1      H2B           -23.3041258002      -22.9754799253      -17.6754311237  MEMB      152             0.0000000000
     17482       152  CHL1      C20           -22.3334289023      -24.4067760397       -7.9331401101  MEMB      152             0.0000000000
     17483       152  CHL1      H20           -21.2420660926      -24.5902866230       -7.7508736755  MEMB      152             0.0000000000
     17484       152  CHL1      C21           -23.0034500296      -25.7246811744       -8.3504486658  MEMB      152             0.0000000000
     17485       152  CHL1      H21A          -23.0957985956      -26.3760655173       -7.4740436257  MEMB      152             0.0000000000
     17486       152  CHL1      H21B          -22.4025488944      -26.2740935223       -9.0954012062  MEMB      152             0.0000000000
     17487       152  CHL1      H21C          -24.0210681100      -25.5483596877       -8.7396397397  MEMB      152             0.0000000000
     17488       152  CHL1      C22           -22.9735830551      -23.9515219255       -6.6261542316  MEMB      152             0.0000000000
     17489       152  CHL1      H22A          -22.7520962616      -22.8874146229       -6.3980936533  MEMB      152             0.0000000000
     17490       152  CHL1      H22B          -24.0738651501      -24.0346569694       -6.7558431041  MEMB      152             0.0000000000
     17491       152  CHL1      C23           -22.5913518245      -24.7680847283       -5.4039130864  MEMB      152             0.0000000000
     17492       152  CHL1      H23A          -23.2285615042      -25.6852365880       -5.4040419353  MEMB      152             0.0000000000
     17493       152  CHL1      H23B          -21.5278682144      -25.0877934637       -5.4343915807  MEMB      152             0.0000000000
     17494       152  CHL1      C24           -22.8310690022      -23.8527564292       -4.1989403107  MEMB      152             0.0000000000
     17495       152  CHL1      H24A          -22.2362156964      -22.9312221436       -4.2766699770  MEMB      152             0.0000000000
     17496       152  CHL1      H24B          -23.9287657341      -23.6199738391       -4.1710565912  MEMB      152             0.0000000000
     17497       152  CHL1      C25           -22.4640680419      -24.4183727293       -2.8611080170  MEMB      152             0.0000000000
     17498       152  CHL1      H25           -21.4647986705      -24.9014422703       -2.7779704134  MEMB      152             0.0000000000
     17499       152  CHL1      C26           -22.8596523874      -23.5591087208       -1.6548163714  MEMB      152             0.0000000000
     17500       152  CHL1      H26A          -23.9724210803      -23.4698083788       -1.5563082886  MEMB      152             0.0000000000
     17501       152  CHL1      H26B          -22.4962933642      -24.0392437039       -0.7173228720  MEMB      152             0.0000000000
     17502       152  CHL1      H26C          -22.4206314582      -22.5675043162       -1.7927844215  MEMB      152             0.0000000000
     17503       152  CHL1      C27           -23.3908978685      -25.4439383222       -2.7582316488  MEMB      152             0.0000000000
     17504       152  CHL1      H27A          -23.3938946236      -25.6518507447       -1.6760027375  MEMB      152             0.0000000000
     17505       152  CHL1      H27B          -24.4263289668      -25.0718597325       -2.9467493143  MEMB      152             0.0000000000
     17506       152  CHL1      H27C          -23.1822816063      -26.3600651917       -3.3769944491  MEMB      152             0.0000000000
     17507       153  SAPE      N              19.1876148134      -26.4329683757      -20.4896790623  MEMB      153             0.0000000000
     17508       153  SAPE      HN1            19.2155979254      -25.7125366781      -19.7320288240  MEMB      153             0.0000000000
     17509       153  SAPE      HN2            18.1843699436      -26.6198806817      -20.7146245524  MEMB      153             0.0000000000
     17510       153  SAPE      HN3            19.6136002451      -27.2929643489      -20.1106952031  MEMB      153             0.0000000000
     17511       153  SAPE      C12            19.9992576572      -25.8128413952      -21.5989865798  MEMB      153             0.0000000000
     17512       153  SAPE      H12A           19.6367210855      -26.1544107155      -22.5794782881  MEMB      153             0.0000000000
     17513       153  SAPE      H12B           21.0514238575      -26.1467397155      -21.4758304519  MEMB      153             0.0000000000
     17514       153  SAPE      C11            19.9335903779      -24.2754091133      -21.5248623070  MEMB      153             0.0000000000
     17515       153  SAPE      H11A           19.0644570826      -23.9760013882      -22.1193724858  MEMB      153             0.0000000000
     17516       153  SAPE      H11B           20.8454881743      -23.8334461554      -22.0094535169  MEMB      153             0.0000000000
     17517       153  SAPE      P              21.0186995973      -23.6809911625      -19.3653592537  MEMB      153             0.0000000000
     17518       153  SAPE      O13            21.4794613930      -25.0859855641      -19.4630705144  MEMB      153             0.0000000000
     17519       153  SAPE      O14            21.8296226581      -22.6150223682      -19.9618966109  MEMB      153             0.0000000000
     17520       153  SAPE      O12            19.7029596918      -23.7761714593      -20.2017222060  MEMB      153             0.0000000000
     17521       153  SAPE      O11            20.4520607140      -23.2525423035      -17.9579558141  MEMB      153             0.0000000000
     17522       153  SAPE      C1             19.2443227764      -22.4878766458      -17.9615435098  MEMB      153             0.0000000000
     17523       153  SAPE      HA             19.3438680371      -21.5180730725      -18.5122871373  MEMB      153             0.0000000000
     17524       153  SAPE      HB             18.4180115463      -23.0899174951      -18.4124261017  MEMB      153             0.0000000000
     17525       153  SAPE      C2             18.8257568967      -22.1657954722      -16.5206699627  MEMB      153             0.0000000000
     17526       153  SAPE      HS             17.8868151361      -21.5941849106      -16.5667131098  MEMB      153             0.0000000000
     17527       153  SAPE      O21            19.7583720026      -21.3624722188      -15.8458184984  MEMB      153             0.0000000000
     17528       153  SAPE      C21            19.7573776773      -20.0941470601      -15.9749259452  MEMB      153             0.0000000000
     17529       153  SAPE      O22            19.0332629692      -19.4202131351      -16.6769640604  MEMB      153             0.0000000000
     17530       153  SAPE      C22            20.7124851483      -19.5411997199      -14.9912110010  MEMB      153             0.0000000000
     17531       153  SAPE      H2R            20.2384928817      -18.6218315782      -14.5801995809  MEMB      153             0.0000000000
     17532       153  SAPE      H2S            20.9313901036      -20.0821231066      -14.0736831972  MEMB      153             0.0000000000
     17533       153  SAPE      C3             18.6505714614      -23.4671713834      -15.6990358001  MEMB      153             0.0000000000
     17534       153  SAPE      HX             19.5076396557      -24.1536455539      -15.8958306205  MEMB      153             0.0000000000
     17535       153  SAPE      HY             17.7332509987      -23.9792129837      -16.0535562124  MEMB      153             0.0000000000
     17536       153  SAPE      O31            18.6484593666      -23.2045463688      -14.2899349736  MEMB      153             0.0000000000
     17537       153  SAPE      C31            17.5054015802      -23.2498163079      -13.6612267777  MEMB      153             0.0000000000
     17538       153  SAPE      O32            16.3926569782      -23.3807315808      -14.1414119997  MEMB      153             0.0000000000
     17539       153  SAPE      C32            17.8056931565      -23.1163522565      -12.1952653897  MEMB      153             0.0000000000
     17540       153  SAPE      H2X            18.6354491412      -22.3858958064      -12.0835781031  MEMB      153             0.0000000000
     17541       153  SAPE      H2Y            18.1338857310      -24.0653173405      -11.7340145580  MEMB      153             0.0000000000
     17542       153  SAPE      C23            21.9210744327      -19.0972076850      -15.7793119939  MEMB      153             0.0000000000
     17543       153  SAPE      H3R            22.1026761666      -18.4652939669      -14.8598768823  MEMB      153             0.0000000000
     17544       153  SAPE      H3S            21.7505103968      -18.6163277146      -16.7510607281  MEMB      153             0.0000000000
     17545       153  SAPE      C24            23.2512937724      -19.8058723344      -16.1948073290  MEMB      153             0.0000000000
     17546       153  SAPE      H4R            23.6646412386      -19.1903701742      -15.2623620916  MEMB      153             0.0000000000
     17547       153  SAPE      H4S            24.2011139187      -19.2572502516      -16.2436112204  MEMB      153             0.0000000000
     17548       153  SAPE      C25            23.7517040755      -21.3628746922      -16.5831785789  MEMB      153             0.0000000000
     17549       153  SAPE      H5R            23.3477349526      -21.4657535368      -17.6481783755  MEMB      153             0.0000000000
     17550       153  SAPE      C26            24.0351938049      -22.6780797449      -15.7469659355  MEMB      153             0.0000000000
     17551       153  SAPE      H6R            23.1159778318      -22.9052049041      -16.4175034314  MEMB      153             0.0000000000
     17552       153  SAPE      C27            23.8592426582      -23.3356972987      -13.7050170996  MEMB      153             0.0000000000
     17553       153  SAPE      H7R            23.4054852405      -22.6458909658      -12.9823697584  MEMB      153             0.0000000000
     17554       153  SAPE      H7S            24.5693287957      -23.9172253924      -13.1454175862  MEMB      153             0.0000000000
     17555       153  SAPE      C28            22.3631652301      -23.5021351992      -12.6338493310  MEMB      153             0.0000000000
     17556       153  SAPE      H8R            21.3021617333      -23.3609882615      -13.0400360770  MEMB      153             0.0000000000
     17557       153  SAPE      C29            21.8111218010      -23.5667363467      -11.4001570357  MEMB      153             0.0000000000
     17558       153  SAPE      H9R            20.8379585104      -23.0669442122      -11.1339337601  MEMB      153             0.0000000000
     17559       153  SAPE      C210           22.6859436311      -23.5135038874      -10.3231721566  MEMB      153             0.0000000000
     17560       153  SAPE      H10R           22.8328206084      -22.5777738514       -9.7501589313  MEMB      153             0.0000000000
     17561       153  SAPE      H10S           23.5742701074      -23.7122767442      -10.8250787550  MEMB      153             0.0000000000
     17562       153  SAPE      C211           22.5266583938      -24.7923592404       -9.7048468045  MEMB      153             0.0000000000
     17563       153  SAPE      H11R           22.9080421439      -25.6570673602      -10.2869375690  MEMB      153             0.0000000000
     17564       153  SAPE      C212           22.0989627368      -24.8159653727       -8.4888597177  MEMB      153             0.0000000000
     17565       153  SAPE      H12R           22.2362012104      -25.7779524251       -8.0146561016  MEMB      153             0.0000000000
     17566       153  SAPE      C213           21.7385511913      -23.5741629154       -7.6959331186  MEMB      153             0.0000000000
     17567       153  SAPE      H13R           22.3482434508      -22.6494703919       -7.8657362960  MEMB      153             0.0000000000
     17568       153  SAPE      H13S           21.9743821162      -23.8274413071       -6.6544345126  MEMB      153             0.0000000000
     17569       153  SAPE      C214           20.2863369044      -23.2038743646       -7.8941972840  MEMB      153             0.0000000000
     17570       153  SAPE      H14R           20.0763807658      -22.3683953450       -8.5855390078  MEMB      153             0.0000000000
     17571       153  SAPE      C215           19.2400538775      -23.9064716512       -7.4374226108  MEMB      153             0.0000000000
     17572       153  SAPE      H15R           18.2298974646      -23.5648150561       -7.6883898446  MEMB      153             0.0000000000
     17573       153  SAPE      C216           19.2847072636      -25.1863854608       -6.6517103420  MEMB      153             0.0000000000
     17574       153  SAPE      H16R           20.2247218677      -25.7497025961       -6.8338590903  MEMB      153             0.0000000000
     17575       153  SAPE      H16S           18.4820912736      -25.8349862886       -7.0620766222  MEMB      153             0.0000000000
     17576       153  SAPE      C217           19.0468335173      -25.0276630353       -5.1351045962  MEMB      153             0.0000000000
     17577       153  SAPE      H17R           18.8096294927      -26.0290290945       -4.7123733094  MEMB      153             0.0000000000
     17578       153  SAPE      H17S           18.1477548917      -24.3956267828       -4.9577142666  MEMB      153             0.0000000000
     17579       153  SAPE      C218           20.1910861890      -24.3543874157       -4.3523399004  MEMB      153             0.0000000000
     17580       153  SAPE      H18R           20.0851104714      -23.2645589389       -4.5582638753  MEMB      153             0.0000000000
     17581       153  SAPE      H18S           21.2018733024      -24.6512517184       -4.6965821147  MEMB      153             0.0000000000
     17582       153  SAPE      C219           20.0947640686      -24.6017677944       -2.8399474909  MEMB      153             0.0000000000
     17583       153  SAPE      H19R           20.2679687895      -25.6736838703       -2.5984944211  MEMB      153             0.0000000000
     17584       153  SAPE      H19S           19.0280395618      -24.4081281040       -2.5706244567  MEMB      153             0.0000000000
     17585       153  SAPE      C220           21.0420972271      -23.7234020762       -2.0020702492  MEMB      153             0.0000000000
     17586       153  SAPE      H20R           20.7383053438      -23.7423701485       -0.9401032658  MEMB      153             0.0000000000
     17587       153  SAPE      H20S           20.9919450045      -22.6627776119       -2.3325974632  MEMB      153             0.0000000000
     17588       153  SAPE      H20T           22.0846972379      -24.0572455836       -1.9412823128  MEMB      153             0.0000000000
     17589       153  SAPE      C33            16.5398247617      -22.6910574147      -11.4965221954  MEMB      153             0.0000000000
     17590       153  SAPE      H3X            15.7401702229      -23.4571443660      -11.4401683455  MEMB      153             0.0000000000
     17591       153  SAPE      H3Y            16.0631946211      -21.8680410931      -12.0744063202  MEMB      153             0.0000000000
     17592       153  SAPE      C34            16.9343512759      -22.2999091967      -10.0990279387  MEMB      153             0.0000000000
     17593       153  SAPE      H4X            17.3822340450      -23.1010518412       -9.4883388253  MEMB      153             0.0000000000
     17594       153  SAPE      H4Y            15.9614483106      -22.1929008482       -9.6512772102  MEMB      153             0.0000000000
     17595       153  SAPE      C35            17.8586099336      -21.0774172902      -10.0974036222  MEMB      153             0.0000000000
     17596       153  SAPE      H5X            17.5290613099      -20.2084524779      -10.7156685379  MEMB      153             0.0000000000
     17597       153  SAPE      H5Y            18.8519092060      -21.3189025714      -10.4440392228  MEMB      153             0.0000000000
     17598       153  SAPE      C36            18.0107067004      -20.6149763535       -8.7048099254  MEMB      153             0.0000000000
     17599       153  SAPE      H6X            18.1258623639      -21.4067983725       -7.9368139557  MEMB      153             0.0000000000
     17600       153  SAPE      H6Y            17.0832757496      -20.0839211275       -8.8940561962  MEMB      153             0.0000000000
     17601       153  SAPE      C37            18.4003967722      -19.2838793678       -8.1771341658  MEMB      153             0.0000000000
     17602       153  SAPE      H7X            18.1366934120      -18.3349378286       -8.6805196071  MEMB      153             0.0000000000
     17603       153  SAPE      H7Y            19.2681217894      -19.7461054168       -8.6354984281  MEMB      153             0.0000000000
     17604       153  SAPE      C38            18.7168203374      -19.2851315140       -6.7174689584  MEMB      153             0.0000000000
     17605       153  SAPE      H8X            19.5493636280      -18.7476135915       -6.5900320108  MEMB      153             0.0000000000
     17606       153  SAPE      H8Y            19.2996297750      -20.1940933967       -6.4823181436  MEMB      153             0.0000000000
     17607       153  SAPE      C39            18.2319949895      -18.2560017958       -5.6961454047  MEMB      153             0.0000000000
     17608       153  SAPE      H9X            17.2230333519      -17.9016193753       -5.7178691410  MEMB      153             0.0000000000
     17609       153  SAPE      H9Y            18.5427035202      -17.2120044113       -5.8009239360  MEMB      153             0.0000000000
     17610       153  SAPE      C310           18.4946219977      -19.0493429121       -4.4438367690  MEMB      153             0.0000000000
     17611       153  SAPE      H10X           18.0853216765      -18.3719402837       -3.6942856748  MEMB      153             0.0000000000
     17612       153  SAPE      H10Y           19.4535011128      -19.0692781292       -3.9231739322  MEMB      153             0.0000000000
     17613       153  SAPE      C311           17.9766953980      -20.4906443322       -4.6281219032  MEMB      153             0.0000000000
     17614       153  SAPE      H11X           18.6442295501      -21.2458848772       -5.1162303303  MEMB      153             0.0000000000
     17615       153  SAPE      H11Y           17.0039247169      -20.7349395365       -5.0849045563  MEMB      153             0.0000000000
     17616       153  SAPE      C312           17.8061083368      -20.8403750203       -3.2746630553  MEMB      153             0.0000000000
     17617       153  SAPE      H12X           18.5928708758      -20.4478329845       -2.6377039155  MEMB      153             0.0000000000
     17618       153  SAPE      H12Y           18.2701859828      -21.9150872131       -3.3461382139  MEMB      153             0.0000000000
     17619       153  SAPE      C313           16.1958943380      -20.5458482321       -2.6899893389  MEMB      153             0.0000000000
     17620       153  SAPE      H13X           15.8410589686      -21.1281092519       -3.6089410641  MEMB      153             0.0000000000
     17621       153  SAPE      H13Y           15.4719304925      -19.9890102767       -3.0653477723  MEMB      153             0.0000000000
     17622       153  SAPE      C314           15.4695395767      -21.1750559907       -0.9196982622  MEMB      153             0.0000000000
     17623       153  SAPE      H14X           14.6431700788      -21.1771981282       -0.4517784718  MEMB      153             0.0000000000
     17624       153  SAPE      H14Y           16.0463483241      -20.3375982252       -0.4360728153  MEMB      153             0.0000000000
     17625       153  SAPE      C315           16.0294961524      -23.2887845033       -0.0052614482  MEMB      153             0.0000000000
     17626       153  SAPE      H15X           16.7226763358      -23.3364213427        0.8335446428  MEMB      153             0.0000000000
     17627       153  SAPE      H15Y           17.2122122271      -23.7062353300       -0.3844861794  MEMB      153             0.0000000000
     17628       153  SAPE      C316           15.8927261075      -24.6763080647       -0.7911168477  MEMB      153             0.0000000000
     17629       153  SAPE      H16X           16.4583424778      -24.8722482867       -1.7930469591  MEMB      153             0.0000000000
     17630       153  SAPE      H16Y           14.9063218725      -24.2686994673       -0.9341030536  MEMB      153             0.0000000000
     17631       153  SAPE      C317           16.4620392235      -25.7245050963       -0.0492025898  MEMB      153             0.0000000000
     17632       153  SAPE      H17X           15.6588788878      -26.4065913266       -0.3573219579  MEMB      153             0.0000000000
     17633       153  SAPE      H17Y           16.4824133288      -25.4088802106        0.9973730202  MEMB      153             0.0000000000
     17634       153  SAPE      C318           17.8694990531      -25.9803156510       -0.5653936223  MEMB      153             0.0000000000
     17635       153  SAPE      H18X           18.6148360164      -25.1762213840       -0.2881887566  MEMB      153             0.0000000000
     17636       153  SAPE      H18Y           17.9970342706      -26.0913183127       -1.6485541448  MEMB      153             0.0000000000
     17637       153  SAPE      H18Z           18.1165809782      -26.9124375677       -0.0556905977  MEMB      153             0.0000000000
     17638       154  SAPI      C12           -24.7579924492       23.4844418077      -23.6806973307  MEMB      154             0.0000000000
     17639       154  SAPI      H2            -25.4542891513       23.7453879799      -22.8450348688  MEMB      154             0.0000000000
     17640       154  SAPI      O2            -24.8868089897       22.0892924697      -23.9497991734  MEMB      154             0.0000000000
     17641       154  SAPI      HO2           -25.0009326984       21.6447202431      -23.0963888959  MEMB      154             0.0000000000
     17642       154  SAPI      C13           -25.1985267479       24.2601414557      -24.9052697803  MEMB      154             0.0000000000
     17643       154  SAPI      H3            -25.1284163847       25.3411129913      -24.6798784972  MEMB      154             0.0000000000
     17644       154  SAPI      O3            -26.5810202737       23.9808216402      -25.1742850776  MEMB      154             0.0000000000
     17645       154  SAPI      HO3           -26.8206370024       23.0944832782      -24.8436405363  MEMB      154             0.0000000000
     17646       154  SAPI      C14           -24.2502915450       23.9638612442      -26.0744923169  MEMB      154             0.0000000000
     17647       154  SAPI      H4            -24.3219258497       22.8816587284      -26.3257365176  MEMB      154             0.0000000000
     17648       154  SAPI      O4            -24.6191243195       24.6947670748      -27.2582688313  MEMB      154             0.0000000000
     17649       154  SAPI      HO4           -24.4934627431       24.0829044495      -27.9927235745  MEMB      154             0.0000000000
     17650       154  SAPI      C15           -22.8102479111       24.2986995889      -25.6651992925  MEMB      154             0.0000000000
     17651       154  SAPI      H5            -22.7480629980       25.3926904014      -25.4441437398  MEMB      154             0.0000000000
     17652       154  SAPI      O5            -21.8625021637       24.0220155445      -26.7066421349  MEMB      154             0.0000000000
     17653       154  SAPI      HO5           -21.5708991697       24.8614304416      -27.0754702274  MEMB      154             0.0000000000
     17654       154  SAPI      C16           -22.3783269182       23.5452784408      -24.4118522266  MEMB      154             0.0000000000
     17655       154  SAPI      H6            -22.4053209986       22.4482201191      -24.6132554055  MEMB      154             0.0000000000
     17656       154  SAPI      O6            -21.0297342832       23.8992821325      -24.0910122446  MEMB      154             0.0000000000
     17657       154  SAPI      HO6           -20.6366407471       24.1372862558      -24.9330421779  MEMB      154             0.0000000000
     17658       154  SAPI      C11           -23.3274197280       23.8550063866      -23.2681807837  MEMB      154             0.0000000000
     17659       154  SAPI      H1            -23.2638762624       24.9593045211      -23.0828191355  MEMB      154             0.0000000000
     17660       154  SAPI      P             -23.4555168372       23.6363421393      -20.6073221396  MEMB      154             0.0000000000
     17661       154  SAPI      O13           -24.9184147740       23.4635165984      -20.5388887254  MEMB      154             0.0000000000
     17662       154  SAPI      O14           -22.9313966045       25.0012910184      -20.3762703658  MEMB      154             0.0000000000
     17663       154  SAPI      O12           -22.9232037059       23.1307032620      -22.0899169325  MEMB      154             0.0000000000
     17664       154  SAPI      O11           -22.6993449857       22.6481791426      -19.6231850159  MEMB      154             0.0000000000
     17665       154  SAPI      C1            -22.6685170986       21.2472236645      -19.8838166624  MEMB      154             0.0000000000
     17666       154  SAPI      HA            -23.6400158444       20.8700056322      -20.2908942411  MEMB      154             0.0000000000
     17667       154  SAPI      HB            -21.8604333768       21.0329216994      -20.6163517289  MEMB      154             0.0000000000
     17668       154  SAPI      C2            -22.3723976764       20.4396474265      -18.5936967700  MEMB      154             0.0000000000
     17669       154  SAPI      HS            -22.6664679910       19.3797344199      -18.7525640098  MEMB      154             0.0000000000
     17670       154  SAPI      O21           -23.0776897046       20.9295724147      -17.4690959922  MEMB      154             0.0000000000
     17671       154  SAPI      C21           -24.3754801665       20.8712068972      -17.4800544123  MEMB      154             0.0000000000
     17672       154  SAPI      O22           -25.0938821443       20.2406135421      -18.2386406767  MEMB      154             0.0000000000
     17673       154  SAPI      C22           -24.8320138470       21.7696109270      -16.3692007783  MEMB      154             0.0000000000
     17674       154  SAPI      H2R           -25.8160537442       21.4686876365      -15.9677910184  MEMB      154             0.0000000000
     17675       154  SAPI      H2S           -24.0736629893       21.7339952864      -15.5555172331  MEMB      154             0.0000000000
     17676       154  SAPI      C3            -20.8664112006       20.4906839725      -18.2178146926  MEMB      154             0.0000000000
     17677       154  SAPI      HX            -20.3061839141       19.9931739162      -19.0305277104  MEMB      154             0.0000000000
     17678       154  SAPI      HY            -20.7358908834       19.8542126248      -17.3098252121  MEMB      154             0.0000000000
     17679       154  SAPI      O31           -20.3363503136       21.8404131134      -18.0738743870  MEMB      154             0.0000000000
     17680       154  SAPI      C31           -20.2494754456       22.2743630979      -16.8152234125  MEMB      154             0.0000000000
     17681       154  SAPI      O32           -20.4928853929       21.5918291101      -15.8380301888  MEMB      154             0.0000000000
     17682       154  SAPI      C32           -19.6129555129       23.6723698668      -16.7760537640  MEMB      154             0.0000000000
     17683       154  SAPI      H2X           -20.1531722285       24.3711410628      -17.4435734233  MEMB      154             0.0000000000
     17684       154  SAPI      H2Y           -18.5652571959       23.5839246999      -17.1329725613  MEMB      154             0.0000000000
     17685       154  SAPI      C23           -24.8595413807       23.1546973353      -17.0048105193  MEMB      154             0.0000000000
     17686       154  SAPI      H3R           -25.5344433039       23.1802900327      -17.8940955829  MEMB      154             0.0000000000
     17687       154  SAPI      H3S           -23.8286980030       23.3834417734      -17.3863064216  MEMB      154             0.0000000000
     17688       154  SAPI      C24           -25.2503226272       24.2513883445      -16.0173380559  MEMB      154             0.0000000000
     17689       154  SAPI      H4R           -25.3242286213       25.1559256574      -16.6539929163  MEMB      154             0.0000000000
     17690       154  SAPI      H4S           -24.3815247958       24.3800944556      -15.3280612355  MEMB      154             0.0000000000
     17691       154  SAPI      C25           -26.5703337771       24.0889711770      -15.3027635455  MEMB      154             0.0000000000
     17692       154  SAPI      H5R           -27.3961896701       23.7107367981      -15.9263312776  MEMB      154             0.0000000000
     17693       154  SAPI      C26           -26.8253782484       24.4230504964      -14.0266049856  MEMB      154             0.0000000000
     17694       154  SAPI      H6R           -27.8554013307       24.2945373936      -13.6493202741  MEMB      154             0.0000000000
     17695       154  SAPI      C27           -25.8355960413       25.0263740780      -13.0560294559  MEMB      154             0.0000000000
     17696       154  SAPI      H7R           -25.3353552496       25.9301294446      -13.4660985108  MEMB      154             0.0000000000
     17697       154  SAPI      H7S           -25.0299987722       24.2845159028      -12.8516643416  MEMB      154             0.0000000000
     17698       154  SAPI      C28           -26.5387262730       25.4655846198      -11.8024917272  MEMB      154             0.0000000000
     17699       154  SAPI      H8R           -27.4443238392       26.0718097595      -11.9578791921  MEMB      154             0.0000000000
     17700       154  SAPI      C29           -26.0593524592       25.3707401579      -10.5553617390  MEMB      154             0.0000000000
     17701       154  SAPI      H9R           -26.7185019185       25.6798958849       -9.7350229587  MEMB      154             0.0000000000
     17702       154  SAPI      C210          -24.7212133330       24.8093312425      -10.1488324224  MEMB      154             0.0000000000
     17703       154  SAPI      H10R          -24.4570653651       23.9583093353      -10.8155483748  MEMB      154             0.0000000000
     17704       154  SAPI      H10S          -24.7901602736       24.3779734595       -9.1277562800  MEMB      154             0.0000000000
     17705       154  SAPI      C211          -23.6323990397       25.8572898234      -10.2206125105  MEMB      154             0.0000000000
     17706       154  SAPI      H11R          -23.4480171189       26.2558576745      -11.2317312716  MEMB      154             0.0000000000
     17707       154  SAPI      C212          -22.9465299931       26.3822483344       -9.1821971519  MEMB      154             0.0000000000
     17708       154  SAPI      H12R          -22.1320033386       27.0949756648       -9.3914280295  MEMB      154             0.0000000000
     17709       154  SAPI      C213          -23.1094060231       26.0450693946       -7.7170441871  MEMB      154             0.0000000000
     17710       154  SAPI      H13R          -24.1828031852       25.9597875569       -7.4377004801  MEMB      154             0.0000000000
     17711       154  SAPI      H13S          -22.7098559436       26.8916149743       -7.1202983413  MEMB      154             0.0000000000
     17712       154  SAPI      C214          -22.4072197201       24.7692425941       -7.3421103734  MEMB      154             0.0000000000
     17713       154  SAPI      H14R          -23.0549969593       23.8765768621       -7.3148369881  MEMB      154             0.0000000000
     17714       154  SAPI      C215          -21.1177204762       24.6668055562       -6.9707256978  MEMB      154             0.0000000000
     17715       154  SAPI      H15R          -20.6953674305       23.6565913646       -6.8722163015  MEMB      154             0.0000000000
     17716       154  SAPI      C216          -20.1214635998       25.8008270936       -6.8524290891  MEMB      154             0.0000000000
     17717       154  SAPI      H16R          -20.5318727402       26.7774960778       -7.1915914367  MEMB      154             0.0000000000
     17718       154  SAPI      H16S          -19.2490415996       25.5864059138       -7.5133352061  MEMB      154             0.0000000000
     17719       154  SAPI      C217          -19.5831525448       26.0089194952       -5.4166375700  MEMB      154             0.0000000000
     17720       154  SAPI      H17R          -18.8785519824       26.8707599550       -5.4231656029  MEMB      154             0.0000000000
     17721       154  SAPI      H17S          -18.9682235839       25.1104855315       -5.1689879449  MEMB      154             0.0000000000
     17722       154  SAPI      C218          -20.6244236476       26.2437347880       -4.2821373249  MEMB      154             0.0000000000
     17723       154  SAPI      H18R          -20.0373114511       26.2929863619       -3.3374628479  MEMB      154             0.0000000000
     17724       154  SAPI      H18S          -21.3199532904       25.3800907506       -4.2261730712  MEMB      154             0.0000000000
     17725       154  SAPI      C219          -21.4957338804       27.5206109187       -4.3333325038  MEMB      154             0.0000000000
     17726       154  SAPI      H19R          -22.1144397764       27.4971099932       -5.2507141037  MEMB      154             0.0000000000
     17727       154  SAPI      H19S          -20.8108443076       28.3773020177       -4.4405128779  MEMB      154             0.0000000000
     17728       154  SAPI      C220          -22.4110600007       27.7786983835       -3.1108075752  MEMB      154             0.0000000000
     17729       154  SAPI      H20R          -23.1182999569       28.6178490557       -3.3022293091  MEMB      154             0.0000000000
     17730       154  SAPI      H20S          -21.8213210201       28.0796529892       -2.2176621289  MEMB      154             0.0000000000
     17731       154  SAPI      H20T          -23.0017933521       26.8770935956       -2.8522830408  MEMB      154             0.0000000000
     17732       154  SAPI      C33           -19.5964024405       24.2020531545      -15.3201100734  MEMB      154             0.0000000000
     17733       154  SAPI      H3X           -19.0662046010       25.1781111733      -15.2762422922  MEMB      154             0.0000000000
     17734       154  SAPI      H3Y           -19.0098594316       23.4828329877      -14.7083039423  MEMB      154             0.0000000000
     17735       154  SAPI      C34           -21.0096042117       24.3671559542      -14.7227969218  MEMB      154             0.0000000000
     17736       154  SAPI      H4X           -21.6490122037       23.4970550161      -15.0024440297  MEMB      154             0.0000000000
     17737       154  SAPI      H4Y           -21.4829601026       25.2651693289      -15.1773070590  MEMB      154             0.0000000000
     17738       154  SAPI      C35           -21.0890472747       24.4651737273      -13.1851549488  MEMB      154             0.0000000000
     17739       154  SAPI      H5X           -22.1530858171       24.2754386045      -12.9055684783  MEMB      154             0.0000000000
     17740       154  SAPI      H5Y           -20.8401933825       25.4915001700      -12.8406317551  MEMB      154             0.0000000000
     17741       154  SAPI      C36           -20.1758961773       23.5142737423      -12.3946307102  MEMB      154             0.0000000000
     17742       154  SAPI      H6X           -19.1233279864       23.8631832349      -12.5063927015  MEMB      154             0.0000000000
     17743       154  SAPI      H6Y           -20.2400574837       22.4655905034      -12.7631811953  MEMB      154             0.0000000000
     17744       154  SAPI      C37           -20.5218087010       23.5545118499      -10.9042640598  MEMB      154             0.0000000000
     17745       154  SAPI      H7X           -21.5395084277       23.1242138744      -10.7635134932  MEMB      154             0.0000000000
     17746       154  SAPI      H7Y           -20.5781800793       24.6204339398      -10.5975922712  MEMB      154             0.0000000000
     17747       154  SAPI      C38           -19.4923694649       22.8444366126      -10.0251080156  MEMB      154             0.0000000000
     17748       154  SAPI      H8X           -19.1702557053       23.5200141154       -9.1970336083  MEMB      154             0.0000000000
     17749       154  SAPI      H8Y           -18.5799972312       22.5601261621      -10.5944046132  MEMB      154             0.0000000000
     17750       154  SAPI      C39           -20.0702395221       21.6615769498       -9.2643946113  MEMB      154             0.0000000000
     17751       154  SAPI      H9X           -20.8564505313       22.0558620584       -8.5869716567  MEMB      154             0.0000000000
     17752       154  SAPI      H9Y           -19.2465265490       21.3710549977       -8.6116649886  MEMB      154             0.0000000000
     17753       154  SAPI      C310          -20.7821801605       20.5811766259      -10.0802539592  MEMB      154             0.0000000000
     17754       154  SAPI      H10X          -20.2345784213       19.8470830924      -10.6299187577  MEMB      154             0.0000000000
     17755       154  SAPI      H10Y          -21.2295312603       21.0284289000      -10.9767076461  MEMB      154             0.0000000000
     17756       154  SAPI      C311          -21.7330488455       19.7418680258       -9.2430676987  MEMB      154             0.0000000000
     17757       154  SAPI      H11X          -21.2693259427       19.5013719210       -8.2589131117  MEMB      154             0.0000000000
     17758       154  SAPI      H11Y          -21.8818520375       18.7714434152       -9.7705020617  MEMB      154             0.0000000000
     17759       154  SAPI      C312          -23.0824717992       20.4385736023       -9.1265237362  MEMB      154             0.0000000000
     17760       154  SAPI      H12X          -23.4230357522       20.6547792331      -10.1666099772  MEMB      154             0.0000000000
     17761       154  SAPI      H12Y          -22.9684922920       21.4230346078       -8.6253681556  MEMB      154             0.0000000000
     17762       154  SAPI      C313          -24.1040998823       19.5755235044       -8.3797190189  MEMB      154             0.0000000000
     17763       154  SAPI      H13X          -24.2390318440       18.6492442870       -8.9872370656  MEMB      154             0.0000000000
     17764       154  SAPI      H13Y          -25.0756184403       20.1146865219       -8.3304801828  MEMB      154             0.0000000000
     17765       154  SAPI      C314          -23.6523927431       19.1732744693       -6.9578519097  MEMB      154             0.0000000000
     17766       154  SAPI      H14X          -22.6497203296       18.7063794299       -7.0380103595  MEMB      154             0.0000000000
     17767       154  SAPI      H14Y          -24.3118093102       18.3699822843       -6.5658759204  MEMB      154             0.0000000000
     17768       154  SAPI      C315          -23.5819167497       20.3594652227       -5.9676168102  MEMB      154             0.0000000000
     17769       154  SAPI      H15X          -24.6011286564       20.7497362641       -5.7734943972  MEMB      154             0.0000000000
     17770       154  SAPI      H15Y          -23.0108191405       21.1841535136       -6.4519360429  MEMB      154             0.0000000000
     17771       154  SAPI      C316          -22.8907892681       20.0435499678       -4.6274043954  MEMB      154             0.0000000000
     17772       154  SAPI      H16X          -22.0545032198       19.3342336288       -4.8336334523  MEMB      154             0.0000000000
     17773       154  SAPI      H16Y          -23.5804097554       19.5691354968       -3.8930023568  MEMB      154             0.0000000000
     17774       154  SAPI      C317          -22.3113827387       21.2797368934       -3.9332594504  MEMB      154             0.0000000000
     17775       154  SAPI      H17X          -23.1138738592       21.8898719421       -3.4687758261  MEMB      154             0.0000000000
     17776       154  SAPI      H17Y          -21.7433231600       21.8934930826       -4.6695082535  MEMB      154             0.0000000000
     17777       154  SAPI      C318          -21.3693742597       20.8816270299       -2.8399978242  MEMB      154             0.0000000000
     17778       154  SAPI      H18X          -21.8636678365       20.2917186198       -2.0324698920  MEMB      154             0.0000000000
     17779       154  SAPI      H18Y          -20.8662469722       21.7508115726       -2.3566402024  MEMB      154             0.0000000000
     17780       154  SAPI      H18Z          -20.5879450581       20.2337503347       -3.2896513472  MEMB      154             0.0000000000
     17781       155  CHL1      C3             31.4308339963       -8.8118005280      -17.3187131248  MEMB      155             0.0000000000
     17782       155  CHL1      H3             30.6492812438       -8.0914784024      -17.0046132092  MEMB      155             0.0000000000
     17783       155  CHL1      O3             31.3835752133       -8.8959264405      -18.7274075885  MEMB      155             0.0000000000
     17784       155  CHL1      H3'            31.8969973588       -8.1206764624      -18.9906267271  MEMB      155             0.0000000000
     17785       155  CHL1      C4             32.8401837423       -8.3187946687      -16.9381431468  MEMB      155             0.0000000000
     17786       155  CHL1      H4A            33.5811051792       -9.0334323085      -17.3524951504  MEMB      155             0.0000000000
     17787       155  CHL1      H4B            33.0388425298       -7.3555224178      -17.4638344936  MEMB      155             0.0000000000
     17788       155  CHL1      C5             32.9810495256       -8.2238967750      -15.4318396468  MEMB      155             0.0000000000
     17789       155  CHL1      C6             33.2978442585       -7.0836850090      -14.7964924632  MEMB      155             0.0000000000
     17790       155  CHL1      H6             33.5346255501       -6.1825625821      -15.3733715195  MEMB      155             0.0000000000
     17791       155  CHL1      C7             33.3982026735       -6.9463660193      -13.3097870501  MEMB      155             0.0000000000
     17792       155  CHL1      H7A            34.2402389778       -6.2799172281      -13.0364793672  MEMB      155             0.0000000000
     17793       155  CHL1      H7B            32.4578619086       -6.5092819055      -12.8990454383  MEMB      155             0.0000000000
     17794       155  CHL1      C8             33.5688358762       -8.3340765488      -12.6832954321  MEMB      155             0.0000000000
     17795       155  CHL1      H8             34.5718026672       -8.7419198181      -12.9562296572  MEMB      155             0.0000000000
     17796       155  CHL1      C14            33.3851345737       -8.2600974388      -11.2122051180  MEMB      155             0.0000000000
     17797       155  CHL1      H14            32.3583269256       -7.8793183366      -10.9893104829  MEMB      155             0.0000000000
     17798       155  CHL1      C15            34.2781419092       -7.3399040078      -10.5005612735  MEMB      155             0.0000000000
     17799       155  CHL1      H15A           35.3334327796       -7.3828823958      -10.7599412704  MEMB      155             0.0000000000
     17800       155  CHL1      H15B           34.1050424398       -6.3269213154      -10.7507920138  MEMB      155             0.0000000000
     17801       155  CHL1      C16            33.8919874466       -7.8052048944       -9.0874593670  MEMB      155             0.0000000000
     17802       155  CHL1      H16A           34.6920299341       -7.6043206030       -8.4244416673  MEMB      155             0.0000000000
     17803       155  CHL1      H16B           33.0749554505       -7.2114855757       -8.6787648730  MEMB      155             0.0000000000
     17804       155  CHL1      C17            33.2762540454       -9.1855351309       -9.0701323262  MEMB      155             0.0000000000
     17805       155  CHL1      H17            32.2341802513       -8.9568827371       -8.7853062307  MEMB      155             0.0000000000
     17806       155  CHL1      C13            33.4447031506       -9.5524149600      -10.4381720638  MEMB      155             0.0000000000
     17807       155  CHL1      C18            34.7383001911      -10.1426262303      -10.6044843560  MEMB      155             0.0000000000
     17808       155  CHL1      H18A           35.1704848190       -9.3584492604      -10.1090729657  MEMB      155             0.0000000000
     17809       155  CHL1      H18B           35.2408845578      -10.8850010823       -9.9714174390  MEMB      155             0.0000000000
     17810       155  CHL1      H18C           35.2162070568      -10.0941666866      -11.5945965357  MEMB      155             0.0000000000
     17811       155  CHL1      C12            32.3936495646      -10.3619615876      -10.7810871963  MEMB      155             0.0000000000
     17812       155  CHL1      H12A           32.3503958809      -11.2327478714      -10.1126217620  MEMB      155             0.0000000000
     17813       155  CHL1      H12B           31.5522210116       -9.7579222561      -10.4001463001  MEMB      155             0.0000000000
     17814       155  CHL1      C11            32.4908618029      -10.5082435592      -12.2901532966  MEMB      155             0.0000000000
     17815       155  CHL1      H11A           33.4379993496      -10.8466513617      -12.6080627263  MEMB      155             0.0000000000
     17816       155  CHL1      H11B           31.8932004805      -11.3146227640      -12.5971949266  MEMB      155             0.0000000000
     17817       155  CHL1      C9             32.4904570043       -9.2592004569      -13.1628199921  MEMB      155             0.0000000000
     17818       155  CHL1      H9             31.5038792850       -8.7966511534      -12.9516063886  MEMB      155             0.0000000000
     17819       155  CHL1      C10            32.6081957209       -9.5153942852      -14.6816251084  MEMB      155             0.0000000000
     17820       155  CHL1      C19            33.6190047443      -10.6462260332      -15.0194095022  MEMB      155             0.0000000000
     17821       155  CHL1      H19A           33.9861226932      -10.5798962298      -16.0616360151  MEMB      155             0.0000000000
     17822       155  CHL1      H19B           34.4858429198      -10.6515537238      -14.3327025118  MEMB      155             0.0000000000
     17823       155  CHL1      H19C           33.0941374158      -11.6279437156      -14.9374118816  MEMB      155             0.0000000000
     17824       155  CHL1      C1             31.2283243464      -10.0159204134      -15.1346342900  MEMB      155             0.0000000000
     17825       155  CHL1      H1A            31.0538484882      -10.9966237399      -14.6517600812  MEMB      155             0.0000000000
     17826       155  CHL1      H1B            30.4774700140       -9.3014927306      -14.7444329001  MEMB      155             0.0000000000
     17827       155  CHL1      C2             31.0940858490      -10.1502146234      -16.6544945880  MEMB      155             0.0000000000
     17828       155  CHL1      H2A            30.0599477131      -10.4593465996      -16.9094849263  MEMB      155             0.0000000000
     17829       155  CHL1      H2B            31.7949129790      -10.9223691899      -17.0367024041  MEMB      155             0.0000000000
     17830       155  CHL1      C20            33.6684328025      -10.1093572117       -8.0246870286  MEMB      155             0.0000000000
     17831       155  CHL1      H20            34.6804140859      -10.6169716652       -8.2020807016  MEMB      155             0.0000000000
     17832       155  CHL1      C21            33.1110083493      -11.4289216888       -7.6299609253  MEMB      155             0.0000000000
     17833       155  CHL1      H21A           32.0553628626      -11.3011122257       -7.4031984697  MEMB      155             0.0000000000
     17834       155  CHL1      H21B           33.6983404297      -11.7673999053       -6.7708676487  MEMB      155             0.0000000000
     17835       155  CHL1      H21C           33.4570266709      -12.1911536980       -8.3223944050  MEMB      155             0.0000000000
     17836       155  CHL1      C22            33.5525700107       -9.1313286735       -6.8896008423  MEMB      155             0.0000000000
     17837       155  CHL1      H22A           34.2183664307       -9.8829217228       -6.6613774719  MEMB      155             0.0000000000
     17838       155  CHL1      H22B           34.1934063814       -8.3614994592       -6.6562305270  MEMB      155             0.0000000000
     17839       155  CHL1      C23            32.3680662289       -8.7076165401       -6.0728956736  MEMB      155             0.0000000000
     17840       155  CHL1      H23A           31.9961798488       -7.8156969498       -6.5785082216  MEMB      155             0.0000000000
     17841       155  CHL1      H23B           31.6411353397       -9.5067048373       -6.1755725093  MEMB      155             0.0000000000
     17842       155  CHL1      C24            32.4534263254       -8.4069863060       -4.5654215669  MEMB      155             0.0000000000
     17843       155  CHL1      H24A           32.8415718672       -9.3201926854       -4.3237624359  MEMB      155             0.0000000000
     17844       155  CHL1      H24B           33.1698023713       -8.0252091292       -3.8314272057  MEMB      155             0.0000000000
     17845       155  CHL1      C25            31.2021103472       -7.8721131867       -3.9935755878  MEMB      155             0.0000000000
     17846       155  CHL1      H25            31.2056964712       -6.7838702672       -4.2100306758  MEMB      155             0.0000000000
     17847       155  CHL1      C26            29.9938834254       -8.2659844036       -4.7097711996  MEMB      155             0.0000000000
     17848       155  CHL1      H26A           29.1333594580       -7.7963790302       -4.1724144738  MEMB      155             0.0000000000
     17849       155  CHL1      H26B           29.9799338194       -8.0850571230       -5.7882499384  MEMB      155             0.0000000000
     17850       155  CHL1      H26C           30.2056551274       -9.3296669811       -4.5876313395  MEMB      155             0.0000000000
     17851       155  CHL1      C27            31.0401211797       -8.2312835896       -2.5127413183  MEMB      155             0.0000000000
     17852       155  CHL1      H27A           31.2525767212       -9.2334844561       -2.1633332981  MEMB      155             0.0000000000
     17853       155  CHL1      H27B           31.6944733685       -7.6559374902       -1.8676626242  MEMB      155             0.0000000000
     17854       155  CHL1      H27C           30.0011784333       -7.9624957590       -2.2405910009  MEMB      155             0.0000000000
     17855       156  SAPI      C12            -5.7297745954      -31.1800700393      -24.0963348542  MEMB      156             0.0000000000
     17856       156  SAPI      H2             -4.7762525227      -30.8538799008      -23.6006057654  MEMB      156             0.0000000000
     17857       156  SAPI      O2             -6.6611560134      -30.0941065903      -23.9445329578  MEMB      156             0.0000000000
     17858       156  SAPI      HO2            -6.1685867181      -29.2926559455      -24.1350199473  MEMB      156             0.0000000000
     17859       156  SAPI      C13            -5.4524906036      -31.4233198390      -25.5642714110  MEMB      156             0.0000000000
     17860       156  SAPI      H3             -4.6582428550      -32.2031490783      -25.6418029770  MEMB      156             0.0000000000
     17861       156  SAPI      O3             -4.9479351745      -30.2520134924      -26.1939026778  MEMB      156             0.0000000000
     17862       156  SAPI      HO3            -5.4773107218      -29.4986983214      -25.9040998403  MEMB      156             0.0000000000
     17863       156  SAPI      C14            -6.7202859118      -31.9268050216      -26.2497168993  MEMB      156             0.0000000000
     17864       156  SAPI      H4             -7.4982777918      -31.1398210406      -26.0910289448  MEMB      156             0.0000000000
     17865       156  SAPI      O4             -6.5750915642      -32.0709929930      -27.6745465207  MEMB      156             0.0000000000
     17866       156  SAPI      HO4            -7.2520412003      -31.5142937786      -28.0601288868  MEMB      156             0.0000000000
     17867       156  SAPI      C15            -7.2242469911      -33.2038412008      -25.6123066398  MEMB      156             0.0000000000
     17868       156  SAPI      H5             -6.4636696060      -34.0115705660      -25.7178266774  MEMB      156             0.0000000000
     17869       156  SAPI      O5             -8.3986568570      -33.6204753106      -26.2976688000  MEMB      156             0.0000000000
     17870       156  SAPI      HO5            -8.1351228478      -33.9172614864      -27.1667438593  MEMB      156             0.0000000000
     17871       156  SAPI      C16            -7.4828913733      -33.0064225719      -24.1396009942  MEMB      156             0.0000000000
     17872       156  SAPI      H6             -8.2819862759      -32.2427362159      -23.9850417786  MEMB      156             0.0000000000
     17873       156  SAPI      O6             -7.9238847815      -34.2315794954      -23.5378418646  MEMB      156             0.0000000000
     17874       156  SAPI      HO6            -7.2831019883      -34.9388136250      -23.6784536612  MEMB      156             0.0000000000
     17875       156  SAPI      C11            -6.2047739446      -32.5109728618      -23.5166174117  MEMB      156             0.0000000000
     17876       156  SAPI      H1             -5.4021638979      -33.2843720337      -23.6918133451  MEMB      156             0.0000000000
     17877       156  SAPI      P              -5.3728130389      -32.8212286287      -21.1061314582  MEMB      156             0.0000000000
     17878       156  SAPI      O13            -4.2219921966      -31.9566622916      -21.3728757991  MEMB      156             0.0000000000
     17879       156  SAPI      O14            -5.1158927466      -34.2598340578      -21.0819106037  MEMB      156             0.0000000000
     17880       156  SAPI      O12            -6.5119999908      -32.3301944934      -22.1520423746  MEMB      156             0.0000000000
     17881       156  SAPI      O11            -6.0532962568      -32.3883221921      -19.7739643516  MEMB      156             0.0000000000
     17882       156  SAPI      C1             -7.3478498779      -31.9551179622      -19.6956468826  MEMB      156             0.0000000000
     17883       156  SAPI      HA             -7.5117614939      -30.9990283377      -20.2826160519  MEMB      156             0.0000000000
     17884       156  SAPI      HB             -8.1007776765      -32.7042065417      -20.0503302330  MEMB      156             0.0000000000
     17885       156  SAPI      C2             -7.7937477786      -31.6985621362      -18.2812368549  MEMB      156             0.0000000000
     17886       156  SAPI      HS             -8.5496916540      -31.1445367017      -18.7434958968  MEMB      156             0.0000000000
     17887       156  SAPI      O21            -6.9785766593      -30.9532489756      -17.4360745240  MEMB      156             0.0000000000
     17888       156  SAPI      C21            -7.2588628670      -30.6361880837      -16.2252220060  MEMB      156             0.0000000000
     17889       156  SAPI      O22            -8.2509647102      -30.7132297671      -15.5358875919  MEMB      156             0.0000000000
     17890       156  SAPI      C22            -6.1428803425      -30.1245491577      -15.6311630096  MEMB      156             0.0000000000
     17891       156  SAPI      H2R            -5.6050492891      -30.9573205318      -15.2579735347  MEMB      156             0.0000000000
     17892       156  SAPI      H2S            -5.5616099254      -29.4918705278      -16.3021114962  MEMB      156             0.0000000000
     17893       156  SAPI      C3             -8.2071825165      -32.9035484199      -17.4412817414  MEMB      156             0.0000000000
     17894       156  SAPI      HX             -9.0960038707      -33.1948859762      -18.0493840548  MEMB      156             0.0000000000
     17895       156  SAPI      HY             -8.5530751741      -32.7610049913      -16.4114827835  MEMB      156             0.0000000000
     17896       156  SAPI      O31            -7.3362494049      -33.7215695416      -17.4001544004  MEMB      156             0.0000000000
     17897       156  SAPI      C31            -7.9011245103      -34.8113920152      -18.1109266225  MEMB      156             0.0000000000
     17898       156  SAPI      O32            -9.0756847506      -35.1777655227      -17.9321343962  MEMB      156             0.0000000000
     17899       156  SAPI      C32            -6.9171388386      -35.3025538060      -19.0335180058  MEMB      156             0.0000000000
     17900       156  SAPI      H2X            -5.9872115046      -34.5955647496      -18.9512239643  MEMB      156             0.0000000000
     17901       156  SAPI      H2Y            -7.3827684836      -36.0828973189      -19.7091511564  MEMB      156             0.0000000000
     17902       156  SAPI      C23            -6.5855969123      -29.8283289072      -14.2667765954  MEMB      156             0.0000000000
     17903       156  SAPI      H3R            -7.3604611195      -30.2801559875      -13.6369053134  MEMB      156             0.0000000000
     17904       156  SAPI      H3S            -7.2860018890      -29.0376742563      -14.6978711037  MEMB      156             0.0000000000
     17905       156  SAPI      C24            -5.3660257997      -29.7252420739      -13.2743244232  MEMB      156             0.0000000000
     17906       156  SAPI      H4R            -5.8805439598      -29.4642686516      -12.3285863778  MEMB      156             0.0000000000
     17907       156  SAPI      H4S            -4.6212910375      -28.9619426154      -13.5426890506  MEMB      156             0.0000000000
     17908       156  SAPI      C25            -4.4365592797      -30.7382624415      -12.7904555865  MEMB      156             0.0000000000
     17909       156  SAPI      H5R            -5.3052455585      -31.2207068464      -12.3756401907  MEMB      156             0.0000000000
     17910       156  SAPI      C26            -3.8063045256      -30.7628366224      -11.6414649186  MEMB      156             0.0000000000
     17911       156  SAPI      H6R            -3.3649272850      -31.7060678342      -11.3780073729  MEMB      156             0.0000000000
     17912       156  SAPI      C27            -3.9147326439      -29.8206454735      -10.5074474127  MEMB      156             0.0000000000
     17913       156  SAPI      H7R            -3.9568456662      -28.8185918319      -10.8044046492  MEMB      156             0.0000000000
     17914       156  SAPI      H7S            -2.9147188903      -29.7931770375      -10.0589716281  MEMB      156             0.0000000000
     17915       156  SAPI      C28            -5.0146929657      -30.0584089460       -9.4982296895  MEMB      156             0.0000000000
     17916       156  SAPI      H8R            -5.7681111665      -29.2811326373       -9.2897794068  MEMB      156             0.0000000000
     17917       156  SAPI      C29            -4.9668615705      -31.0241611657       -8.5971919454  MEMB      156             0.0000000000
     17918       156  SAPI      H9R            -5.7698842902      -31.0965542322       -7.8458206615  MEMB      156             0.0000000000
     17919       156  SAPI      C210           -3.8973932655      -32.0449565931       -8.3894055825  MEMB      156             0.0000000000
     17920       156  SAPI      H10R           -3.7587196542      -32.0927533968       -7.2978485750  MEMB      156             0.0000000000
     17921       156  SAPI      H10S           -2.9028852838      -31.8882945970       -8.8696912540  MEMB      156             0.0000000000
     17922       156  SAPI      C211           -4.7769023963      -33.1097901768       -8.9436262583  MEMB      156             0.0000000000
     17923       156  SAPI      H11R           -4.3839902242      -33.5829207189       -9.8701684428  MEMB      156             0.0000000000
     17924       156  SAPI      C212           -5.5571519284      -33.8188297814       -8.1064638105  MEMB      156             0.0000000000
     17925       156  SAPI      H12R           -6.0296388054      -34.7617556798       -8.4578257839  MEMB      156             0.0000000000
     17926       156  SAPI      C213           -5.5720967596      -33.6776354759       -6.6203266520  MEMB      156             0.0000000000
     17927       156  SAPI      H13R           -6.4152486061      -34.3177206587       -6.2656461750  MEMB      156             0.0000000000
     17928       156  SAPI      H13S           -5.4153884941      -32.7157964991       -6.1530288794  MEMB      156             0.0000000000
     17929       156  SAPI      C214           -4.6230459484      -34.4713991963       -5.9222585351  MEMB      156             0.0000000000
     17930       156  SAPI      H14R           -4.5673254387      -35.2075677534       -6.6489487661  MEMB      156             0.0000000000
     17931       156  SAPI      C215           -3.6748097398      -34.5221874758       -5.0111545049  MEMB      156             0.0000000000
     17932       156  SAPI      H15R           -3.0110478849      -35.3706560796       -4.6586409766  MEMB      156             0.0000000000
     17933       156  SAPI      C216           -3.4181779547      -33.3824527331       -4.4047003242  MEMB      156             0.0000000000
     17934       156  SAPI      H16R           -3.4841218718      -32.5880482780       -5.1827676939  MEMB      156             0.0000000000
     17935       156  SAPI      H16S           -2.4159088585      -33.7517372323       -4.1953670519  MEMB      156             0.0000000000
     17936       156  SAPI      C217           -3.8873645473      -32.9412134292       -3.2102771208  MEMB      156             0.0000000000
     17937       156  SAPI      H17R           -4.9329093962      -33.0314929356       -3.3398534631  MEMB      156             0.0000000000
     17938       156  SAPI      H17S           -3.6776938878      -31.8531033907       -3.2701784947  MEMB      156             0.0000000000
     17939       156  SAPI      C218           -3.3114697923      -33.8278574638       -2.1455829425  MEMB      156             0.0000000000
     17940       156  SAPI      H18R           -2.3304742303      -33.7230563407       -1.6787844347  MEMB      156             0.0000000000
     17941       156  SAPI      H18S           -2.6692056739      -34.6163909523       -2.5404481759  MEMB      156             0.0000000000
     17942       156  SAPI      C219           -4.3847694486      -33.6591194208       -1.0949229216  MEMB      156             0.0000000000
     17943       156  SAPI      H19R           -4.9189887436      -34.5919132492       -1.2882474503  MEMB      156             0.0000000000
     17944       156  SAPI      H19S           -5.0046638116      -32.7718805047       -1.3246380099  MEMB      156             0.0000000000
     17945       156  SAPI      C220           -4.1287324360      -33.3811616699        0.3734727519  MEMB      156             0.0000000000
     17946       156  SAPI      H20R           -3.4702168628      -32.6126999167        0.8265394489  MEMB      156             0.0000000000
     17947       156  SAPI      H20S           -3.3637479842      -34.0737218235        0.4356241564  MEMB      156             0.0000000000
     17948       156  SAPI      H20T           -4.9778242582      -33.6749887346        0.9931794132  MEMB      156             0.0000000000
     17949       156  SAPI      C33            -6.9357893852      -36.0031528779      -17.9761223230  MEMB      156             0.0000000000
     17950       156  SAPI      H3X            -5.8949665541      -36.2189117304      -18.4876674538  MEMB      156             0.0000000000
     17951       156  SAPI      H3Y            -7.9585592836      -36.7849525608      -17.7890717788  MEMB      156             0.0000000000
     17952       156  SAPI      C34            -5.8458947783      -35.8691841527      -16.9495682837  MEMB      156             0.0000000000
     17953       156  SAPI      H4X            -5.5218095102      -34.9144286688      -17.0209036309  MEMB      156             0.0000000000
     17954       156  SAPI      H4Y            -4.6561192560      -36.4409405738      -17.4676810826  MEMB      156             0.0000000000
     17955       156  SAPI      C35            -6.5640453969      -35.7305938983      -15.0353886594  MEMB      156             0.0000000000
     17956       156  SAPI      H5X            -5.8347898012      -35.5721666248      -14.0835737735  MEMB      156             0.0000000000
     17957       156  SAPI      H5Y            -6.4358024232      -36.5251985481      -14.1838814188  MEMB      156             0.0000000000
     17958       156  SAPI      C36            -7.0729754190      -34.5512501491      -14.1633215719  MEMB      156             0.0000000000
     17959       156  SAPI      H6X            -8.0903255188      -34.8709548490      -14.3937162927  MEMB      156             0.0000000000
     17960       156  SAPI      H6Y            -6.7601524441      -33.5618466547      -14.5167620069  MEMB      156             0.0000000000
     17961       156  SAPI      C37            -7.0882413126      -34.5375796905      -12.5850145371  MEMB      156             0.0000000000
     17962       156  SAPI      H7X            -6.1524137025      -34.4124766039      -11.9794894018  MEMB      156             0.0000000000
     17963       156  SAPI      H7Y            -7.6384823779      -35.4126945345      -12.1623588713  MEMB      156             0.0000000000
     17964       156  SAPI      C38            -7.8549474498      -33.3064601847      -12.3104464212  MEMB      156             0.0000000000
     17965       156  SAPI      H8X            -8.8009228990      -33.2357957992      -12.9202827995  MEMB      156             0.0000000000
     17966       156  SAPI      H8Y            -7.2684066343      -32.3614048022      -12.4801739069  MEMB      156             0.0000000000
     17967       156  SAPI      C39            -8.3200202581      -33.3092248818      -10.9725736273  MEMB      156             0.0000000000
     17968       156  SAPI      H9X            -7.5484441307      -33.4606706665      -10.1317876747  MEMB      156             0.0000000000
     17969       156  SAPI      H9Y            -9.0061679768      -34.1629644183      -10.8125547705  MEMB      156             0.0000000000
     17970       156  SAPI      C310           -8.9057608947      -31.9611447212      -11.2541616786  MEMB      156             0.0000000000
     17971       156  SAPI      H10X           -9.9136041037      -31.7946010456      -11.6293472901  MEMB      156             0.0000000000
     17972       156  SAPI      H10Y           -8.3826787888      -30.9947109277      -11.5648354643  MEMB      156             0.0000000000
     17973       156  SAPI      C311           -8.7501540322      -31.9814197862       -9.9648760741  MEMB      156             0.0000000000
     17974       156  SAPI      H11X           -9.0972074819      -30.7663821312       -9.9457011538  MEMB      156             0.0000000000
     17975       156  SAPI      H11Y           -7.8565954430      -31.3085314792       -9.6629666240  MEMB      156             0.0000000000
     17976       156  SAPI      C312           -9.3888462499      -33.5209721730       -8.4843194026  MEMB      156             0.0000000000
     17977       156  SAPI      H12X           -9.0776778031      -34.4999777892       -8.6231389155  MEMB      156             0.0000000000
     17978       156  SAPI      H12Y          -10.5550611223      -33.8363799817       -8.4250530737  MEMB      156             0.0000000000
     17979       156  SAPI      C313           -9.3354143479      -33.5301390620       -6.5826739651  MEMB      156             0.0000000000
     17980       156  SAPI      H13X          -10.0947729531      -33.5421650001       -5.7948889814  MEMB      156             0.0000000000
     17981       156  SAPI      H13Y          -10.3579219332      -33.1914494245       -6.8340024517  MEMB      156             0.0000000000
     17982       156  SAPI      C314           -8.3013255371      -32.6257703401       -5.3593078738  MEMB      156             0.0000000000
     17983       156  SAPI      H14X           -7.9340506249      -31.5426457900       -5.4678943676  MEMB      156             0.0000000000
     17984       156  SAPI      H14Y           -7.3556091473      -32.8420948154       -5.5943659462  MEMB      156             0.0000000000
     17985       156  SAPI      C315           -8.4728475951      -31.8065625326       -4.0500228430  MEMB      156             0.0000000000
     17986       156  SAPI      H15X           -9.3032907163      -31.0652791655       -3.9235306154  MEMB      156             0.0000000000
     17987       156  SAPI      H15Y           -7.5963421767      -31.1973455061       -3.7017582361  MEMB      156             0.0000000000
     17988       156  SAPI      C316           -8.5237108013      -33.1082156006       -3.4744224286  MEMB      156             0.0000000000
     17989       156  SAPI      H16X           -9.2620620922      -33.7942004593       -4.0080997829  MEMB      156             0.0000000000
     17990       156  SAPI      H16Y           -8.7220547505      -32.8254882137       -2.4481923613  MEMB      156             0.0000000000
     17991       156  SAPI      C317           -7.3751590613      -33.9802100653       -3.4758623276  MEMB      156             0.0000000000
     17992       156  SAPI      H17X           -6.6064207035      -33.2967979556       -3.1792951124  MEMB      156             0.0000000000
     17993       156  SAPI      H17Y           -7.2531154243      -34.5365352853       -4.4413114726  MEMB      156             0.0000000000
     17994       156  SAPI      C318           -7.6724278057      -34.8725712141       -2.3650391672  MEMB      156             0.0000000000
     17995       156  SAPI      H18X           -6.8489007103      -35.5624791388       -2.3258931997  MEMB      156             0.0000000000
     17996       156  SAPI      H18Y           -8.6065431929      -35.4109963722       -2.5333201499  MEMB      156             0.0000000000
     17997       156  SAPI      H18Z           -7.7563372426      -34.4046228272       -1.3711714329  MEMB      156             0.0000000000
     17998       157  SAPE      N              -1.2964479328       33.6479346682      -18.2964695850  MEMB      157             0.0000000000
     17999       157  SAPE      HN1            -1.1416881307       34.5742561598      -18.7528257000  MEMB      157             0.0000000000
     18000       157  SAPE      HN2            -1.6830803653       33.8719589416      -17.3516661486  MEMB      157             0.0000000000
     18001       157  SAPE      HN3            -0.3748306822       33.1884894118      -18.1786699730  MEMB      157             0.0000000000
     18002       157  SAPE      C12            -2.2063267098       32.7825836130      -19.1283990011  MEMB      157             0.0000000000
     18003       157  SAPE      H12A           -2.1437639028       31.7416812920      -18.7528580599  MEMB      157             0.0000000000
     18004       157  SAPE      H12B           -1.8316912808       32.8101295282      -20.1718979598  MEMB      157             0.0000000000
     18005       157  SAPE      C11            -3.6044721070       33.3826440066      -19.1300652443  MEMB      157             0.0000000000
     18006       157  SAPE      H11A           -3.4915929529       34.3661016534      -19.6486255619  MEMB      157             0.0000000000
     18007       157  SAPE      H11B           -3.9652248528       33.5897052118      -18.0928358216  MEMB      157             0.0000000000
     18008       157  SAPE      P              -5.5369643844       33.1669673033      -20.8526702441  MEMB      157             0.0000000000
     18009       157  SAPE      O13            -4.8089779168       34.0532994823      -21.7854558068  MEMB      157             0.0000000000
     18010       157  SAPE      O14            -6.4474377791       32.1543136819      -21.4219753550  MEMB      157             0.0000000000
     18011       157  SAPE      O12            -4.5105178435       32.5173522191      -19.8341217294  MEMB      157             0.0000000000
     18012       157  SAPE      O11            -6.3036333317       34.0085009323      -19.7446567909  MEMB      157             0.0000000000
     18013       157  SAPE      C1             -6.4783284038       33.3154065956      -18.3595650814  MEMB      157             0.0000000000
     18014       157  SAPE      HA             -7.5882504569       33.1265533840      -18.7259958171  MEMB      157             0.0000000000
     18015       157  SAPE      HB             -6.1269515669       32.4152944982      -18.2435248071  MEMB      157             0.0000000000
     18016       157  SAPE      C2             -6.6809559677       34.5365653808      -17.0768896662  MEMB      157             0.0000000000
     18017       157  SAPE      HS             -7.1176903678       34.8800327172      -17.9502443568  MEMB      157             0.0000000000
     18018       157  SAPE      O21            -5.6668043703       35.3507872251      -15.7635997703  MEMB      157             0.0000000000
     18019       157  SAPE      C21            -4.4969830947       36.5135013289      -15.3833549077  MEMB      157             0.0000000000
     18020       157  SAPE      O22            -4.2225269079       37.7095278857      -15.2138687408  MEMB      157             0.0000000000
     18021       157  SAPE      C22            -3.7568866670       35.7283753951      -15.8529553635  MEMB      157             0.0000000000
     18022       157  SAPE      H2R            -4.0117953586       35.0559657862      -16.7423481727  MEMB      157             0.0000000000
     18023       157  SAPE      H2S            -3.2862194890       36.6702783281      -16.3025728821  MEMB      157             0.0000000000
     18024       157  SAPE      C3             -7.0681710674       34.0262858050      -16.1845214940  MEMB      157             0.0000000000
     18025       157  SAPE      HX             -7.7119409221       35.1161704086      -16.1110151847  MEMB      157             0.0000000000
     18026       157  SAPE      HY             -8.0644565417       34.6687698717      -16.6582685745  MEMB      157             0.0000000000
     18027       157  SAPE      O31            -7.0660159202       32.7114266836      -15.8668800463  MEMB      157             0.0000000000
     18028       157  SAPE      C31            -6.1535131438       32.3566921761      -15.1518994225  MEMB      157             0.0000000000
     18029       157  SAPE      O32            -5.2908812797       32.9402267468      -14.5997967181  MEMB      157             0.0000000000
     18030       157  SAPE      C32            -6.4254442172       30.9724788411      -14.9514961076  MEMB      157             0.0000000000
     18031       157  SAPE      H2X            -6.3672477683       30.3530252230      -15.8568776856  MEMB      157             0.0000000000
     18032       157  SAPE      H2Y            -7.4110262947       31.1672354922      -14.6850176276  MEMB      157             0.0000000000
     18033       157  SAPE      C23            -3.9227981740       35.4947271877      -14.3246622337  MEMB      157             0.0000000000
     18034       157  SAPE      H3R            -4.1097025289       34.4667281544      -14.4951025269  MEMB      157             0.0000000000
     18035       157  SAPE      H3S            -4.5839104651       35.8353749157      -13.3886890710  MEMB      157             0.0000000000
     18036       157  SAPE      C24            -2.6166825209       35.9823470988      -14.0525177399  MEMB      157             0.0000000000
     18037       157  SAPE      H4R            -2.7114680616       37.0434082699      -13.7092930938  MEMB      157             0.0000000000
     18038       157  SAPE      H4S            -2.1601764735       36.1932307389      -15.0136598011  MEMB      157             0.0000000000
     18039       157  SAPE      C25            -2.2521811148       34.8800813175      -13.2351065266  MEMB      157             0.0000000000
     18040       157  SAPE      H5R            -1.3540277326       34.3010781149      -13.4636516960  MEMB      157             0.0000000000
     18041       157  SAPE      C26            -2.6244652718       35.1034631517      -12.0070585894  MEMB      157             0.0000000000
     18042       157  SAPE      H6R            -1.8068864967       34.5954594621      -11.4796141274  MEMB      157             0.0000000000
     18043       157  SAPE      C27            -3.3826838810       36.4391854701      -11.4743212478  MEMB      157             0.0000000000
     18044       157  SAPE      H7R            -3.5739933909       37.3473049580      -12.0843528494  MEMB      157             0.0000000000
     18045       157  SAPE      H7S            -2.8832830002       37.2684741202      -10.9106297574  MEMB      157             0.0000000000
     18046       157  SAPE      C28            -4.3968207591       35.8937863955      -10.6335880371  MEMB      157             0.0000000000
     18047       157  SAPE      H8R            -4.7680716182       34.9534033695      -10.9874674933  MEMB      157             0.0000000000
     18048       157  SAPE      C29            -4.5672634990       36.3028441320       -9.4042134657  MEMB      157             0.0000000000
     18049       157  SAPE      H9R            -5.3855927392       35.9521533718       -8.8018855248  MEMB      157             0.0000000000
     18050       157  SAPE      C210           -3.7860892335       37.2012938570       -8.7490385034  MEMB      157             0.0000000000
     18051       157  SAPE      H10R           -4.5294828425       37.8399480835       -8.6896296894  MEMB      157             0.0000000000
     18052       157  SAPE      H10S           -3.1896741710       38.1108296488       -9.2671352072  MEMB      157             0.0000000000
     18053       157  SAPE      C211           -3.0201415604       36.8747039932       -7.4717755934  MEMB      157             0.0000000000
     18054       157  SAPE      H11R           -2.5281014682       37.6589248406       -7.4478798919  MEMB      157             0.0000000000
     18055       157  SAPE      C212           -3.3905788932       36.2095976730       -6.2755539009  MEMB      157             0.0000000000
     18056       157  SAPE      H12R           -2.4985201244       36.4629408513       -5.5369474163  MEMB      157             0.0000000000
     18057       157  SAPE      C213           -4.7412216926       36.4160703138       -5.5324563751  MEMB      157             0.0000000000
     18058       157  SAPE      H13R           -5.6050085835       36.8548584993       -6.0203224096  MEMB      157             0.0000000000
     18059       157  SAPE      H13S           -4.7471580725       36.8925625110       -4.5815746107  MEMB      157             0.0000000000
     18060       157  SAPE      C214           -5.3282325572       35.1085972479       -5.5400001632  MEMB      157             0.0000000000
     18061       157  SAPE      H14R           -5.4388321135       34.7242439806       -6.5468668251  MEMB      157             0.0000000000
     18062       157  SAPE      C215           -5.8522862607       34.7492351680       -4.4100849384  MEMB      157             0.0000000000
     18063       157  SAPE      H15R           -6.3343662592       33.7911621074       -4.4665061220  MEMB      157             0.0000000000
     18064       157  SAPE      C216           -5.9407034334       35.5054978191       -3.0919357858  MEMB      157             0.0000000000
     18065       157  SAPE      H16R           -5.7991413493       36.6016993681       -3.1406986693  MEMB      157             0.0000000000
     18066       157  SAPE      H16S           -5.3376808261       34.9596726248       -2.3929983426  MEMB      157             0.0000000000
     18067       157  SAPE      C217           -7.1503495649       35.4155544982       -2.2466145728  MEMB      157             0.0000000000
     18068       157  SAPE      H17R           -7.2685444429       34.3662482835       -2.2712709964  MEMB      157             0.0000000000
     18069       157  SAPE      H17S           -7.5721746284       36.0956084676       -2.9384696156  MEMB      157             0.0000000000
     18070       157  SAPE      C218           -7.4573094341       35.9229979423       -0.8776406835  MEMB      157             0.0000000000
     18071       157  SAPE      H18R           -7.3459993698       36.9826660341       -0.6758507067  MEMB      157             0.0000000000
     18072       157  SAPE      H18S           -6.6453236327       35.4086487580       -0.3456648630  MEMB      157             0.0000000000
     18073       157  SAPE      C219           -8.9072690689       35.6369292178       -0.4078982143  MEMB      157             0.0000000000
     18074       157  SAPE      H19R           -9.2442282087       34.6501150081       -0.7258105388  MEMB      157             0.0000000000
     18075       157  SAPE      H19S           -9.7173694580       36.3186770322       -0.6535954011  MEMB      157             0.0000000000
     18076       157  SAPE      C220           -8.8805458131       35.5263628659        1.0272190837  MEMB      157             0.0000000000
     18077       157  SAPE      H20R           -9.6666323422       34.8863185318        1.4878869118  MEMB      157             0.0000000000
     18078       157  SAPE      H20S           -8.6636796089       36.4365171492        1.6073372794  MEMB      157             0.0000000000
     18079       157  SAPE      H20T           -7.9535671531       34.9521875609        0.9350625329  MEMB      157             0.0000000000
     18080       157  SAPE      C33            -6.0729585196       30.4714181304      -13.5771792342  MEMB      157             0.0000000000
     18081       157  SAPE      H3X            -6.5524970049       29.4853763296      -13.3975925689  MEMB      157             0.0000000000
     18082       157  SAPE      H3Y            -6.4283082899       31.1726644282      -12.7733240726  MEMB      157             0.0000000000
     18083       157  SAPE      C34            -4.6173964231       30.3324326290      -13.6963116204  MEMB      157             0.0000000000
     18084       157  SAPE      H4X            -4.1713566101       31.2595306985      -14.0862304579  MEMB      157             0.0000000000
     18085       157  SAPE      H4Y            -4.4488966508       29.5732496527      -14.4875446457  MEMB      157             0.0000000000
     18086       157  SAPE      C35            -3.9784398269       29.9988922818      -12.3873109049  MEMB      157             0.0000000000
     18087       157  SAPE      H5X            -2.9584208989       29.7320493140      -12.7326059258  MEMB      157             0.0000000000
     18088       157  SAPE      H5Y            -4.4924901977       29.1104859366      -11.9698111146  MEMB      157             0.0000000000
     18089       157  SAPE      C36            -3.9848793472       31.1551015192      -11.3741561495  MEMB      157             0.0000000000
     18090       157  SAPE      H6X            -4.8979216645       31.1315624642      -10.7396889036  MEMB      157             0.0000000000
     18091       157  SAPE      H6Y            -3.9986096231       32.1180060548      -11.9411673541  MEMB      157             0.0000000000
     18092       157  SAPE      C37            -2.7697627681       31.1423680310      -10.4400155165  MEMB      157             0.0000000000
     18093       157  SAPE      H7X            -1.8790953650       31.3500477120      -11.0770062507  MEMB      157             0.0000000000
     18094       157  SAPE      H7Y            -2.6500286904       30.1455476044       -9.9577996230  MEMB      157             0.0000000000
     18095       157  SAPE      C38            -2.8357254811       32.2270421544       -9.3551707602  MEMB      157             0.0000000000
     18096       157  SAPE      H8X            -3.5812324006       31.9797487521       -8.5649329340  MEMB      157             0.0000000000
     18097       157  SAPE      H8Y            -3.1693921442       33.1607322284       -9.8580322770  MEMB      157             0.0000000000
     18098       157  SAPE      C39            -1.4831025385       32.4756284414       -8.6784689896  MEMB      157             0.0000000000
     18099       157  SAPE      H9X            -1.0719403832       33.4573451640       -8.9933350147  MEMB      157             0.0000000000
     18100       157  SAPE      H9Y            -0.7621937655       31.7120260158       -9.0407485899  MEMB      157             0.0000000000
     18101       157  SAPE      C310           -1.5684300882       32.3890457729       -7.1491226084  MEMB      157             0.0000000000
     18102       157  SAPE      H10X           -0.5491647541       32.4620208261       -6.7216721227  MEMB      157             0.0000000000
     18103       157  SAPE      H10Y           -2.0060290638       31.4110828927       -6.8563891969  MEMB      157             0.0000000000
     18104       157  SAPE      C311           -2.3742696010       33.5097293851       -6.5115553003  MEMB      157             0.0000000000
     18105       157  SAPE      H11X           -3.4469050950       33.4704249919       -6.8012446924  MEMB      157             0.0000000000
     18106       157  SAPE      H11Y           -1.9370971529       34.4666998869       -6.8487950950  MEMB      157             0.0000000000
     18107       157  SAPE      C312           -2.3102384792       33.5047317526       -5.0074926546  MEMB      157             0.0000000000
     18108       157  SAPE      H12X           -2.5270805699       34.5107256341       -4.5941777670  MEMB      157             0.0000000000
     18109       157  SAPE      H12Y           -1.2887397159       33.2307432915       -4.6412022131  MEMB      157             0.0000000000
     18110       157  SAPE      C313           -3.3748511178       32.5897349597       -4.4504166655  MEMB      157             0.0000000000
     18111       157  SAPE      H13X           -3.1740421660       31.5422770966       -4.7992303129  MEMB      157             0.0000000000
     18112       157  SAPE      H13Y           -4.4248905591       32.8173824787       -4.6441285438  MEMB      157             0.0000000000
     18113       157  SAPE      C314           -3.2329543891       32.6772556299       -2.9925531761  MEMB      157             0.0000000000
     18114       157  SAPE      H14X           -3.5605945476       33.4144646107       -2.2656215682  MEMB      157             0.0000000000
     18115       157  SAPE      H14Y           -2.1683381088       32.8085265759       -2.9678208449  MEMB      157             0.0000000000
     18116       157  SAPE      C315           -3.6464302834       31.4235521490       -2.4484667127  MEMB      157             0.0000000000
     18117       157  SAPE      H15X           -3.2913162516       31.5729483517       -1.4011689230  MEMB      157             0.0000000000
     18118       157  SAPE      H15Y           -2.9788033752       30.7195238435       -2.9584919424  MEMB      157             0.0000000000
     18119       157  SAPE      C316           -5.0927847226       31.0742401660       -2.5746947368  MEMB      157             0.0000000000
     18120       157  SAPE      H16X           -5.4888653622       30.2177768263       -2.0324961591  MEMB      157             0.0000000000
     18121       157  SAPE      H16Y           -5.3569364057       30.7935858994       -3.6101647632  MEMB      157             0.0000000000
     18122       157  SAPE      C317           -5.9503527118       32.1588345760       -2.1371733165  MEMB      157             0.0000000000
     18123       157  SAPE      H17X           -6.8997471544       31.5749081734       -2.3324186173  MEMB      157             0.0000000000
     18124       157  SAPE      H17Y           -5.6874007781       33.0303768012       -2.6972227114  MEMB      157             0.0000000000
     18125       157  SAPE      C318           -5.9532261395       32.7207370328       -0.7893222638  MEMB      157             0.0000000000
     18126       157  SAPE      H18X           -6.5069694344       33.5686297265       -0.3883566977  MEMB      157             0.0000000000
     18127       157  SAPE      H18Y           -5.1294162626       32.4043708436       -0.1369713849  MEMB      157             0.0000000000
     18128       157  SAPE      H18Z           -6.8653521960       32.1499708293       -0.6239160708  MEMB      157             0.0000000000
     18129       158  OSM       N              20.5657293565       29.1574971928      -21.2827946058  MEMB      158             0.0000000000
     18130       158  OSM       C15            21.6580188904       30.0020522196      -21.0398422612  MEMB      158             0.0000000000
     18131       158  OSM       H15A           21.7371141404       30.8596327384      -21.6820076140  MEMB      158             0.0000000000
     18132       158  OSM       H15B           22.5758114315       29.4104247426      -21.2506836605  MEMB      158             0.0000000000
     18133       158  OSM       H15C           21.8337978768       30.3034585850      -20.0088479331  MEMB      158             0.0000000000
     18134       158  OSM       C14            19.3887328333       29.9898361092      -20.9606623490  MEMB      158             0.0000000000
     18135       158  OSM       H14A           18.4948596899       29.4027492304      -21.1755282924  MEMB      158             0.0000000000
     18136       158  OSM       H14B           19.3813260786       30.8609579807      -21.5995554405  MEMB      158             0.0000000000
     18137       158  OSM       H14C           19.4089502274       30.3102922531      -19.9287877979  MEMB      158             0.0000000000
     18138       158  OSM       C13            20.6466529631       28.7746279099      -22.7094950260  MEMB      158             0.0000000000
     18139       158  OSM       H13A           21.6779922530       28.7085916653      -23.0390514231  MEMB      158             0.0000000000
     18140       158  OSM       H13B           20.0859471086       29.4931353852      -23.2966924558  MEMB      158             0.0000000000
     18141       158  OSM       H13C           20.1514211903       27.8227822195      -22.8373919413  MEMB      158             0.0000000000
     18142       158  OSM       C12            20.6467337581       27.9845166209      -20.3764868414  MEMB      158             0.0000000000
     18143       158  OSM       H12A           20.3605690945       28.3171295625      -19.3863362538  MEMB      158             0.0000000000
     18144       158  OSM       H12B           21.6681917198       27.6100798310      -20.3462460238  MEMB      158             0.0000000000
     18145       158  OSM       C11            19.7017818591       26.8596924262      -20.7341255655  MEMB      158             0.0000000000
     18146       158  OSM       H11A           19.7979500677       26.1623237512      -19.8697808225  MEMB      158             0.0000000000
     18147       158  OSM       H11B           20.0287708104       26.3781520478      -21.6769486467  MEMB      158             0.0000000000
     18148       158  OSM       P              17.2775306769       26.1878397148      -20.8400119215  MEMB      158             0.0000000000
     18149       158  OSM       O13            15.9639763723       26.7761117664      -21.1399316823  MEMB      158             0.0000000000
     18150       158  OSM       O14            17.7640485484       25.0924756939      -21.6882980214  MEMB      158             0.0000000000
     18151       158  OSM       O11            17.4157311078       25.7313079213      -19.3343187726  MEMB      158             0.0000000000
     18152       158  OSM       O12            18.3743310849       27.3268517810      -20.8903147902  MEMB      158             0.0000000000
     18153       158  OSM       C1S            16.8610993625       26.4720489319      -18.2639698865  MEMB      158             0.0000000000
     18154       158  OSM       H1S            15.7509399765       26.4159688182      -18.3014490472  MEMB      158             0.0000000000
     18155       158  OSM       H1T            17.1613833903       27.5486583836      -18.2895172189  MEMB      158             0.0000000000
     18156       158  OSM       NF             17.0171253943       26.8306274904      -15.8991988684  MEMB      158             0.0000000000
     18157       158  OSM       HNF            17.7905372074       27.3659690727      -15.6001236336  MEMB      158             0.0000000000
     18158       158  OSM       C2S            17.2853037495       25.8532856367      -16.9166195552  MEMB      158             0.0000000000
     18159       158  OSM       H2S            16.6368191845       24.9640454120      -16.7299059751  MEMB      158             0.0000000000
     18160       158  OSM       C3S            18.7804072527       25.4179060347      -16.8953549017  MEMB      158             0.0000000000
     18161       158  OSM       H3S            19.3970722098       26.2638794884      -17.2749782319  MEMB      158             0.0000000000
     18162       158  OSM       O3             19.1185822513       24.2577968956      -17.6550067104  MEMB      158             0.0000000000
     18163       158  OSM       HO3            18.3246112497       24.0500925527      -18.1632607697  MEMB      158             0.0000000000
     18164       158  OSM       C4S            19.1409634138       25.2231082526      -15.4393087616  MEMB      158             0.0000000000
     18165       158  OSM       H4S            19.8228556179       25.9607552007      -14.9921894709  MEMB      158             0.0000000000
     18166       158  OSM       C5S            18.6835258420       24.2249878655      -14.6770785123  MEMB      158             0.0000000000
     18167       158  OSM       H5S            18.2207687676       23.3484533643      -15.1677864476  MEMB      158             0.0000000000
     18168       158  OSM       C6S            19.0458267199       24.0411299779      -13.2423679767  MEMB      158             0.0000000000
     18169       158  OSM       H6S            20.1522859602       23.9464138234      -13.2532214845  MEMB      158             0.0000000000
     18170       158  OSM       H6T            18.4987225877       23.1500374774      -12.8531173029  MEMB      158             0.0000000000
     18171       158  OSM       C7S            19.0625281641       25.0673005617      -12.1367645637  MEMB      158             0.0000000000
     18172       158  OSM       H7S            18.0375449383       25.4727666994      -12.0975068815  MEMB      158             0.0000000000
     18173       158  OSM       H7T            19.8189020740       25.8310390665      -12.4267629775  MEMB      158             0.0000000000
     18174       158  OSM       C8S            19.4290364647       24.4460099310      -10.7749332146  MEMB      158             0.0000000000
     18175       158  OSM       H8S            20.4477931309       23.9989557738      -10.7821841530  MEMB      158             0.0000000000
     18176       158  OSM       H8T            18.7088452800       23.6149459544      -10.5809398570  MEMB      158             0.0000000000
     18177       158  OSM       C9S            19.3666176702       25.5059651890       -9.6671335105  MEMB      158             0.0000000000
     18178       158  OSM       H9S            18.3998201450       26.0272484764       -9.8253357730  MEMB      158             0.0000000000
     18179       158  OSM       H9T            20.1625158145       26.2635915651       -9.8392402234  MEMB      158             0.0000000000
     18180       158  OSM       C10S           19.4694127622       24.9829619287       -8.2133850835  MEMB      158             0.0000000000
     18181       158  OSM       H10S           20.4596751932       25.2993244722       -7.8119102453  MEMB      158             0.0000000000
     18182       158  OSM       H10T           19.4617045964       23.8719418147       -8.2337206606  MEMB      158             0.0000000000
     18183       158  OSM       C11S           18.4116570418       25.5958895539       -7.2535656552  MEMB      158             0.0000000000
     18184       158  OSM       H11S           17.3746335456       25.3245848028       -7.5391019774  MEMB      158             0.0000000000
     18185       158  OSM       H11T           18.5224431602       26.6982363568       -7.3759456503  MEMB      158             0.0000000000
     18186       158  OSM       C12S           18.5641361614       25.2897264719       -5.7398802542  MEMB      158             0.0000000000
     18187       158  OSM       H12S           19.5535704073       25.7001597622       -5.4377407708  MEMB      158             0.0000000000
     18188       158  OSM       H12T           18.5558235294       24.1945732749       -5.5608799332  MEMB      158             0.0000000000
     18189       158  OSM       C13S           17.4500966371       25.9244343077       -4.8627711190  MEMB      158             0.0000000000
     18190       158  OSM       H13S           16.4529865519       25.7428134515       -5.3188600410  MEMB      158             0.0000000000
     18191       158  OSM       H13T           17.5998234415       27.0246035163       -4.8741965024  MEMB      158             0.0000000000
     18192       158  OSM       C14S           17.3445909714       25.4830483095       -3.3790033330  MEMB      158             0.0000000000
     18193       158  OSM       H14S           16.8265740822       24.5138604392       -3.2703256912  MEMB      158             0.0000000000
     18194       158  OSM       H14T           16.7489829429       26.2731849411       -2.8619369316  MEMB      158             0.0000000000
     18195       158  OSM       C15S           18.6467188879       25.3354733090       -2.6288591344  MEMB      158             0.0000000000
     18196       158  OSM       H15S           19.2802468194       24.5493456995       -3.0893877217  MEMB      158             0.0000000000
     18197       158  OSM       H15T           18.4974637816       25.0607116494       -1.5586269566  MEMB      158             0.0000000000
     18198       158  OSM       C16S           19.3813808550       26.6194102017       -2.6789095901  MEMB      158             0.0000000000
     18199       158  OSM       H16S           18.8334136808       27.4392123621       -2.1492471933  MEMB      158             0.0000000000
     18200       158  OSM       H16T           19.6484373111       26.9432203251       -3.7089614910  MEMB      158             0.0000000000
     18201       158  OSM       C17S           20.6876690146       26.4252060674       -2.0771262887  MEMB      158             0.0000000000
     18202       158  OSM       H17S           20.8367551435       26.0059558953       -1.0582735324  MEMB      158             0.0000000000
     18203       158  OSM       H17T           20.6152408223       27.4335520565       -1.7281511672  MEMB      158             0.0000000000
     18204       158  OSM       C18S           21.7806066912       26.1671736505       -3.1476455517  MEMB      158             0.0000000000
     18205       158  OSM       H18S           21.7841751843       25.1889488447       -3.6444238564  MEMB      158             0.0000000000
     18206       158  OSM       H18T           22.6880635117       26.0249548095       -2.5610951887  MEMB      158             0.0000000000
     18207       158  OSM       H18U           22.1068658928       27.0287905801       -3.7554040809  MEMB      158             0.0000000000
     18208       158  OSM       C1F            15.8140718975       27.1272601669      -15.4616439289  MEMB      158             0.0000000000
     18209       158  OSM       OF             14.8231016918       26.5375877991      -15.8688443310  MEMB      158             0.0000000000
     18210       158  OSM       C2F            15.7996381549       28.2307986484      -14.4549167515  MEMB      158             0.0000000000
     18211       158  OSM       H2F            15.7193049735       29.1969094360      -15.0006463232  MEMB      158             0.0000000000
     18212       158  OSM       H2G            16.7161479968       28.1965847184      -13.8361784292  MEMB      158             0.0000000000
     18213       158  OSM       C3F            14.5966128952       28.1352071401      -13.5407138481  MEMB      158             0.0000000000
     18214       158  OSM       H3F            14.5518604789       27.1819537257      -12.9669287933  MEMB      158             0.0000000000
     18215       158  OSM       H3G            13.8036358068       28.2200710123      -14.3094330168  MEMB      158             0.0000000000
     18216       158  OSM       C4F            14.3657604742       29.3238382660      -12.6217490582  MEMB      158             0.0000000000
     18217       158  OSM       H4F            13.3188656996       29.3315270676      -12.2739684351  MEMB      158             0.0000000000
     18218       158  OSM       H4G            14.4767521693       30.2328654362      -13.2517794987  MEMB      158             0.0000000000
     18219       158  OSM       C5F            15.2579848013       29.3267810760      -11.3819294815  MEMB      158             0.0000000000
     18220       158  OSM       H5F            16.2652678032       28.9529201623      -11.6587907408  MEMB      158             0.0000000000
     18221       158  OSM       H5G            14.8591569532       28.6503936150      -10.5904507174  MEMB      158             0.0000000000
     18222       158  OSM       C6F            15.3229153976       30.7339999658      -10.8018256517  MEMB      158             0.0000000000
     18223       158  OSM       H6F            14.3327103818       30.9541865712      -10.3422369724  MEMB      158             0.0000000000
     18224       158  OSM       H6G            15.4744378298       31.4568312385      -11.6382747641  MEMB      158             0.0000000000
     18225       158  OSM       C7F            16.4376464005       30.9654313966       -9.7691961633  MEMB      158             0.0000000000
     18226       158  OSM       H7F            16.3007810957       32.0276871967       -9.4857932700  MEMB      158             0.0000000000
     18227       158  OSM       H7G            17.4282801541       30.8652459178      -10.2667331703  MEMB      158             0.0000000000
     18228       158  OSM       C8F            16.3221916765       30.1457968083       -8.4579440301  MEMB      158             0.0000000000
     18229       158  OSM       H8F            16.0816721147       29.0932591532       -8.6966187310  MEMB      158             0.0000000000
     18230       158  OSM       H8G            15.4408697766       30.5671940756       -7.9202735284  MEMB      158             0.0000000000
     18231       158  OSM       C9F            17.5506607061       30.0410975881       -7.5838702991  MEMB      158             0.0000000000
     18232       158  OSM       H9F            18.4916341271       29.9007854356       -8.1419037656  MEMB      158             0.0000000000
     18233       158  OSM       C10F           17.5965072438       30.0386611344       -6.2326380335  MEMB      158             0.0000000000
     18234       158  OSM       H10F           18.5702189440       29.8831343178       -5.7449952049  MEMB      158             0.0000000000
     18235       158  OSM       C11F           16.4471192417       30.1441330208       -5.2555485799  MEMB      158             0.0000000000
     18236       158  OSM       H11F           15.5694716263       29.5152858987       -5.5415098071  MEMB      158             0.0000000000
     18237       158  OSM       H11G           16.1244192426       31.2079772935       -5.2060237536  MEMB      158             0.0000000000
     18238       158  OSM       C12F           16.8132147819       29.7509878054       -3.8093815322  MEMB      158             0.0000000000
     18239       158  OSM       H12F           17.0588182211       28.6711112331       -3.7418149793  MEMB      158             0.0000000000
     18240       158  OSM       H12G           15.9132931866       29.9270206082       -3.1746008788  MEMB      158             0.0000000000
     18241       158  OSM       C13F           17.9621248321       30.5706514122       -3.2160758442  MEMB      158             0.0000000000
     18242       158  OSM       H13F           18.0733148926       31.5230048026       -3.7772859541  MEMB      158             0.0000000000
     18243       158  OSM       H13G           18.9105524218       29.9922130613       -3.3104043809  MEMB      158             0.0000000000
     18244       158  OSM       C14F           17.7395431127       30.9049217776       -1.7461694523  MEMB      158             0.0000000000
     18245       158  OSM       H14F           16.7068086286       31.2660420973       -1.5456705319  MEMB      158             0.0000000000
     18246       158  OSM       H14G           18.4311454532       31.7392321074       -1.4868071019  MEMB      158             0.0000000000
     18247       158  OSM       C15F           18.1095973296       29.7046104946       -0.8823558848  MEMB      158             0.0000000000
     18248       158  OSM       H15F           19.1797012709       29.4775333044       -1.1137669355  MEMB      158             0.0000000000
     18249       158  OSM       H15G           17.5094088621       28.7998690547       -1.0939362611  MEMB      158             0.0000000000
     18250       158  OSM       C16F           18.0352189751       30.0294109668        0.5786747745  MEMB      158             0.0000000000
     18251       158  OSM       H16F           18.2721455713       29.1282439197        1.1963395796  MEMB      158             0.0000000000
     18252       158  OSM       H16G           17.0586716921       30.4396779836        0.9070028313  MEMB      158             0.0000000000
     18253       158  OSM       C17F           19.0760069710       31.0480435810        0.8659303729  MEMB      158             0.0000000000
     18254       158  OSM       H17F           19.8977881552       31.1155142452        0.1221465221  MEMB      158             0.0000000000
     18255       158  OSM       H17G           19.5464557861       30.4919292999        1.6946038208  MEMB      158             0.0000000000
     18256       158  OSM       C18F           18.4923249872       32.4333766280        1.2047610099  MEMB      158             0.0000000000
     18257       158  OSM       H18F           17.6243559091       32.7354271562        0.6136007923  MEMB      158             0.0000000000
     18258       158  OSM       H18G           19.2883527497       33.1812382577        1.0472245003  MEMB      158             0.0000000000
     18259       158  OSM       H18H           18.1628382956       32.4876052827        2.2680677594  MEMB      158             0.0000000000
     18260       159  OSM       N              14.1382963172      -31.9001727721      -21.9865313915  MEMB      159             0.0000000000
     18261       159  OSM       C15            13.7379257956      -33.2532417039      -21.5036732238  MEMB      159             0.0000000000
     18262       159  OSM       H15A           14.2790011357      -34.0507003852      -22.0087390878  MEMB      159             0.0000000000
     18263       159  OSM       H15B           12.6830093113      -33.4375049191      -21.6727753682  MEMB      159             0.0000000000
     18264       159  OSM       H15C           13.9573437989      -33.3181493127      -20.4489005471  MEMB      159             0.0000000000
     18265       159  OSM       C14            15.6108565608      -31.8405851617      -21.8083350063  MEMB      159             0.0000000000
     18266       159  OSM       H14A           16.0064380914      -30.9227586332      -22.2351301809  MEMB      159             0.0000000000
     18267       159  OSM       H14B           16.0869475031      -32.6960575866      -22.2560303277  MEMB      159             0.0000000000
     18268       159  OSM       H14C           15.8331023641      -31.7961186338      -20.7413806034  MEMB      159             0.0000000000
     18269       159  OSM       C13            13.7940962025      -31.7336187406      -23.4224370778  MEMB      159             0.0000000000
     18270       159  OSM       H13A           12.7229488231      -31.5965079037      -23.5644013338  MEMB      159             0.0000000000
     18271       159  OSM       H13B           14.0847425137      -32.5806271074      -24.0281563813  MEMB      159             0.0000000000
     18272       159  OSM       H13C           14.3028672725      -30.8475490590      -23.7901527881  MEMB      159             0.0000000000
     18273       159  OSM       C12            13.4606281656      -30.7878829948      -21.1818695114  MEMB      159             0.0000000000
     18274       159  OSM       H12A           13.7622540753      -30.8990479013      -20.1446002147  MEMB      159             0.0000000000
     18275       159  OSM       H12B           12.3932836086      -30.9681160947      -21.2342911742  MEMB      159             0.0000000000
     18276       159  OSM       C11            13.7309275406      -29.2898666946      -21.5716872579  MEMB      159             0.0000000000
     18277       159  OSM       H11A           13.0443241416      -28.6041313202      -21.0328182577  MEMB      159             0.0000000000
     18278       159  OSM       H11B           13.4806578292      -29.1369972957      -22.6484792676  MEMB      159             0.0000000000
     18279       159  OSM       P              15.6797361888      -28.6445716321      -19.8711870654  MEMB      159             0.0000000000
     18280       159  OSM       O13            16.0636921022      -29.9790650166      -19.3803920902  MEMB      159             0.0000000000
     18281       159  OSM       O14            16.7318247395      -27.5902167572      -19.9797668412  MEMB      159             0.0000000000
     18282       159  OSM       O11            14.4341024251      -28.0839434253      -19.0451264644  MEMB      159             0.0000000000
     18283       159  OSM       O12            15.0739236646      -28.8729509450      -21.3280827057  MEMB      159             0.0000000000
     18284       159  OSM       C1S            13.7876724752      -28.8166013606      -17.9963122813  MEMB      159             0.0000000000
     18285       159  OSM       H1S            13.7034367360      -29.9124353570      -18.2203678153  MEMB      159             0.0000000000
     18286       159  OSM       H1T            12.7408195640      -28.4629555919      -17.9098702809  MEMB      159             0.0000000000
     18287       159  OSM       NF             13.8213761423      -29.3807031782      -15.6106736081  MEMB      159             0.0000000000
     18288       159  OSM       HNF            13.0934921156      -29.0171981127      -15.0501320213  MEMB      159             0.0000000000
     18289       159  OSM       C2S            14.4558561898      -28.5760951595      -16.5973077026  MEMB      159             0.0000000000
     18290       159  OSM       H2S            15.5263065208      -28.8712047525      -16.6829404768  MEMB      159             0.0000000000
     18291       159  OSM       C3S            14.4391799138      -27.1191734702      -16.1156500441  MEMB      159             0.0000000000
     18292       159  OSM       H3S            13.3637144688      -26.7821859898      -16.0693004658  MEMB      159             0.0000000000
     18293       159  OSM       O3             15.2124464541      -26.2416725482      -16.9225925067  MEMB      159             0.0000000000
     18294       159  OSM       HO3            15.3148204357      -26.6786716898      -17.7762660570  MEMB      159             0.0000000000
     18295       159  OSM       C4S            15.0313505770      -26.9631107227      -14.7401978326  MEMB      159             0.0000000000
     18296       159  OSM       H4S            14.4043458116      -26.4823700244      -13.9799386090  MEMB      159             0.0000000000
     18297       159  OSM       C5S            16.2953587942      -27.2836851375      -14.4097516780  MEMB      159             0.0000000000
     18298       159  OSM       H5S            16.9822538554      -27.6884089341      -15.1717978011  MEMB      159             0.0000000000
     18299       159  OSM       C6S            16.8656388276      -27.0977309833      -13.0417178487  MEMB      159             0.0000000000
     18300       159  OSM       H6S            16.6224923199      -26.0717518335      -12.6831871980  MEMB      159             0.0000000000
     18301       159  OSM       H6T            17.9730747536      -27.1504404155      -13.1256747456  MEMB      159             0.0000000000
     18302       159  OSM       C7S            16.3867740836      -28.1175756595      -11.9941362760  MEMB      159             0.0000000000
     18303       159  OSM       H7S            16.9119673339      -29.0833887700      -12.1675159945  MEMB      159             0.0000000000
     18304       159  OSM       H7T            15.2904481131      -28.3058428658      -12.0575833080  MEMB      159             0.0000000000
     18305       159  OSM       C8S            16.6801181856      -27.6407004667      -10.5683210205  MEMB      159             0.0000000000
     18306       159  OSM       H8S            16.1683922251      -26.6654199789      -10.4122884999  MEMB      159             0.0000000000
     18307       159  OSM       H8T            17.7682907021      -27.4367488112      -10.4730538837  MEMB      159             0.0000000000
     18308       159  OSM       C9S            16.1443222851      -28.6125644824       -9.5015998248  MEMB      159             0.0000000000
     18309       159  OSM       H9S            16.4823775992      -29.6519045832       -9.6960368216  MEMB      159             0.0000000000
     18310       159  OSM       H9T            15.0330213898      -28.6171439364       -9.6002535431  MEMB      159             0.0000000000
     18311       159  OSM       C10S           16.4897863809      -28.1613300529       -8.0694666777  MEMB      159             0.0000000000
     18312       159  OSM       H10S           16.0003065647      -27.1617465261       -7.9760000181  MEMB      159             0.0000000000
     18313       159  OSM       H10T           17.5816340682      -28.0493265525       -7.9281691034  MEMB      159             0.0000000000
     18314       159  OSM       C11S           15.8748301251      -28.9917873143       -6.9289727381  MEMB      159             0.0000000000
     18315       159  OSM       H11S           14.8461757966      -29.1625489696       -7.2951399818  MEMB      159             0.0000000000
     18316       159  OSM       H11T           15.7310590833      -28.3570761842       -6.0323755646  MEMB      159             0.0000000000
     18317       159  OSM       C12S           16.6198753079      -30.2868879148       -6.4781248031  MEMB      159             0.0000000000
     18318       159  OSM       H12S           17.6644277024      -30.1227627853       -6.2120288891  MEMB      159             0.0000000000
     18319       159  OSM       H12T           16.9409594082      -30.9092313343       -7.3298064305  MEMB      159             0.0000000000
     18320       159  OSM       C13S           15.7589385569      -31.1785095836       -5.5243555393  MEMB      159             0.0000000000
     18321       159  OSM       H13S           16.1666599058      -32.2044981843       -5.4114262974  MEMB      159             0.0000000000
     18322       159  OSM       H13T           14.7241557199      -31.3379410558       -5.8891120204  MEMB      159             0.0000000000
     18323       159  OSM       C14S           15.3743200603      -30.5792773865       -4.1919912491  MEMB      159             0.0000000000
     18324       159  OSM       H14S           14.6805333662      -31.3147566247       -3.7196713318  MEMB      159             0.0000000000
     18325       159  OSM       H14T           14.7559601294      -29.6727102475       -4.3658243444  MEMB      159             0.0000000000
     18326       159  OSM       C15S           16.6092773485      -30.2825569608       -3.3569745268  MEMB      159             0.0000000000
     18327       159  OSM       H15S           17.1321335189      -29.4078169129       -3.8010145542  MEMB      159             0.0000000000
     18328       159  OSM       H15T           17.3006528832      -31.1577256781       -3.3955431936  MEMB      159             0.0000000000
     18329       159  OSM       C16S           16.2493775848      -29.9085508992       -1.9313661618  MEMB      159             0.0000000000
     18330       159  OSM       H16S           15.2293860575      -29.4664693629       -1.9183097830  MEMB      159             0.0000000000
     18331       159  OSM       H16T           16.9237642650      -29.1267213270       -1.5168243798  MEMB      159             0.0000000000
     18332       159  OSM       C17S           16.3443456841      -31.0646718271       -0.9548318420  MEMB      159             0.0000000000
     18333       159  OSM       H17S           16.0010762940      -30.5580790135       -0.0463298229  MEMB      159             0.0000000000
     18334       159  OSM       H17T           17.3937797860      -31.4067763916       -0.8255387274  MEMB      159             0.0000000000
     18335       159  OSM       C18S           15.5184154893      -32.2907023681       -1.2551271166  MEMB      159             0.0000000000
     18336       159  OSM       H18S           15.7656890845      -33.1330859152       -0.5732438543  MEMB      159             0.0000000000
     18337       159  OSM       H18T           15.7794657277      -32.5982719618       -2.2891480569  MEMB      159             0.0000000000
     18338       159  OSM       H18U           14.4284185737      -32.1016465099       -1.2145487993  MEMB      159             0.0000000000
     18339       159  OSM       C1F            14.0744673028      -30.6528558424      -15.5064655253  MEMB      159             0.0000000000
     18340       159  OSM       OF             14.8392175986      -31.2586099997      -16.2367534748  MEMB      159             0.0000000000
     18341       159  OSM       C2F            13.2045362487      -31.2833700926      -14.5499616276  MEMB      159             0.0000000000
     18342       159  OSM       H2F            13.5162555861      -32.3547938959      -14.4401124532  MEMB      159             0.0000000000
     18343       159  OSM       H2G            12.1503511326      -31.0651806311      -14.8937587963  MEMB      159             0.0000000000
     18344       159  OSM       C3F            13.1685177458      -30.8782960175      -13.1509081578  MEMB      159             0.0000000000
     18345       159  OSM       H3F            12.9387845994      -29.7987168938      -13.0948009669  MEMB      159             0.0000000000
     18346       159  OSM       H3G            14.1521341035      -31.1848418303      -12.7327080671  MEMB      159             0.0000000000
     18347       159  OSM       C4F            12.0976643741      -31.6897612613      -12.4722772634  MEMB      159             0.0000000000
     18348       159  OSM       H4F            12.2929995336      -32.7946574062      -12.5013147567  MEMB      159             0.0000000000
     18349       159  OSM       H4G            11.0739726188      -31.4735003288      -12.8124076048  MEMB      159             0.0000000000
     18350       159  OSM       C5F            12.1646048296      -31.2538998461      -11.0862569729  MEMB      159             0.0000000000
     18351       159  OSM       H5F            13.2523440767      -31.2285530245      -10.7917188867  MEMB      159             0.0000000000
     18352       159  OSM       H5G            11.5492524918      -31.9592727825      -10.5099567482  MEMB      159             0.0000000000
     18353       159  OSM       C6F            11.6001430276      -29.9307807565      -10.7568877902  MEMB      159             0.0000000000
     18354       159  OSM       H6F            10.5399166987      -29.7899745066      -11.0384312965  MEMB      159             0.0000000000
     18355       159  OSM       H6G            12.2260565878      -29.1716466887      -11.2870411715  MEMB      159             0.0000000000
     18356       159  OSM       C7F            11.9249217629      -29.7679963572       -9.2636536524  MEMB      159             0.0000000000
     18357       159  OSM       H7F            12.9843192298      -29.8954247752       -9.2588515140  MEMB      159             0.0000000000
     18358       159  OSM       H7G            11.3225921450      -30.0223034423       -8.3382354368  MEMB      159             0.0000000000
     18359       159  OSM       C8F            12.2217878317      -28.4410166284       -8.8958925743  MEMB      159             0.0000000000
     18360       159  OSM       H8F            11.1648380710      -28.6074056364       -9.2834256579  MEMB      159             0.0000000000
     18361       159  OSM       H8G            12.6385080835      -27.9548688966       -9.7628509241  MEMB      159             0.0000000000
     18362       159  OSM       C9F            12.6395419266      -27.7689167472       -7.5421903205  MEMB      159             0.0000000000
     18363       159  OSM       H9F            13.6101537719      -27.2971813170       -7.7308973034  MEMB      159             0.0000000000
     18364       159  OSM       C10F           12.1276737921      -27.4840723231       -6.2834715180  MEMB      159             0.0000000000
     18365       159  OSM       H10F           12.7829674289      -27.0286506414       -5.5339468990  MEMB      159             0.0000000000
     18366       159  OSM       C11F           10.8050008695      -27.7288605398       -5.5987475483  MEMB      159             0.0000000000
     18367       159  OSM       H11F           10.2126591585      -27.6760967747       -6.4279933173  MEMB      159             0.0000000000
     18368       159  OSM       H11G           10.2837510886      -26.8812835731       -5.0899463045  MEMB      159             0.0000000000
     18369       159  OSM       C12F           10.5623898413      -29.0998284044       -4.9398180009  MEMB      159             0.0000000000
     18370       159  OSM       H12F           11.0044452534      -29.8847618015       -5.5900732129  MEMB      159             0.0000000000
     18371       159  OSM       H12G            9.4868808623      -29.3591937692       -4.8066852268  MEMB      159             0.0000000000
     18372       159  OSM       C13F           11.2570504056      -29.1378679938       -3.5942476089  MEMB      159             0.0000000000
     18373       159  OSM       H13F           10.9470621642      -28.2320721508       -3.0220672889  MEMB      159             0.0000000000
     18374       159  OSM       H13G           12.3422924558      -29.0776063032       -3.8411115863  MEMB      159             0.0000000000
     18375       159  OSM       C14F           10.9755799990      -30.4004873002       -2.7823629815  MEMB      159             0.0000000000
     18376       159  OSM       H14F           10.9816383587      -31.3007923918       -3.4179998518  MEMB      159             0.0000000000
     18377       159  OSM       H14G            9.9529407671      -30.3605291197       -2.3555844377  MEMB      159             0.0000000000
     18378       159  OSM       C15F           12.0054934173      -30.6234241334       -1.6811109890  MEMB      159             0.0000000000
     18379       159  OSM       H15F           12.8333647908      -29.8857367671       -1.7571188610  MEMB      159             0.0000000000
     18380       159  OSM       H15G           12.4385782066      -31.6461311869       -1.7867799920  MEMB      159             0.0000000000
     18381       159  OSM       C16F           11.3779184253      -30.4567617330       -0.3119225997  MEMB      159             0.0000000000
     18382       159  OSM       H16F           10.4372306310      -31.0376728797       -0.2659270880  MEMB      159             0.0000000000
     18383       159  OSM       H16G           11.1216131862      -29.3906143708       -0.1415827932  MEMB      159             0.0000000000
     18384       159  OSM       C17F           12.3351354153      -30.8906205998        0.7660157505  MEMB      159             0.0000000000
     18385       159  OSM       H17F           13.2494997923      -30.2899077290        0.8278285693  MEMB      159             0.0000000000
     18386       159  OSM       H17G           12.6160830570      -31.9723860140        0.6005674402  MEMB      159             0.0000000000
     18387       159  OSM       C18F           11.7736606357      -30.6967067593        2.1265454408  MEMB      159             0.0000000000
     18388       159  OSM       H18F           11.5879055436      -31.7168439206        2.2469976818  MEMB      159             0.0000000000
     18389       159  OSM       H18G           10.8938251508      -30.0777055370        2.3531064552  MEMB      159             0.0000000000
     18390       159  OSM       H18H           12.4269619796      -30.7241303460        2.9584886469  MEMB      159             0.0000000000
     18391       160  SAPE      N             -16.9150506200      -30.5819947385      -20.8471976006  MEMB      160             0.0000000000
     18392       160  SAPE      HN1           -16.3849788536      -29.8039656967      -21.3112945264  MEMB      160             0.0000000000
     18393       160  SAPE      HN2           -17.6987181647      -30.9019429731      -21.4458953923  MEMB      160             0.0000000000
     18394       160  SAPE      HN3           -17.2652939868      -30.2217541842      -19.9454776415  MEMB      160             0.0000000000
     18395       160  SAPE      C12           -15.9969180268      -31.7391333252      -20.5627717498  MEMB      160             0.0000000000
     18396       160  SAPE      H12A          -15.3319391502      -31.8957096243      -21.4361695099  MEMB      160             0.0000000000
     18397       160  SAPE      H12B          -16.6143843854      -32.6391492302      -20.3923490962  MEMB      160             0.0000000000
     18398       160  SAPE      C11           -15.1289553011      -31.4663153574      -19.3434032493  MEMB      160             0.0000000000
     18399       160  SAPE      H11A          -14.3841043289      -32.3070236288      -19.2879494978  MEMB      160             0.0000000000
     18400       160  SAPE      H11B          -15.6931014154      -31.5276855213      -18.4170188585  MEMB      160             0.0000000000
     18401       160  SAPE      P             -13.1377802255      -30.0211045660      -19.9959903724  MEMB      160             0.0000000000
     18402       160  SAPE      O13           -13.0264322473      -30.9990066024      -21.0958603177  MEMB      160             0.0000000000
     18403       160  SAPE      O14           -12.7707678648      -28.6142511813      -20.2139373647  MEMB      160             0.0000000000
     18404       160  SAPE      O12           -14.5978980931      -30.1425417596      -19.4207994513  MEMB      160             0.0000000000
     18405       160  SAPE      O11           -12.4086974435      -30.5388735472      -18.7523830067  MEMB      160             0.0000000000
     18406       160  SAPE      C1            -11.2109615870      -31.1576199674      -19.0304168828  MEMB      160             0.0000000000
     18407       160  SAPE      HA            -11.2644538930      -32.2323147636      -19.3634879344  MEMB      160             0.0000000000
     18408       160  SAPE      HB            -10.4920193662      -30.6579032565      -19.7517382509  MEMB      160             0.0000000000
     18409       160  SAPE      C2            -10.5782120938      -31.1676570713      -17.7242698991  MEMB      160             0.0000000000
     18410       160  SAPE      HS            -10.0297266395      -31.9217777323      -17.9371792501  MEMB      160             0.0000000000
     18411       160  SAPE      O21           -11.2279259682      -31.4430416385      -16.4382537439  MEMB      160             0.0000000000
     18412       160  SAPE      C21           -11.3614130896      -32.8008166027      -16.2984243997  MEMB      160             0.0000000000
     18413       160  SAPE      O22           -11.2348212670      -33.5991457168      -17.1966204770  MEMB      160             0.0000000000
     18414       160  SAPE      C22           -11.7029502553      -33.2233848660      -14.8976088121  MEMB      160             0.0000000000
     18415       160  SAPE      H2R           -11.1887570278      -34.1873936801      -14.6647805851  MEMB      160             0.0000000000
     18416       160  SAPE      H2S           -11.4023925901      -32.4495057798      -14.1728159066  MEMB      160             0.0000000000
     18417       160  SAPE      C3             -9.8148816440      -29.7702996175      -17.6975994723  MEMB      160             0.0000000000
     18418       160  SAPE      HX             -8.8618524129      -29.4656030712      -18.1855790735  MEMB      160             0.0000000000
     18419       160  SAPE      HY             -9.5047615987      -30.3345453140      -16.9250652252  MEMB      160             0.0000000000
     18420       160  SAPE      O31           -10.4359276962      -28.6538615315      -17.3380988067  MEMB      160             0.0000000000
     18421       160  SAPE      C31           -10.4443852705      -28.1842620539      -16.1846385805  MEMB      160             0.0000000000
     18422       160  SAPE      O32            -9.6097729310      -28.1668150049      -15.2934642386  MEMB      160             0.0000000000
     18423       160  SAPE      C32           -11.8569628019      -27.7358379611      -16.1886982620  MEMB      160             0.0000000000
     18424       160  SAPE      H2X           -12.2342144262      -27.6585057642      -17.2503533035  MEMB      160             0.0000000000
     18425       160  SAPE      H2Y           -11.8215582828      -26.7483292125      -15.7250613683  MEMB      160             0.0000000000
     18426       160  SAPE      C23           -13.2055623102      -33.4736957204      -14.8776881740  MEMB      160             0.0000000000
     18427       160  SAPE      H3R           -13.3849684612      -34.1740306618      -14.0274969519  MEMB      160             0.0000000000
     18428       160  SAPE      H3S           -13.5160667132      -34.0410369206      -15.7927834025  MEMB      160             0.0000000000
     18429       160  SAPE      C24           -14.0058443652      -32.1691878443      -14.7672042833  MEMB      160             0.0000000000
     18430       160  SAPE      H4R           -13.9853915075      -31.5861824720      -15.7209790344  MEMB      160             0.0000000000
     18431       160  SAPE      H4S           -13.6120682900      -31.4901244388      -13.9881077402  MEMB      160             0.0000000000
     18432       160  SAPE      C25           -15.3187573193      -32.7675167308      -14.3694316095  MEMB      160             0.0000000000
     18433       160  SAPE      H5R           -15.8674662338      -33.2013196844      -15.2167736222  MEMB      160             0.0000000000
     18434       160  SAPE      C26           -16.0224443782      -32.4853352173      -13.2726789173  MEMB      160             0.0000000000
     18435       160  SAPE      H6R           -17.0549708075      -32.8617581311      -13.2289204954  MEMB      160             0.0000000000
     18436       160  SAPE      C27           -15.6903544723      -31.4760666952      -12.2083320468  MEMB      160             0.0000000000
     18437       160  SAPE      H7R           -16.5166470441      -30.8792892027      -11.8753031723  MEMB      160             0.0000000000
     18438       160  SAPE      H7S           -15.0089055630      -30.6428955331      -12.5094728810  MEMB      160             0.0000000000
     18439       160  SAPE      C28           -15.5934752590      -31.9932741887      -10.8757894612  MEMB      160             0.0000000000
     18440       160  SAPE      H8R           -16.5265105982      -32.1120360599      -10.3049177875  MEMB      160             0.0000000000
     18441       160  SAPE      C29           -14.4055085637      -32.1050511272      -10.3774775581  MEMB      160             0.0000000000
     18442       160  SAPE      H9R           -14.3084424786      -32.4123885950       -9.3434026899  MEMB      160             0.0000000000
     18443       160  SAPE      C210          -13.1476686378      -31.7561648904      -11.0683429038  MEMB      160             0.0000000000
     18444       160  SAPE      H10R          -12.7897940775      -30.9426258654      -10.4228351873  MEMB      160             0.0000000000
     18445       160  SAPE      H10S          -13.1550896324      -31.3586372301      -12.0775332729  MEMB      160             0.0000000000
     18446       160  SAPE      C211          -12.2709373490      -32.9131550438      -11.0503491764  MEMB      160             0.0000000000
     18447       160  SAPE      H11R          -12.2738513365      -33.7628447091      -11.7893036241  MEMB      160             0.0000000000
     18448       160  SAPE      C212          -11.3602527115      -32.7952605266      -10.1248708340  MEMB      160             0.0000000000
     18449       160  SAPE      H12R          -10.7788534898      -33.7593037455      -10.2695520094  MEMB      160             0.0000000000
     18450       160  SAPE      C213          -10.9834532661      -31.5850308457       -8.9829932588  MEMB      160             0.0000000000
     18451       160  SAPE      H13R          -11.8347161051      -31.1473242534       -8.5526526817  MEMB      160             0.0000000000
     18452       160  SAPE      H13S          -10.9318606601      -30.8660737299       -9.8323910629  MEMB      160             0.0000000000
     18453       160  SAPE      C214           -9.6517743695      -31.1077451140       -7.9487886369  MEMB      160             0.0000000000
     18454       160  SAPE      H14R           -8.4269563529      -31.8012085211       -8.1142624839  MEMB      160             0.0000000000
     18455       160  SAPE      C215           -9.7319704277      -30.9141226969       -6.7808073839  MEMB      160             0.0000000000
     18456       160  SAPE      H15R           -8.8294633438      -31.4104690733       -6.7748389987  MEMB      160             0.0000000000
     18457       160  SAPE      C216          -11.0596255670      -31.1783156775       -6.0801260224  MEMB      160             0.0000000000
     18458       160  SAPE      H16R          -11.7323503530      -30.5456302008       -6.6655499228  MEMB      160             0.0000000000
     18459       160  SAPE      H16S          -10.7566461531      -30.7798808205       -5.1317834809  MEMB      160             0.0000000000
     18460       160  SAPE      C217          -12.1488920394      -32.4216721041       -5.6881787437  MEMB      160             0.0000000000
     18461       160  SAPE      H17R          -12.3250772179      -33.0930236841       -6.5385125608  MEMB      160             0.0000000000
     18462       160  SAPE      H17S          -13.1465117786      -31.9847948947       -5.5153415006  MEMB      160             0.0000000000
     18463       160  SAPE      C218          -12.0020620232      -33.5089230717       -4.5230599127  MEMB      160             0.0000000000
     18464       160  SAPE      H18R          -11.3165036183      -34.3585159428       -4.7415347682  MEMB      160             0.0000000000
     18465       160  SAPE      H18S          -12.8699902623      -34.1747386457       -4.3420540858  MEMB      160             0.0000000000
     18466       160  SAPE      C219          -11.4566991814      -32.7896387073       -3.3009034531  MEMB      160             0.0000000000
     18467       160  SAPE      H19R          -12.0000414487      -31.9289260704       -2.9626915555  MEMB      160             0.0000000000
     18468       160  SAPE      H19S          -10.6561005213      -32.3106335933       -3.8116244357  MEMB      160             0.0000000000
     18469       160  SAPE      C220          -10.9138082732      -33.5432640599       -2.1152415590  MEMB      160             0.0000000000
     18470       160  SAPE      H20R          -11.7101980194      -34.0955663230       -1.6441434612  MEMB      160             0.0000000000
     18471       160  SAPE      H20S          -10.2484247472      -33.1017779935       -1.3650954333  MEMB      160             0.0000000000
     18472       160  SAPE      H20T          -10.2143048757      -34.2612375012       -2.5703042834  MEMB      160             0.0000000000
     18473       160  SAPE      C33           -12.6140964176      -28.7978975938      -15.3990084988  MEMB      160             0.0000000000
     18474       160  SAPE      H3X           -12.0277093823      -29.0181969120      -14.4782658078  MEMB      160             0.0000000000
     18475       160  SAPE      H3Y           -12.6414426059      -29.7496524087      -15.9883170496  MEMB      160             0.0000000000
     18476       160  SAPE      C34           -14.0269997868      -28.3656797639      -14.9913610008  MEMB      160             0.0000000000
     18477       160  SAPE      H4X           -14.4351165180      -29.1253447470      -14.2932286586  MEMB      160             0.0000000000
     18478       160  SAPE      H4Y           -14.6640177533      -28.3703144998      -15.9047230838  MEMB      160             0.0000000000
     18479       160  SAPE      C35           -14.1708638828      -26.9845258511      -14.3123404384  MEMB      160             0.0000000000
     18480       160  SAPE      H5X           -15.2515177141      -26.8125585874      -14.0986061281  MEMB      160             0.0000000000
     18481       160  SAPE      H5Y           -13.8700687498      -26.1998383938      -15.0361476065  MEMB      160             0.0000000000
     18482       160  SAPE      C36           -13.3953510047      -26.7897117127      -12.9953881294  MEMB      160             0.0000000000
     18483       160  SAPE      H6X           -13.0437944621      -25.7320412665      -12.9559245117  MEMB      160             0.0000000000
     18484       160  SAPE      H6Y           -12.4854695483      -27.4260718144      -12.9307244975  MEMB      160             0.0000000000
     18485       160  SAPE      C37           -14.2826331439      -27.0946664422      -11.7812665760  MEMB      160             0.0000000000
     18486       160  SAPE      H7X           -14.5124327234      -28.1798195728      -11.8172412233  MEMB      160             0.0000000000
     18487       160  SAPE      H7Y           -15.2633246407      -26.5794163688      -11.8842962568  MEMB      160             0.0000000000
     18488       160  SAPE      C38           -13.6088967517      -26.7353473127      -10.4434902044  MEMB      160             0.0000000000
     18489       160  SAPE      H8X           -13.4959315369      -25.6285837803      -10.4077162772  MEMB      160             0.0000000000
     18490       160  SAPE      H8Y           -12.5791450124      -27.1579584192      -10.4250728079  MEMB      160             0.0000000000
     18491       160  SAPE      C39           -14.3995168021      -27.2300324358       -9.2090949099  MEMB      160             0.0000000000
     18492       160  SAPE      H9X           -15.4489674649      -26.8834437573       -9.3400672420  MEMB      160             0.0000000000
     18493       160  SAPE      H9Y           -13.9908538086      -26.7753503886       -8.2787093509  MEMB      160             0.0000000000
     18494       160  SAPE      C310          -14.4020515217      -28.7628144899       -9.0521342488  MEMB      160             0.0000000000
     18495       160  SAPE      H10X          -13.3959345410      -29.1198037049       -8.7408505021  MEMB      160             0.0000000000
     18496       160  SAPE      H10Y          -14.6426951888      -29.1755859744      -10.0560975495  MEMB      160             0.0000000000
     18497       160  SAPE      C311          -15.4440100441      -29.3655654591       -8.0891983964  MEMB      160             0.0000000000
     18498       160  SAPE      H11X          -15.3658575681      -30.4783569030       -8.1367965962  MEMB      160             0.0000000000
     18499       160  SAPE      H11Y          -16.4474840880      -29.0878986932       -8.4760644744  MEMB      160             0.0000000000
     18500       160  SAPE      C312          -15.2833297454      -28.9469233061       -6.6205317130  MEMB      160             0.0000000000
     18501       160  SAPE      H12X          -15.5055330028      -27.8623884869       -6.5096714337  MEMB      160             0.0000000000
     18502       160  SAPE      H12Y          -14.2234007067      -29.1020432540       -6.3157416961  MEMB      160             0.0000000000
     18503       160  SAPE      C313          -16.2113007529      -29.7053078965       -5.6557937906  MEMB      160             0.0000000000
     18504       160  SAPE      H13X          -15.9801735580      -30.7919520805       -5.6380873298  MEMB      160             0.0000000000
     18505       160  SAPE      H13Y          -17.2739748686      -29.5634430096       -5.9595817220  MEMB      160             0.0000000000
     18506       160  SAPE      C314          -16.1006203625      -29.1969821506       -4.2187122346  MEMB      160             0.0000000000
     18507       160  SAPE      H14X          -16.9429225398      -29.6278724859       -3.6322920176  MEMB      160             0.0000000000
     18508       160  SAPE      H14Y          -16.1954190750      -28.0882054706       -4.2538258596  MEMB      160             0.0000000000
     18509       160  SAPE      C315          -14.7927089336      -29.6367502497       -3.5579704135  MEMB      160             0.0000000000
     18510       160  SAPE      H15X          -13.9493887030      -29.1916765962       -4.1304563144  MEMB      160             0.0000000000
     18511       160  SAPE      H15Y          -14.6973704474      -30.7442662827       -3.6418425916  MEMB      160             0.0000000000
     18512       160  SAPE      C316          -14.6362740031      -29.1900928576       -2.0966933903  MEMB      160             0.0000000000
     18513       160  SAPE      H16X          -14.8932291374      -28.1177353201       -1.9647881882  MEMB      160             0.0000000000
     18514       160  SAPE      H16Y          -13.5591239510      -29.2882338970       -1.8426607292  MEMB      160             0.0000000000
     18515       160  SAPE      C317          -15.4127100837      -30.0157811586       -1.0760874634  MEMB      160             0.0000000000
     18516       160  SAPE      H17X          -15.1244429894      -31.0855664543       -1.1654765989  MEMB      160             0.0000000000
     18517       160  SAPE      H17Y          -16.5131462938      -29.9356829017       -1.2729881300  MEMB      160             0.0000000000
     18518       160  SAPE      C318          -15.1009375984      -29.5952129159        0.3553764562  MEMB      160             0.0000000000
     18519       160  SAPE      H18X          -15.7052763701      -30.2624954986        1.0020334264  MEMB      160             0.0000000000
     18520       160  SAPE      H18Y          -15.3578141115      -28.5195380467        0.5221084572  MEMB      160             0.0000000000
     18521       160  SAPE      H18Z          -14.0773333296      -29.7630092768        0.7097657071  MEMB      160             0.0000000000
     18522       161  SLPC      N              33.0925232920        9.1834052973      -17.3465827059  MEMB      161             0.0000000000
     18523       161  SLPC      C13            34.2478796203        8.3802594492      -17.0007548683  MEMB      161             0.0000000000
     18524       161  SLPC      H13A           34.2077071224        7.5452119515      -16.3241646614  MEMB      161             0.0000000000
     18525       161  SLPC      H13B           34.5813577695        7.9407596910      -17.9383235069  MEMB      161             0.0000000000
     18526       161  SLPC      H13C           35.1057594096        8.9926768688      -16.6908482724  MEMB      161             0.0000000000
     18527       161  SLPC      C14            32.0854036378        8.2631400048      -17.9002122287  MEMB      161             0.0000000000
     18528       161  SLPC      H14A           32.2605538985        8.0484057045      -18.9521160492  MEMB      161             0.0000000000
     18529       161  SLPC      H14B           32.0496857057        7.3544029421      -17.3330921235  MEMB      161             0.0000000000
     18530       161  SLPC      H14C           31.1288279481        8.7799540331      -17.8729574511  MEMB      161             0.0000000000
     18531       161  SLPC      C15            33.3143670404       10.2334669613      -18.3988307549  MEMB      161             0.0000000000
     18532       161  SLPC      H15A           32.8148795196       11.1629325745      -18.1328225327  MEMB      161             0.0000000000
     18533       161  SLPC      H15B           34.3307785765       10.5402026945      -18.4139250097  MEMB      161             0.0000000000
     18534       161  SLPC      H15C           33.1521336341        9.9017815604      -19.4088299153  MEMB      161             0.0000000000
     18535       161  SLPC      C12            32.7320782628        9.9115468611      -16.1026523059  MEMB      161             0.0000000000
     18536       161  SLPC      H12A           33.4663863569       10.7068804424      -15.9989741618  MEMB      161             0.0000000000
     18537       161  SLPC      H12B           32.8444003417        9.2287506639      -15.2708477609  MEMB      161             0.0000000000
     18538       161  SLPC      C11            31.4159710993       10.6803071306      -16.0728699083  MEMB      161             0.0000000000
     18539       161  SLPC      H11A           31.3131189019       11.1051888072      -15.0437219193  MEMB      161             0.0000000000
     18540       161  SLPC      H11B           30.5730720201       10.0570598623      -16.2495862887  MEMB      161             0.0000000000
     18541       161  SLPC      P              30.4513574711       12.9225362830      -16.8262963846  MEMB      161             0.0000000000
     18542       161  SLPC      O13            30.3647547456       13.6994782546      -18.0899759702  MEMB      161             0.0000000000
     18543       161  SLPC      O14            29.2217634488       12.5908304474      -16.0721291600  MEMB      161             0.0000000000
     18544       161  SLPC      O12            31.3080863550       11.6210782319      -17.1263118901  MEMB      161             0.0000000000
     18545       161  SLPC      O11            31.5023437104       13.5601633183      -15.8514236518  MEMB      161             0.0000000000
     18546       161  SLPC      C1             32.2847508622       14.6689143800      -16.2664356801  MEMB      161             0.0000000000
     18547       161  SLPC      HA             32.4960715951       14.6879971716      -17.3604467976  MEMB      161             0.0000000000
     18548       161  SLPC      HB             31.7203033302       15.5960807050      -16.0066951460  MEMB      161             0.0000000000
     18549       161  SLPC      C2             33.6166691737       14.6807926768      -15.4960926150  MEMB      161             0.0000000000
     18550       161  SLPC      HS             34.2657078408       15.4773861718      -15.9278090543  MEMB      161             0.0000000000
     18551       161  SLPC      O21            34.3094540670       13.4312358654      -15.5428133696  MEMB      161             0.0000000000
     18552       161  SLPC      C21            35.6201423287       13.4654020161      -15.3374258759  MEMB      161             0.0000000000
     18553       161  SLPC      O22            36.3191270360       14.4102607872      -15.0652619826  MEMB      161             0.0000000000
     18554       161  SLPC      C22            36.1280114958       12.1291637985      -15.7215831608  MEMB      161             0.0000000000
     18555       161  SLPC      H2R            35.4966280557       11.8769395247      -16.5654338352  MEMB      161             0.0000000000
     18556       161  SLPC      H2S            37.2057300673       12.0855065098      -15.9585708293  MEMB      161             0.0000000000
     18557       161  SLPC      C3             33.3094498611       15.0719122965      -14.0451122804  MEMB      161             0.0000000000
     18558       161  SLPC      HX             32.8346067295       16.0662605277      -14.1073094951  MEMB      161             0.0000000000
     18559       161  SLPC      HY             34.2979657510       15.1856045195      -13.6128860422  MEMB      161             0.0000000000
     18560       161  SLPC      O31            32.4616183145       14.1834311767      -13.2912502457  MEMB      161             0.0000000000
     18561       161  SLPC      C31            33.0440967643       13.3061176022      -12.4956818747  MEMB      161             0.0000000000
     18562       161  SLPC      O32            34.2385034411       13.1640905805      -12.3232421654  MEMB      161             0.0000000000
     18563       161  SLPC      C32            31.9871508324       12.4593075432      -11.8147899097  MEMB      161             0.0000000000
     18564       161  SLPC      H2X            30.9909002734       12.6718242155      -12.2647146648  MEMB      161             0.0000000000
     18565       161  SLPC      H2Y            31.9742923197       12.7230492037      -10.7409622561  MEMB      161             0.0000000000
     18566       161  SLPC      C23            35.9083636463       11.1830163724      -14.6198381286  MEMB      161             0.0000000000
     18567       161  SLPC      H3R            34.8710564773       10.7913363932      -14.5189805424  MEMB      161             0.0000000000
     18568       161  SLPC      H3S            36.0695248621       11.7463472329      -13.6515024862  MEMB      161             0.0000000000
     18569       161  SLPC      C24            36.9211008044        9.9752700843      -14.6595546186  MEMB      161             0.0000000000
     18570       161  SLPC      H4R            37.9514958705       10.2175132615      -15.0128797695  MEMB      161             0.0000000000
     18571       161  SLPC      H4S            36.5061120847        9.2379005819      -15.3625590136  MEMB      161             0.0000000000
     18572       161  SLPC      C25            37.0197201476        9.3173477427      -13.2347303526  MEMB      161             0.0000000000
     18573       161  SLPC      H5R            36.3462954050       10.0218488341      -13.1780272365  MEMB      161             0.0000000000
     18574       161  SLPC      H5S            36.1898465513        8.6788785792      -12.8985172714  MEMB      161             0.0000000000
     18575       161  SLPC      C26            37.5804396700       10.1387854278      -12.0922028082  MEMB      161             0.0000000000
     18576       161  SLPC      H6R            38.1403324482       11.0361309571      -12.4604456229  MEMB      161             0.0000000000
     18577       161  SLPC      H6S            38.3592794651        9.5631122388      -11.6531221083  MEMB      161             0.0000000000
     18578       161  SLPC      C27            36.4892735860       10.4634729847      -11.0588163082  MEMB      161             0.0000000000
     18579       161  SLPC      H7R            35.6521007531        9.8846002760      -10.6630895331  MEMB      161             0.0000000000
     18580       161  SLPC      H7S            35.7469507411       11.0125501363      -11.7010573430  MEMB      161             0.0000000000
     18581       161  SLPC      C28            37.0988427894       10.8390171676       -9.7372531037  MEMB      161             0.0000000000
     18582       161  SLPC      H8R            38.1150329654       10.6215974531       -9.4489537051  MEMB      161             0.0000000000
     18583       161  SLPC      H8S            36.6343488380       10.6212257561       -8.7440662864  MEMB      161             0.0000000000
     18584       161  SLPC      C29            36.9311302694       12.1402394114      -10.1395946304  MEMB      161             0.0000000000
     18585       161  SLPC      H9R            37.6060775528       12.6308929655      -10.8804439967  MEMB      161             0.0000000000
     18586       161  SLPC      C210           36.1954219672       12.7398620418       -9.3042574584  MEMB      161             0.0000000000
     18587       161  SLPC      H10R           36.3278771341       13.6632620038       -9.3654658212  MEMB      161             0.0000000000
     18588       161  SLPC      C211           35.4370720739       12.6827381607       -8.1059984119  MEMB      161             0.0000000000
     18589       161  SLPC      H11R           36.1475376488       12.3426032904       -7.3325593248  MEMB      161             0.0000000000
     18590       161  SLPC      H11S           34.7865814367       11.9651410613       -8.5890956331  MEMB      161             0.0000000000
     18591       161  SLPC      C212           34.8155952593       14.0209680538       -7.7039779324  MEMB      161             0.0000000000
     18592       161  SLPC      H12R           35.4355178462       14.9491872142       -7.7114776659  MEMB      161             0.0000000000
     18593       161  SLPC      C213           33.5399926014       14.1004265779       -7.3775475813  MEMB      161             0.0000000000
     18594       161  SLPC      H13R           33.1551260300       15.0698716487       -7.1205266347  MEMB      161             0.0000000000
     18595       161  SLPC      C214           32.6116215532       12.9181134733       -7.3613371241  MEMB      161             0.0000000000
     18596       161  SLPC      H14R           33.0518784805       12.0834962917       -7.9364816679  MEMB      161             0.0000000000
     18597       161  SLPC      H14S           31.6813503542       13.1665615587       -7.8963412994  MEMB      161             0.0000000000
     18598       161  SLPC      C215           32.2828656678       12.3466950067       -5.9710164489  MEMB      161             0.0000000000
     18599       161  SLPC      H15R           31.4258370684       11.6500395773       -6.0133457304  MEMB      161             0.0000000000
     18600       161  SLPC      H15S           32.0360348763       13.1429058724       -5.2286275620  MEMB      161             0.0000000000
     18601       161  SLPC      C216           33.4203672556       11.5384712789       -5.4020341403  MEMB      161             0.0000000000
     18602       161  SLPC      H16R           33.8928744984       10.7879332161       -6.0705934497  MEMB      161             0.0000000000
     18603       161  SLPC      H16S           33.0539458242       10.9864840231       -4.4994204653  MEMB      161             0.0000000000
     18604       161  SLPC      C217           34.4506450662       12.4997386043       -4.9818843146  MEMB      161             0.0000000000
     18605       161  SLPC      H17R           34.1215981884       13.5257326275       -4.6569143076  MEMB      161             0.0000000000
     18606       161  SLPC      H17S           35.3362654179       12.5720950122       -5.6445241859  MEMB      161             0.0000000000
     18607       161  SLPC      C218           34.9651313729       11.9777122217       -3.7870981376  MEMB      161             0.0000000000
     18608       161  SLPC      H18R           35.4362010864       10.9541435513       -3.7897176921  MEMB      161             0.0000000000
     18609       161  SLPC      H18S           34.4515376664       12.3466451396       -2.8856516665  MEMB      161             0.0000000000
     18610       161  SLPC      H18T           35.7124808858       12.7137486133       -3.7904301768  MEMB      161             0.0000000000
     18611       161  SLPC      C33            32.3860605850       10.9802680773      -11.9102301395  MEMB      161             0.0000000000
     18612       161  SLPC      H3X            33.4329877789       10.7892823404      -11.6292903454  MEMB      161             0.0000000000
     18613       161  SLPC      H3Y            32.2707344370       10.6801843999      -12.9885087061  MEMB      161             0.0000000000
     18614       161  SLPC      C34            31.6891930921       10.0770607523      -10.8863689406  MEMB      161             0.0000000000
     18615       161  SLPC      H4X            31.8591033101        8.9966409921      -11.0184249427  MEMB      161             0.0000000000
     18616       161  SLPC      H4Y            30.6619385263       10.3819839328      -10.8612274822  MEMB      161             0.0000000000
     18617       161  SLPC      C35            31.6064259132       10.1779128993       -9.3996718348  MEMB      161             0.0000000000
     18618       161  SLPC      H5X            31.0946877655       11.1406373317       -9.1398463277  MEMB      161             0.0000000000
     18619       161  SLPC      H5Y            32.6453871676       10.0538968636       -9.0890798815  MEMB      161             0.0000000000
     18620       161  SLPC      C36            30.7970222376        9.0038819349       -8.8372578069  MEMB      161             0.0000000000
     18621       161  SLPC      H6X            30.9629479604        8.0108396256       -9.3330135756  MEMB      161             0.0000000000
     18622       161  SLPC      H6Y            29.7235484585        9.1931431291       -8.8385617138  MEMB      161             0.0000000000
     18623       161  SLPC      C37            30.7787037638        8.9905908914       -7.3571216781  MEMB      161             0.0000000000
     18624       161  SLPC      H7X            30.1375243550        9.8337109020       -6.9917585878  MEMB      161             0.0000000000
     18625       161  SLPC      H7Y            31.8200688541        8.9967090078       -7.0307894552  MEMB      161             0.0000000000
     18626       161  SLPC      C38            30.1870764273        7.7272308419       -6.8956052931  MEMB      161             0.0000000000
     18627       161  SLPC      H8X            30.9556964039        6.9573743094       -7.0586058900  MEMB      161             0.0000000000
     18628       161  SLPC      H8Y            29.4065693204        7.4971589868       -7.6372462390  MEMB      161             0.0000000000
     18629       161  SLPC      C39            29.4402397893        7.8600565299       -5.5690794070  MEMB      161             0.0000000000
     18630       161  SLPC      H9X            28.9999180520        7.0202945275       -5.0272226432  MEMB      161             0.0000000000
     18631       161  SLPC      H9Y            28.5919338671        8.4232662707       -5.9076067941  MEMB      161             0.0000000000
     18632       161  SLPC      C310           30.0619426824        8.1688392471       -4.2705949352  MEMB      161             0.0000000000
     18633       161  SLPC      H10X           30.7805178900        8.9419434177       -4.5538439249  MEMB      161             0.0000000000
     18634       161  SLPC      H10Y           30.5573746062        7.2378854877       -3.8798905954  MEMB      161             0.0000000000
     18635       161  SLPC      C311           28.9408916795        8.6274832642       -3.3270944506  MEMB      161             0.0000000000
     18636       161  SLPC      H11X           28.5851266188        7.8216290307       -2.6385557530  MEMB      161             0.0000000000
     18637       161  SLPC      H11Y           28.0570907376        8.9833271217       -3.8940913912  MEMB      161             0.0000000000
     18638       161  SLPC      C312           29.4091213430        9.8281604632       -2.5558381306  MEMB      161             0.0000000000
     18639       161  SLPC      H12X           28.5411133616       10.3794455215       -2.1394939402  MEMB      161             0.0000000000
     18640       161  SLPC      H12Y           29.9375987402       10.5314394906       -3.2331254605  MEMB      161             0.0000000000
     18641       161  SLPC      C313           30.4262828061        9.3865268598       -1.5402407844  MEMB      161             0.0000000000
     18642       161  SLPC      H13X           31.2785449245        8.8957679373       -2.0683427372  MEMB      161             0.0000000000
     18643       161  SLPC      H13Y           29.9881486212        8.5971213064       -0.8812601872  MEMB      161             0.0000000000
     18644       161  SLPC      C314           30.9965130262       10.5973715946       -0.7894098458  MEMB      161             0.0000000000
     18645       161  SLPC      H14X           31.4745413902       11.3261646645       -1.4544034491  MEMB      161             0.0000000000
     18646       161  SLPC      H14Y           31.8797062914       10.2270145807       -0.2254520955  MEMB      161             0.0000000000
     18647       161  SLPC      C315           29.9803568431       11.3681758515        0.0721951032  MEMB      161             0.0000000000
     18648       161  SLPC      H15X           29.0227830980       10.8458822431        0.1721809839  MEMB      161             0.0000000000
     18649       161  SLPC      H15Y           29.6684907246       12.3115460724       -0.3920439144  MEMB      161             0.0000000000
     18650       161  SLPC      C316           30.5405354466       11.7945606813        1.3934599694  MEMB      161             0.0000000000
     18651       161  SLPC      H16X           30.9952377279       11.0168631208        2.0199989682  MEMB      161             0.0000000000
     18652       161  SLPC      H16Y           29.8263780185       12.2431839429        2.1224383747  MEMB      161             0.0000000000
     18653       161  SLPC      C317           31.7178581361       12.4939845857        1.1891754181  MEMB      161             0.0000000000
     18654       161  SLPC      H17X           31.6755689795       13.1722009713        0.3652746490  MEMB      161             0.0000000000
     18655       161  SLPC      H17Y           32.6071141467       11.8724727155        0.9101874565  MEMB      161             0.0000000000
     18656       161  SLPC      C318           31.7259620321       13.2202292180        2.4355244149  MEMB      161             0.0000000000
     18657       161  SLPC      H18X           31.0010666122       13.6734052345        3.0401216982  MEMB      161             0.0000000000
     18658       161  SLPC      H18Y           32.7050023252       13.5778688141        2.2861380710  MEMB      161             0.0000000000
     18659       161  SLPC      H18Z           31.9283809697       12.8919394622        3.4430770083  MEMB      161             0.0000000000
     18660       162  OSM       N             -19.5764954851       29.0001882224      -22.0263996027  MEMB      162             0.0000000000
     18661       162  OSM       C15           -18.9396066093       30.3493341475      -22.0098345588  MEMB      162             0.0000000000
     18662       162  OSM       H15A          -19.6602452885       31.1535693415      -22.0990828351  MEMB      162             0.0000000000
     18663       162  OSM       H15B          -18.2094620130       30.4502790593      -22.7988867326  MEMB      162             0.0000000000
     18664       162  OSM       H15C          -18.3775372049       30.4715471089      -21.0818783583  MEMB      162             0.0000000000
     18665       162  OSM       C14           -20.6085571841       28.9804192603      -20.9625967828  MEMB      162             0.0000000000
     18666       162  OSM       H14A          -21.4110363245       29.5987683717      -21.3244343711  MEMB      162             0.0000000000
     18667       162  OSM       H14B          -20.2113021936       29.4318919679      -20.0476851507  MEMB      162             0.0000000000
     18668       162  OSM       H14C          -21.0068940980       27.9957839003      -20.7354806069  MEMB      162             0.0000000000
     18669       162  OSM       C13           -20.2722114794       28.8303560160      -23.3228793730  MEMB      162             0.0000000000
     18670       162  OSM       H13A          -20.8750575752       29.6981049906      -23.5724133837  MEMB      162             0.0000000000
     18671       162  OSM       H13B          -20.9027244092       27.9568761273      -23.3059918547  MEMB      162             0.0000000000
     18672       162  OSM       H13C          -19.5445227922       28.7267228521      -24.1222554069  MEMB      162             0.0000000000
     18673       162  OSM       C12           -18.5317328171       27.8990239394      -21.9085231186  MEMB      162             0.0000000000
     18674       162  OSM       H12A          -17.8489449591       28.0237572827      -22.7437979560  MEMB      162             0.0000000000
     18675       162  OSM       H12B          -19.0309278976       26.9478012652      -22.0148267278  MEMB      162             0.0000000000
     18676       162  OSM       C11           -17.6617558350       27.7596479559      -20.6457832866  MEMB      162             0.0000000000
     18677       162  OSM       H11A          -16.9772356911       26.8937217237      -20.8372123338  MEMB      162             0.0000000000
     18678       162  OSM       H11B          -18.3007347826       27.4700638478      -19.7815867843  MEMB      162             0.0000000000
     18679       162  OSM       P             -15.3977545606       28.9008876559      -20.0812705313  MEMB      162             0.0000000000
     18680       162  OSM       O13           -15.1519328627       27.8389631380      -19.0838358858  MEMB      162             0.0000000000
     18681       162  OSM       O14           -14.7079806340       28.8509520809      -21.3989735507  MEMB      162             0.0000000000
     18682       162  OSM       O11           -15.0820763914       30.3287772556      -19.4219152715  MEMB      162             0.0000000000
     18683       162  OSM       O12           -16.9582715784       28.9699017470      -20.3772634693  MEMB      162             0.0000000000
     18684       162  OSM       C1S           -16.0871386538       31.1093762220      -18.7587406231  MEMB      162             0.0000000000
     18685       162  OSM       H1S           -17.0693357857       31.0755169998      -19.2791243671  MEMB      162             0.0000000000
     18686       162  OSM       H1T           -15.7709669481       32.1798767326      -18.7611605448  MEMB      162             0.0000000000
     18687       162  OSM       NF            -17.5753345789       31.1323955822      -16.7861201266  MEMB      162             0.0000000000
     18688       162  OSM       HNF           -17.5401443040       31.9811520024      -16.2741532866  MEMB      162             0.0000000000
     18689       162  OSM       C2S           -16.3497897389       30.6277312837      -17.2955149698  MEMB      162             0.0000000000
     18690       162  OSM       H2S           -16.3099773328       29.5132325992      -17.2897577428  MEMB      162             0.0000000000
     18691       162  OSM       C3S           -15.2653303988       31.0740261717      -16.3833691347  MEMB      162             0.0000000000
     18692       162  OSM       H3S           -15.3229483676       32.1977711050      -16.3848339013  MEMB      162             0.0000000000
     18693       162  OSM       O3            -14.0713948085       30.4410927625      -16.8064564948  MEMB      162             0.0000000000
     18694       162  OSM       HO3           -13.9616836940       30.6531006084      -17.7518521073  MEMB      162             0.0000000000
     18695       162  OSM       C4S           -15.3420439726       30.6379812594      -14.9873494656  MEMB      162             0.0000000000
     18696       162  OSM       H4S           -15.6183018999       29.5875740633      -14.9344600112  MEMB      162             0.0000000000
     18697       162  OSM       C5S           -15.2108467942       31.3264589407      -13.8406162664  MEMB      162             0.0000000000
     18698       162  OSM       H5S           -15.0178859632       32.4189015592      -13.8241901002  MEMB      162             0.0000000000
     18699       162  OSM       C6S           -15.3107795375       30.5099549449      -12.5763219287  MEMB      162             0.0000000000
     18700       162  OSM       H6S           -14.2640466480       30.2154861043      -12.3503223340  MEMB      162             0.0000000000
     18701       162  OSM       H6T           -15.8925799949       29.5750895452      -12.7609697700  MEMB      162             0.0000000000
     18702       162  OSM       C7S           -15.8123614226       31.0482329552      -11.2411768433  MEMB      162             0.0000000000
     18703       162  OSM       H7S           -16.8851044216       31.2433451748      -11.3770001794  MEMB      162             0.0000000000
     18704       162  OSM       H7T           -15.2803785484       31.9771521444      -10.9640039147  MEMB      162             0.0000000000
     18705       162  OSM       C8S           -15.7068709110       30.0695526696      -10.0604289641  MEMB      162             0.0000000000
     18706       162  OSM       H8S           -15.9943112376       29.0285542688      -10.3143809182  MEMB      162             0.0000000000
     18707       162  OSM       H8T           -16.4866666081       30.3848154540       -9.3369600372  MEMB      162             0.0000000000
     18708       162  OSM       C9S           -14.3669609140       30.1039408908       -9.3154946795  MEMB      162             0.0000000000
     18709       162  OSM       H9S           -14.0326538892       31.1548047714       -9.1445139006  MEMB      162             0.0000000000
     18710       162  OSM       H9T           -13.5794144890       29.5976780247       -9.9141584638  MEMB      162             0.0000000000
     18711       162  OSM       C10S          -14.5800193107       29.4616267864       -7.9403945072  MEMB      162             0.0000000000
     18712       162  OSM       H10S          -14.9077343241       28.4051102364       -8.0175527655  MEMB      162             0.0000000000
     18713       162  OSM       H10T          -15.3196509768       30.0914527552       -7.4003312131  MEMB      162             0.0000000000
     18714       162  OSM       C11S          -13.4251234562       29.4616079496       -7.0096314858  MEMB      162             0.0000000000
     18715       162  OSM       H11S          -13.1825438684       30.5148754902       -7.2563452845  MEMB      162             0.0000000000
     18716       162  OSM       H11T          -12.5800340496       29.9762058617       -6.7045090171  MEMB      162             0.0000000000
     18717       162  OSM       C12S          -13.4365141062       28.6224460166       -5.7173135759  MEMB      162             0.0000000000
     18718       162  OSM       H12S          -12.4892913335       28.7497749969       -5.1150824904  MEMB      162             0.0000000000
     18719       162  OSM       H12T          -13.4779630097       27.5406350110       -5.8596826647  MEMB      162             0.0000000000
     18720       162  OSM       C13S          -14.6351764354       29.0434942296       -4.9811872661  MEMB      162             0.0000000000
     18721       162  OSM       H13S          -15.5802761386       28.7199379227       -5.3427616744  MEMB      162             0.0000000000
     18722       162  OSM       H13T          -14.5855680330       30.0317046518       -5.3540411256  MEMB      162             0.0000000000
     18723       162  OSM       C14S          -14.4581909970       29.1517691460       -3.5324978785  MEMB      162             0.0000000000
     18724       162  OSM       H14S          -14.9562998488       29.9123651640       -2.9167279491  MEMB      162             0.0000000000
     18725       162  OSM       H14T          -13.7236588176       29.8181105953       -3.9001019873  MEMB      162             0.0000000000
     18726       162  OSM       C15S          -13.7849881424       27.9746852511       -2.8262543081  MEMB      162             0.0000000000
     18727       162  OSM       H15S          -13.0825925658       28.2121738586       -2.0124270867  MEMB      162             0.0000000000
     18728       162  OSM       H15T          -13.1305885586       27.3479679463       -3.4547815591  MEMB      162             0.0000000000
     18729       162  OSM       C16S          -14.8513374359       27.2900858454       -2.0707439799  MEMB      162             0.0000000000
     18730       162  OSM       H16S          -15.3245535207       27.9799762975       -1.3664834061  MEMB      162             0.0000000000
     18731       162  OSM       H16T          -14.3489487498       26.5066182941       -1.4845650725  MEMB      162             0.0000000000
     18732       162  OSM       C17S          -15.9227856621       26.8218940309       -3.0033368480  MEMB      162             0.0000000000
     18733       162  OSM       H17S          -15.4095636801       26.2356183979       -3.7984179420  MEMB      162             0.0000000000
     18734       162  OSM       H17T          -16.4239593424       27.6857576781       -3.4925982839  MEMB      162             0.0000000000
     18735       162  OSM       C18S          -16.9532774255       26.0037951368       -2.2580448266  MEMB      162             0.0000000000
     18736       162  OSM       H18S          -16.5058062115       25.0919887463       -1.8143719896  MEMB      162             0.0000000000
     18737       162  OSM       H18T          -17.7378813099       25.7232966411       -2.9841733853  MEMB      162             0.0000000000
     18738       162  OSM       H18U          -17.3901789137       26.5811319873       -1.4186780992  MEMB      162             0.0000000000
     18739       162  OSM       C1F           -18.7322745275       30.6098960220      -17.1133578879  MEMB      162             0.0000000000
     18740       162  OSM       OF            -18.8648092000       29.6503674124      -17.8598941327  MEMB      162             0.0000000000
     18741       162  OSM       C2F           -19.8762348290       31.2983270012      -16.4931681353  MEMB      162             0.0000000000
     18742       162  OSM       H2F           -20.3830936493       31.9541129682      -17.2288073740  MEMB      162             0.0000000000
     18743       162  OSM       H2G           -19.4882805638       31.9324230766      -15.6671476316  MEMB      162             0.0000000000
     18744       162  OSM       C3F           -20.8460239094       30.2831573371      -15.8938758366  MEMB      162             0.0000000000
     18745       162  OSM       H3F           -21.4106078918       29.7341381372      -16.6802092644  MEMB      162             0.0000000000
     18746       162  OSM       H3G           -21.5589886670       30.8906033051      -15.3174671134  MEMB      162             0.0000000000
     18747       162  OSM       C4F           -20.2097365188       29.2679325348      -14.9414741930  MEMB      162             0.0000000000
     18748       162  OSM       H4F           -19.4441234949       28.6958324796      -15.5137620692  MEMB      162             0.0000000000
     18749       162  OSM       H4G           -21.0103561092       28.5532770842      -14.6472510350  MEMB      162             0.0000000000
     18750       162  OSM       C5F           -19.5732794992       29.8720575467      -13.6811589906  MEMB      162             0.0000000000
     18751       162  OSM       H5F           -18.7628966840       30.6003195333      -13.9197403293  MEMB      162             0.0000000000
     18752       162  OSM       H5G           -19.1222880998       29.0431958101      -13.0897667609  MEMB      162             0.0000000000
     18753       162  OSM       C6F           -20.5599075240       30.5528443932      -12.7351795920  MEMB      162             0.0000000000
     18754       162  OSM       H6F           -21.3171949348       29.8313964198      -12.3820338362  MEMB      162             0.0000000000
     18755       162  OSM       H6G           -21.0546066145       31.4131497717      -13.2473676008  MEMB      162             0.0000000000
     18756       162  OSM       C7F           -19.7846995524       31.0923607174      -11.5467829709  MEMB      162             0.0000000000
     18757       162  OSM       H7F           -19.1356483086       31.7515611992      -12.1153612272  MEMB      162             0.0000000000
     18758       162  OSM       H7G           -19.1061889376       30.3483003622      -11.0810882937  MEMB      162             0.0000000000
     18759       162  OSM       C8F           -20.6450242507       31.8401303984      -10.5376080325  MEMB      162             0.0000000000
     18760       162  OSM       H8F           -21.4044399173       32.4357963273      -11.0858933671  MEMB      162             0.0000000000
     18761       162  OSM       H8G           -20.2088839023       32.6703770749       -9.9780984667  MEMB      162             0.0000000000
     18762       162  OSM       C9F           -21.2853163649       30.8323623178       -9.6416081911  MEMB      162             0.0000000000
     18763       162  OSM       H9F           -22.1943801322       30.5555961232      -10.0940781278  MEMB      162             0.0000000000
     18764       162  OSM       C10F          -20.9711063838       29.9636073345       -8.6946552317  MEMB      162             0.0000000000
     18765       162  OSM       H10F          -21.7840224286       29.4205097627       -8.1827985788  MEMB      162             0.0000000000
     18766       162  OSM       C11F          -19.6204265092       29.7234088758       -8.1807503347  MEMB      162             0.0000000000
     18767       162  OSM       H11F          -18.9546809282       30.3861359725       -8.6928213723  MEMB      162             0.0000000000
     18768       162  OSM       H11G          -19.2436167507       28.7676890088       -8.5744050125  MEMB      162             0.0000000000
     18769       162  OSM       C12F          -19.5902765780       29.8366151388       -6.6588315635  MEMB      162             0.0000000000
     18770       162  OSM       H12F          -18.5370911092       29.6478882933       -6.3352094843  MEMB      162             0.0000000000
     18771       162  OSM       H12G          -20.2372148945       29.0563635713       -6.2343795165  MEMB      162             0.0000000000
     18772       162  OSM       C13F          -20.1404678686       31.1396762626       -6.0644306775  MEMB      162             0.0000000000
     18773       162  OSM       H13F          -21.1753845250       31.4380804107       -6.2617885781  MEMB      162             0.0000000000
     18774       162  OSM       H13G          -19.6612645228       31.8784464868       -6.7220399043  MEMB      162             0.0000000000
     18775       162  OSM       C14F          -19.8614602602       31.2056842905       -4.5326170722  MEMB      162             0.0000000000
     18776       162  OSM       H14F          -19.6061154236       32.1720533418       -4.0823665273  MEMB      162             0.0000000000
     18777       162  OSM       H14G          -18.9821194889       30.5868062935       -4.2790278674  MEMB      162             0.0000000000
     18778       162  OSM       C15F          -21.0648583742       31.0813392725       -3.6692604048  MEMB      162             0.0000000000
     18779       162  OSM       H15F          -21.1671792906       30.0099304680       -3.5696767086  MEMB      162             0.0000000000
     18780       162  OSM       H15G          -21.9085154495       31.5120868567       -4.2506017873  MEMB      162             0.0000000000
     18781       162  OSM       C16F          -20.9121575414       31.7339314663       -2.2819752561  MEMB      162             0.0000000000
     18782       162  OSM       H16F          -21.8859932913       31.6278247295       -1.7669766361  MEMB      162             0.0000000000
     18783       162  OSM       H16G          -20.7047521852       32.8289788658       -2.3738311826  MEMB      162             0.0000000000
     18784       162  OSM       C17F          -19.8305926556       31.0982565104       -1.3823743362  MEMB      162             0.0000000000
     18785       162  OSM       H17F          -18.9136607632       30.8371487877       -1.9630093913  MEMB      162             0.0000000000
     18786       162  OSM       H17G          -20.1516352871       30.1096538193       -1.0349384553  MEMB      162             0.0000000000
     18787       162  OSM       C18F          -19.4573214220       32.0150328441       -0.1948903458  MEMB      162             0.0000000000
     18788       162  OSM       H18F          -20.3491362527       32.2363753685        0.4141427356  MEMB      162             0.0000000000
     18789       162  OSM       H18G          -19.0493468056       33.0074115064       -0.5017200327  MEMB      162             0.0000000000
     18790       162  OSM       H18H          -18.6722366715       31.5277116582        0.4123088132  MEMB      162             0.0000000000
     18791       163  OSM       N               0.2504049212      -33.7502147075      -22.8125724086  MEMB      163             0.0000000000
     18792       163  OSM       C15            -0.3743114934      -33.7557534480      -24.1560269839  MEMB      163             0.0000000000
     18793       163  OSM       H15A            0.3532995763      -33.3982719288      -24.8485313535  MEMB      163             0.0000000000
     18794       163  OSM       H15B           -1.2435926971      -33.1067615833      -24.1552498325  MEMB      163             0.0000000000
     18795       163  OSM       H15C           -0.6836315670      -34.7370670948      -24.4775575900  MEMB      163             0.0000000000
     18796       163  OSM       C14             0.6878998850      -32.3358022222      -22.5865941735  MEMB      163             0.0000000000
     18797       163  OSM       H14A            0.2068207965      -31.6849232579      -23.3108262472  MEMB      163             0.0000000000
     18798       163  OSM       H14B            1.7648022078      -32.2159592410      -22.6483178439  MEMB      163             0.0000000000
     18799       163  OSM       H14C            0.3937434875      -31.9433018963      -21.6031272362  MEMB      163             0.0000000000
     18800       163  OSM       C13            -0.8426445738      -34.1250333239      -21.8573985560  MEMB      163             0.0000000000
     18801       163  OSM       H13A           -1.3232632523      -35.0533209590      -22.1412473700  MEMB      163             0.0000000000
     18802       163  OSM       H13B           -1.6127023771      -33.3520502523      -21.8435606391  MEMB      163             0.0000000000
     18803       163  OSM       H13C           -0.4411883325      -34.2393969539      -20.8541670017  MEMB      163             0.0000000000
     18804       163  OSM       C12             1.3975369536      -34.7646814475      -22.8069712881  MEMB      163             0.0000000000
     18805       163  OSM       H12A            2.0193617502      -34.6086043285      -23.6851223838  MEMB      163             0.0000000000
     18806       163  OSM       H12B            0.9715856395      -35.7554990591      -22.8853788161  MEMB      163             0.0000000000
     18807       163  OSM       C11             2.3466095613      -34.8868475341      -21.5996215635  MEMB      163             0.0000000000
     18808       163  OSM       H11A            3.0283301015      -33.9939776997      -21.5965439962  MEMB      163             0.0000000000
     18809       163  OSM       H11B            2.9601080264      -35.8110006943      -21.7665239261  MEMB      163             0.0000000000
     18810       163  OSM       P               2.3669971153      -34.6037066608      -19.0626389035  MEMB      163             0.0000000000
     18811       163  OSM       O13             3.3607271455      -35.6349345440      -18.7353554790  MEMB      163             0.0000000000
     18812       163  OSM       O14             2.8138739091      -33.2028173144      -19.1308020246  MEMB      163             0.0000000000
     18813       163  OSM       O11             1.2649071233      -34.7358566820      -17.9749513470  MEMB      163             0.0000000000
     18814       163  OSM       O12             1.6017240464      -35.0510050017      -20.3935192445  MEMB      163             0.0000000000
     18815       163  OSM       C1S            -0.1201647126      -34.5123111597      -18.0578435750  MEMB      163             0.0000000000
     18816       163  OSM       H1S            -0.5770764676      -35.1594305491      -18.8348054783  MEMB      163             0.0000000000
     18817       163  OSM       H1T            -0.3467363898      -33.4573928752      -18.3178092849  MEMB      163             0.0000000000
     18818       163  OSM       NF             -0.1502070694      -33.9883813690      -15.6561265944  MEMB      163             0.0000000000
     18819       163  OSM       HNF             0.6231813356      -34.1521141294      -15.0865918939  MEMB      163             0.0000000000
     18820       163  OSM       C2S            -0.6311975186      -34.8891128512      -16.6531351302  MEMB      163             0.0000000000
     18821       163  OSM       H2S            -1.7710583017      -34.9320967084      -16.6829105654  MEMB      163             0.0000000000
     18822       163  OSM       C3S            -0.0873872752      -36.2355322418      -16.3128754979  MEMB      163             0.0000000000
     18823       163  OSM       H3S             0.9972120857      -36.3293221286      -16.3825184048  MEMB      163             0.0000000000
     18824       163  OSM       O3             -0.7215447940      -37.2412628697      -17.1353355734  MEMB      163             0.0000000000
     18825       163  OSM       HO3            -1.1482590208      -36.6895970513      -17.8112568145  MEMB      163             0.0000000000
     18826       163  OSM       C4S            -0.2463953230      -36.3750350119      -14.8316995335  MEMB      163             0.0000000000
     18827       163  OSM       H4S            -1.1458026458      -35.7747069641      -14.5922846634  MEMB      163             0.0000000000
     18828       163  OSM       C5S             0.4437792831      -36.9453241782      -13.8524678521  MEMB      163             0.0000000000
     18829       163  OSM       H5S             1.4284128760      -37.2052568306      -14.1417549505  MEMB      163             0.0000000000
     18830       163  OSM       C6S             0.2475579037      -37.1084812036      -12.3586695616  MEMB      163             0.0000000000
     18831       163  OSM       H6S             1.0848109730      -36.8110632268      -11.7467459655  MEMB      163             0.0000000000
     18832       163  OSM       H6T             0.1173552715      -38.2173742105      -12.2052525413  MEMB      163             0.0000000000
     18833       163  OSM       C7S            -0.7336933645      -36.3560724051      -11.4932514632  MEMB      163             0.0000000000
     18834       163  OSM       H7S            -1.4349002506      -36.3575431366      -12.3266745336  MEMB      163             0.0000000000
     18835       163  OSM       H7T            -1.0373086223      -35.3060636500      -11.5906871456  MEMB      163             0.0000000000
     18836       163  OSM       C8S            -0.9976324529      -37.1090495661      -10.0789043182  MEMB      163             0.0000000000
     18837       163  OSM       H8S            -1.5278461235      -38.0824492008       -9.9212395455  MEMB      163             0.0000000000
     18838       163  OSM       H8T            -1.7911703904      -36.7321959572       -9.5156568257  MEMB      163             0.0000000000
     18839       163  OSM       C9S             0.0126499374      -36.9141037635       -9.0175358079  MEMB      163             0.0000000000
     18840       163  OSM       H9S             0.7359417926      -36.4504505010       -9.6914600214  MEMB      163             0.0000000000
     18841       163  OSM       H9T             0.0786283345      -37.9666366658       -8.6404172132  MEMB      163             0.0000000000
     18842       163  OSM       C10S           -0.3001706094      -35.9754513504       -7.8600252215  MEMB      163             0.0000000000
     18843       163  OSM       H10S            0.3585783448      -35.9452180119       -6.9907690858  MEMB      163             0.0000000000
     18844       163  OSM       H10T           -0.9076159554      -36.6668585720       -7.2830467520  MEMB      163             0.0000000000
     18845       163  OSM       C11S           -0.6788283256      -34.5290983306       -8.3348644737  MEMB      163             0.0000000000
     18846       163  OSM       H11S           -1.6910809065      -34.3364446572       -8.7272964722  MEMB      163             0.0000000000
     18847       163  OSM       H11T           -0.0580617461      -34.3163524885       -9.2218163025  MEMB      163             0.0000000000
     18848       163  OSM       C12S           -0.4428855320      -33.4025679091       -7.3397236107  MEMB      163             0.0000000000
     18849       163  OSM       H12S           -0.5900971510      -32.3678898567       -7.7277252546  MEMB      163             0.0000000000
     18850       163  OSM       H12T            0.4402719756      -33.5577415092       -6.6939868295  MEMB      163             0.0000000000
     18851       163  OSM       C13S           -1.4571530851      -33.3699735437       -6.3093074195  MEMB      163             0.0000000000
     18852       163  OSM       H13S           -1.3915884891      -34.4022374155       -5.8856402153  MEMB      163             0.0000000000
     18853       163  OSM       H13T           -2.4367894747      -33.3398715295       -6.8208951520  MEMB      163             0.0000000000
     18854       163  OSM       C14S           -1.1506317112      -32.2216218254       -5.2952913777  MEMB      163             0.0000000000
     18855       163  OSM       H14S           -1.9141100375      -31.8271170371       -4.5979766160  MEMB      163             0.0000000000
     18856       163  OSM       H14T           -1.2529958313      -31.2070542237       -5.6659361233  MEMB      163             0.0000000000
     18857       163  OSM       C15S           -0.3406391560      -32.6899734007       -4.1093344849  MEMB      163             0.0000000000
     18858       163  OSM       H15S            0.3394950502      -33.5144561737       -4.3781140260  MEMB      163             0.0000000000
     18859       163  OSM       H15T           -0.9280328277      -33.2463380010       -3.3275512438  MEMB      163             0.0000000000
     18860       163  OSM       C16S            0.3383458813      -31.4477502653       -3.5426399974  MEMB      163             0.0000000000
     18861       163  OSM       H16S            1.2678659563      -31.3590523268       -4.0831408384  MEMB      163             0.0000000000
     18862       163  OSM       H16T            0.9325770687      -31.6441496857       -2.6751425920  MEMB      163             0.0000000000
     18863       163  OSM       C17S           -0.5001801526      -30.1601361089       -3.2760492996  MEMB      163             0.0000000000
     18864       163  OSM       H17S           -1.3153191471      -30.0462645984       -2.6073659959  MEMB      163             0.0000000000
     18865       163  OSM       H17T           -1.1408560024      -29.8766940299       -4.0957436031  MEMB      163             0.0000000000
     18866       163  OSM       C18S            0.1280414958      -29.1476048084       -2.3781438144  MEMB      163             0.0000000000
     18867       163  OSM       H18S           -0.5831673390      -28.3562478906       -2.0303802641  MEMB      163             0.0000000000
     18868       163  OSM       H18T            0.9005868903      -28.8230072176       -3.0631238704  MEMB      163             0.0000000000
     18869       163  OSM       H18U            0.6074170094      -29.4987122524       -1.4317323529  MEMB      163             0.0000000000
     18870       163  OSM       C1F            -0.5851980424      -32.8818935168      -15.6825396067  MEMB      163             0.0000000000
     18871       163  OSM       OF             -1.7716645672      -32.8970616230      -15.9512256512  MEMB      163             0.0000000000
     18872       163  OSM       C2F             0.4825184948      -31.8154260137      -15.5137934044  MEMB      163             0.0000000000
     18873       163  OSM       H2F             0.1496835767      -30.8427057361      -15.1789302866  MEMB      163             0.0000000000
     18874       163  OSM       H2G             1.0557341542      -31.6568794654      -16.4555826239  MEMB      163             0.0000000000
     18875       163  OSM       C3F             1.3204316129      -31.9169555503      -14.2605337421  MEMB      163             0.0000000000
     18876       163  OSM       H3F             2.0798855899      -31.1010939812      -14.3909924519  MEMB      163             0.0000000000
     18877       163  OSM       H3G             1.7741310190      -32.9121864437      -14.2674242732  MEMB      163             0.0000000000
     18878       163  OSM       C4F             0.5381531811      -31.6599259793      -12.9612579191  MEMB      163             0.0000000000
     18879       163  OSM       H4F            -0.2274284661      -32.4189209391      -12.7336107987  MEMB      163             0.0000000000
     18880       163  OSM       H4G            -0.0279608021      -30.7623769003      -12.9522202172  MEMB      163             0.0000000000
     18881       163  OSM       C5F             1.4325736532      -31.3270039314      -11.8023603956  MEMB      163             0.0000000000
     18882       163  OSM       H5F             1.9615828362      -30.3528448240      -11.9535195793  MEMB      163             0.0000000000
     18883       163  OSM       H5G             2.1848041487      -32.1270625032      -11.9007987692  MEMB      163             0.0000000000
     18884       163  OSM       C6F             0.6748952507      -31.2921919473      -10.4651153189  MEMB      163             0.0000000000
     18885       163  OSM       H6F             0.1084979198      -32.2364027944      -10.2919681947  MEMB      163             0.0000000000
     18886       163  OSM       H6G            -0.0264636911      -30.4367003453      -10.3825386852  MEMB      163             0.0000000000
     18887       163  OSM       C7F             1.7106259565      -31.2194374666       -9.3856362723  MEMB      163             0.0000000000
     18888       163  OSM       H7F             1.2847920255      -31.2200218644       -8.3547673875  MEMB      163             0.0000000000
     18889       163  OSM       H7G             2.1668573332      -30.1795632468       -9.5013513524  MEMB      163             0.0000000000
     18890       163  OSM       C8F             2.6158156348      -32.4822647029       -9.6026409399  MEMB      163             0.0000000000
     18891       163  OSM       H8F             3.3132064554      -32.1959599455      -10.4896164656  MEMB      163             0.0000000000
     18892       163  OSM       H8G             2.1524260645      -33.4378236735       -9.6495941225  MEMB      163             0.0000000000
     18893       163  OSM       C9F             3.7145997578      -32.6286823631       -8.7323676994  MEMB      163             0.0000000000
     18894       163  OSM       H9F             3.6959018615      -31.5228711331       -8.8956645524  MEMB      163             0.0000000000
     18895       163  OSM       C10F            4.2529247692      -33.3353319942       -7.6947518128  MEMB      163             0.0000000000
     18896       163  OSM       H10F            4.9534912649      -33.0229591043       -6.9036380808  MEMB      163             0.0000000000
     18897       163  OSM       C11F            3.7833955143      -34.6955193029       -7.5346636691  MEMB      163             0.0000000000
     18898       163  OSM       H11F            4.7256358768      -35.2429055044       -7.6606057086  MEMB      163             0.0000000000
     18899       163  OSM       H11G            3.0416250768      -34.8934234936       -8.2924814229  MEMB      163             0.0000000000
     18900       163  OSM       C12F            3.2122438605      -34.7914136734       -6.0862609443  MEMB      163             0.0000000000
     18901       163  OSM       H12F            3.1012749096      -35.8582395371       -6.1565566245  MEMB      163             0.0000000000
     18902       163  OSM       H12G            2.1728181904      -34.5082088991       -5.9410474581  MEMB      163             0.0000000000
     18903       163  OSM       C13F            4.1175946683      -34.4180192678       -4.8616085753  MEMB      163             0.0000000000
     18904       163  OSM       H13F            3.9911563146      -33.3893869058       -4.5038444182  MEMB      163             0.0000000000
     18905       163  OSM       H13G            5.1867535776      -34.5496153702       -5.1609754421  MEMB      163             0.0000000000
     18906       163  OSM       C14F            3.9376234969      -35.2695223876       -3.6044775058  MEMB      163             0.0000000000
     18907       163  OSM       H14F            4.6428591880      -34.9503460106       -2.8018247841  MEMB      163             0.0000000000
     18908       163  OSM       H14G            4.0937345168      -36.3421974925       -3.7259741289  MEMB      163             0.0000000000
     18909       163  OSM       C15F            2.6079941562      -35.3356080798       -3.0077481169  MEMB      163             0.0000000000
     18910       163  OSM       H15F            1.9041045775      -36.0106940830       -3.5644408087  MEMB      163             0.0000000000
     18911       163  OSM       H15G            2.2150373318      -34.3204715513       -2.9146814788  MEMB      163             0.0000000000
     18912       163  OSM       C16F            2.8803941698      -35.9725771361       -1.6972600708  MEMB      163             0.0000000000
     18913       163  OSM       H16F            3.5554629305      -35.4542386247       -0.9703153011  MEMB      163             0.0000000000
     18914       163  OSM       H16G            3.4523274383      -36.8970586705       -1.8792826353  MEMB      163             0.0000000000
     18915       163  OSM       C17F            1.5131861064      -36.2324963545       -1.2273664459  MEMB      163             0.0000000000
     18916       163  OSM       H17F            1.5280513946      -37.1078039944       -0.7127021900  MEMB      163             0.0000000000
     18917       163  OSM       H17G            0.5852980746      -36.2875556750       -1.8022601232  MEMB      163             0.0000000000
     18918       163  OSM       C18F            1.2825873816      -35.6325799698       -0.0368453360  MEMB      163             0.0000000000
     18919       163  OSM       H18F            2.1319146207      -35.1982707473        0.4364257330  MEMB      163             0.0000000000
     18920       163  OSM       H18G            0.4016025529      -35.9330376505        0.5362327124  MEMB      163             0.0000000000
     18921       163  OSM       H18H            0.9664826588      -34.7855475528       -0.2628575069  MEMB      163             0.0000000000
     18922       164  SAPE      N              28.5639972136       17.5068424631      -22.4454068600  MEMB      164             0.0000000000
     18923       164  SAPE      HN1            28.4406695641       17.2801824291      -23.4460685883  MEMB      164             0.0000000000
     18924       164  SAPE      HN2            28.0445047844       16.8183857545      -21.8581170763  MEMB      164             0.0000000000
     18925       164  SAPE      HN3            28.1792079333       18.4592553699      -22.2588710528  MEMB      164             0.0000000000
     18926       164  SAPE      C12            30.0311108643       17.4625119085      -22.0954234962  MEMB      164             0.0000000000
     18927       164  SAPE      H12A           30.4871668018       18.3924150799      -22.4942140695  MEMB      164             0.0000000000
     18928       164  SAPE      H12B           30.4816598204       16.5743730023      -22.5815072002  MEMB      164             0.0000000000
     18929       164  SAPE      C11            30.2542879074       17.3864837633      -20.5831856849  MEMB      164             0.0000000000
     18930       164  SAPE      H11A           31.3051879858       17.1279915906      -20.3334033896  MEMB      164             0.0000000000
     18931       164  SAPE      H11B           29.6171915226       16.5516770981      -20.1798589925  MEMB      164             0.0000000000
     18932       164  SAPE      P              28.8209111344       18.7655026800      -18.9996414316  MEMB      164             0.0000000000
     18933       164  SAPE      O13            28.7554723941       20.1109580520      -18.4070173593  MEMB      164             0.0000000000
     18934       164  SAPE      O14            27.6664713445       18.2837488595      -19.7965928914  MEMB      164             0.0000000000
     18935       164  SAPE      O12            29.9983027428       18.6797979197      -20.0268997756  MEMB      164             0.0000000000
     18936       164  SAPE      O11            29.2276014540       17.6616037020      -17.9497289513  MEMB      164             0.0000000000
     18937       164  SAPE      C1             28.1894984206       17.0983460311      -17.1573984868  MEMB      164             0.0000000000
     18938       164  SAPE      HA             27.1846234996       17.1607571047      -17.6434980028  MEMB      164             0.0000000000
     18939       164  SAPE      HB             28.3879556545       16.0177752853      -16.9910474647  MEMB      164             0.0000000000
     18940       164  SAPE      C2             28.1291190949       17.8280828831      -15.8133913060  MEMB      164             0.0000000000
     18941       164  SAPE      HS             28.0216795364       18.9280182285      -16.0078813636  MEMB      164             0.0000000000
     18942       164  SAPE      O21            29.3048984485       17.5189696871      -15.0430855888  MEMB      164             0.0000000000
     18943       164  SAPE      C21            29.6437083796       18.4321452685      -14.1630768439  MEMB      164             0.0000000000
     18944       164  SAPE      O22            29.1353335218       19.5222422425      -14.0016781817  MEMB      164             0.0000000000
     18945       164  SAPE      C22            30.6751055143       17.8573732580      -13.2264940880  MEMB      164             0.0000000000
     18946       164  SAPE      H2R            31.2601757238       17.0913507366      -13.7591429802  MEMB      164             0.0000000000
     18947       164  SAPE      H2S            31.3465905401       18.6497046986      -12.8395251816  MEMB      164             0.0000000000
     18948       164  SAPE      C3             26.8801494415       17.3979672605      -15.0613916128  MEMB      164             0.0000000000
     18949       164  SAPE      HX             27.0451514590       16.4110327084      -14.5667542439  MEMB      164             0.0000000000
     18950       164  SAPE      HY             26.0563171262       17.2518322643      -15.8137111126  MEMB      164             0.0000000000
     18951       164  SAPE      O31            26.6270438524       18.4651230401      -14.1208042324  MEMB      164             0.0000000000
     18952       164  SAPE      C31            25.4683517811       18.3052288491      -13.6142359875  MEMB      164             0.0000000000
     18953       164  SAPE      O32            24.7481402696       17.3615748274      -13.9136428828  MEMB      164             0.0000000000
     18954       164  SAPE      C32            25.2219756859       19.4199767346      -12.5978079018  MEMB      164             0.0000000000
     18955       164  SAPE      H2X            24.7789196203       20.3726789457      -12.9274661155  MEMB      164             0.0000000000
     18956       164  SAPE      H2Y            26.1091243963       19.8147161591      -12.1304011503  MEMB      164             0.0000000000
     18957       164  SAPE      C23            29.8921372276       17.2848748962      -12.0511066951  MEMB      164             0.0000000000
     18958       164  SAPE      H3R            29.0285626142       16.6659047561      -12.4035791623  MEMB      164             0.0000000000
     18959       164  SAPE      H3S            29.4897317624       18.1372082551      -11.4560854241  MEMB      164             0.0000000000
     18960       164  SAPE      C24            30.7435821558       16.3404931586      -11.2225676348  MEMB      164             0.0000000000
     18961       164  SAPE      H4R            31.0476642169       15.5036155863      -11.8804776400  MEMB      164             0.0000000000
     18962       164  SAPE      H4S            30.0572114259       15.9539839884      -10.4370184543  MEMB      164             0.0000000000
     18963       164  SAPE      C25            31.9999834898       16.8945529222      -10.6375102646  MEMB      164             0.0000000000
     18964       164  SAPE      H5R            32.8863349118       16.8626897617      -11.2689726716  MEMB      164             0.0000000000
     18965       164  SAPE      C26            32.0637899882       17.4880070133       -9.4593924204  MEMB      164             0.0000000000
     18966       164  SAPE      H6R            33.0438723980       17.8314525325       -9.0732621819  MEMB      164             0.0000000000
     18967       164  SAPE      C27            30.8369579088       17.6599830012       -8.6114864438  MEMB      164             0.0000000000
     18968       164  SAPE      H7R            30.3469539751       16.7592700610       -8.2354312300  MEMB      164             0.0000000000
     18969       164  SAPE      H7S            30.1071498419       18.3488163071       -9.1194716271  MEMB      164             0.0000000000
     18970       164  SAPE      C28            31.2918690331       18.3153077995       -7.4078933635  MEMB      164             0.0000000000
     18971       164  SAPE      H8R            31.1644290207       19.3045674287       -7.6212777045  MEMB      164             0.0000000000
     18972       164  SAPE      C29            31.7192994308       17.9867031270       -6.2084848716  MEMB      164             0.0000000000
     18973       164  SAPE      H9R            32.1719112515       18.6765153268       -5.5255120658  MEMB      164             0.0000000000
     18974       164  SAPE      C210           31.9031578980       16.7150280047       -5.6179032273  MEMB      164             0.0000000000
     18975       164  SAPE      H10R           32.8946585543       16.8285859111       -5.1242515827  MEMB      164             0.0000000000
     18976       164  SAPE      H10S           31.8993764775       16.0875280028       -6.4903788071  MEMB      164             0.0000000000
     18977       164  SAPE      C211           30.7536477065       16.4053693189       -4.7201877389  MEMB      164             0.0000000000
     18978       164  SAPE      H11R           29.7870771696       16.1845667491       -5.1798155207  MEMB      164             0.0000000000
     18979       164  SAPE      C212           30.8444079642       16.2983680295       -3.4069615063  MEMB      164             0.0000000000
     18980       164  SAPE      H12R           29.9533892480       16.0491172119       -2.8210955385  MEMB      164             0.0000000000
     18981       164  SAPE      C213           32.0874451932       16.4738756366       -2.6164473706  MEMB      164             0.0000000000
     18982       164  SAPE      H13R           32.9989305773       16.8296657595       -3.1309196602  MEMB      164             0.0000000000
     18983       164  SAPE      H13S           32.3347142369       15.6267628071       -1.9584759112  MEMB      164             0.0000000000
     18984       164  SAPE      C214           31.7062994955       17.6366800805       -1.8633712848  MEMB      164             0.0000000000
     18985       164  SAPE      H14R           31.5867843331       18.5515152591       -2.4463130521  MEMB      164             0.0000000000
     18986       164  SAPE      C215           31.4622081089       17.6531607239       -0.6026344511  MEMB      164             0.0000000000
     18987       164  SAPE      H15R           31.2207377440       18.5375944723        0.0105246655  MEMB      164             0.0000000000
     18988       164  SAPE      C216           31.4859090488       16.5633955347        0.2450906081  MEMB      164             0.0000000000
     18989       164  SAPE      H16R           30.5947248051       15.9651868969       -0.0247764783  MEMB      164             0.0000000000
     18990       164  SAPE      H16S           31.4349477280       17.1658823559        1.1574542190  MEMB      164             0.0000000000
     18991       164  SAPE      C217           32.5524932779       15.8029965010        0.6614618253  MEMB      164             0.0000000000
     18992       164  SAPE      H17R           33.4893740774       15.8659676318        0.1439367016  MEMB      164             0.0000000000
     18993       164  SAPE      H17S           32.1645529023       14.8291341391        0.4568508546  MEMB      164             0.0000000000
     18994       164  SAPE      C218           32.6427346631       15.9584847185        2.1266719192  MEMB      164             0.0000000000
     18995       164  SAPE      H18R           33.3522759829       15.2379015496        2.0125173456  MEMB      164             0.0000000000
     18996       164  SAPE      H18S           31.8773672432       15.4646634246        2.7051051061  MEMB      164             0.0000000000
     18997       164  SAPE      C219           33.2806883309       17.0935998515        2.8755923891  MEMB      164             0.0000000000
     18998       164  SAPE      H19R           33.4309962391       17.3535084695        3.9044039118  MEMB      164             0.0000000000
     18999       164  SAPE      H19S           32.5294537169       17.8557277975        3.0958949044  MEMB      164             0.0000000000
     19000       164  SAPE      C220           34.8768238447       17.0691527059        2.8192889919  MEMB      164             0.0000000000
     19001       164  SAPE      H20R           35.5038329359       17.9143029283        2.9632049044  MEMB      164             0.0000000000
     19002       164  SAPE      H20S           34.2491460762       17.2696499194        2.0122633780  MEMB      164             0.0000000000
     19003       164  SAPE      H20T           35.5027331174       16.3804155141        2.2655750083  MEMB      164             0.0000000000
     19004       164  SAPE      C33            24.4686238755       18.8449578801      -11.4679388230  MEMB      164             0.0000000000
     19005       164  SAPE      H3X            23.9512690939       17.9168832236      -11.6113692515  MEMB      164             0.0000000000
     19006       164  SAPE      H3Y            23.5488395963       19.3656218123      -11.7588527522  MEMB      164             0.0000000000
     19007       164  SAPE      C34            25.0207865709       19.1578285828      -10.0292212728  MEMB      164             0.0000000000
     19008       164  SAPE      H4X            24.3914485773       18.7708343061       -9.1431933228  MEMB      164             0.0000000000
     19009       164  SAPE      H4Y            25.0939976314       20.2295725388       -9.8413876207  MEMB      164             0.0000000000
     19010       164  SAPE      C35            26.2033968228       18.4720673396       -9.5808449190  MEMB      164             0.0000000000
     19011       164  SAPE      H5X            26.1538269548       18.5405420124       -8.4526779789  MEMB      164             0.0000000000
     19012       164  SAPE      H5Y            27.0451651001       18.8016147630      -10.1613485594  MEMB      164             0.0000000000
     19013       164  SAPE      C36            26.1095240989       17.0829752230       -9.8822732855  MEMB      164             0.0000000000
     19014       164  SAPE      H6X            25.9347356042       16.6886395064      -10.8831741163  MEMB      164             0.0000000000
     19015       164  SAPE      H6Y            25.0872671296       17.1795843333       -9.6434615075  MEMB      164             0.0000000000
     19016       164  SAPE      C37            27.1185652395       16.3270212029       -9.0786369947  MEMB      164             0.0000000000
     19017       164  SAPE      H7X            28.1018621913       16.6071647769       -9.4189096468  MEMB      164             0.0000000000
     19018       164  SAPE      H7Y            26.9962420945       15.2760655371       -9.2414446979  MEMB      164             0.0000000000
     19019       164  SAPE      C38            27.0823008781       16.0363260793       -7.6340300821  MEMB      164             0.0000000000
     19020       164  SAPE      H8X            27.8432733460       15.2406201100       -7.4028901477  MEMB      164             0.0000000000
     19021       164  SAPE      H8Y            26.0945293473       15.6478462125       -7.4356568533  MEMB      164             0.0000000000
     19022       164  SAPE      C39            26.7664729856       17.0259119298       -6.6782799624  MEMB      164             0.0000000000
     19023       164  SAPE      H9X            25.7009448160       17.3963829117       -6.8377222968  MEMB      164             0.0000000000
     19024       164  SAPE      H9Y            27.6407666451       17.6520415233       -6.7890012532  MEMB      164             0.0000000000
     19025       164  SAPE      C310           26.7887221731       16.4444011793       -5.3522374258  MEMB      164             0.0000000000
     19026       164  SAPE      H10X           27.6539736120       15.7428244203       -5.2485162091  MEMB      164             0.0000000000
     19027       164  SAPE      H10Y           25.8543027209       15.8976040570       -5.3958873800  MEMB      164             0.0000000000
     19028       164  SAPE      C311           26.5937040196       17.6249556045       -4.4343026521  MEMB      164             0.0000000000
     19029       164  SAPE      H11X           25.6760701376       18.1195372758       -4.7980526399  MEMB      164             0.0000000000
     19030       164  SAPE      H11Y           27.5546324880       18.1370996689       -4.4391832509  MEMB      164             0.0000000000
     19031       164  SAPE      C312           26.4379445423       17.2941326599       -3.0203262611  MEMB      164             0.0000000000
     19032       164  SAPE      H12X           27.4434563086       16.9288123839       -2.7225841520  MEMB      164             0.0000000000
     19033       164  SAPE      H12Y           25.6721579695       16.5485994128       -3.1824883466  MEMB      164             0.0000000000
     19034       164  SAPE      C313           25.9829210388       17.9718249156       -1.7643813450  MEMB      164             0.0000000000
     19035       164  SAPE      H13X           25.4789179532       17.3962620818       -0.9511830192  MEMB      164             0.0000000000
     19036       164  SAPE      H13Y           25.3457154973       18.7858556762       -1.8444032613  MEMB      164             0.0000000000
     19037       164  SAPE      C314           27.1331941507       18.4967285197       -1.1962476130  MEMB      164             0.0000000000
     19038       164  SAPE      H14X           27.6247959940       18.8590351468       -2.1304333563  MEMB      164             0.0000000000
     19039       164  SAPE      H14Y           27.7551824557       17.7422235735       -0.7394988473  MEMB      164             0.0000000000
     19040       164  SAPE      C315           26.5409223079       19.4773818521       -0.2440903530  MEMB      164             0.0000000000
     19041       164  SAPE      H15X           25.9153472541       20.2236769913       -0.6476505818  MEMB      164             0.0000000000
     19042       164  SAPE      H15Y           27.4386567975       20.0268479097        0.0751028111  MEMB      164             0.0000000000
     19043       164  SAPE      C316           25.6176805385       18.9865971711        0.7816678713  MEMB      164             0.0000000000
     19044       164  SAPE      H16X           26.0863433635       18.1002070038        1.2440776727  MEMB      164             0.0000000000
     19045       164  SAPE      H16Y           24.6489577322       18.6524298982        0.4020675757  MEMB      164             0.0000000000
     19046       164  SAPE      C317           25.3162706872       20.1901353307        1.6103569455  MEMB      164             0.0000000000
     19047       164  SAPE      H17X           25.0312374019       19.5775723040        2.4993608563  MEMB      164             0.0000000000
     19048       164  SAPE      H17Y           24.4701394417       20.7605363420        1.3227199646  MEMB      164             0.0000000000
     19049       164  SAPE      C318           26.4390171825       21.1794693263        1.9178152387  MEMB      164             0.0000000000
     19050       164  SAPE      H18X           27.2148197179       21.7708039816        1.4647749611  MEMB      164             0.0000000000
     19051       164  SAPE      H18Y           27.2321610772       20.4749959336        1.8266369610  MEMB      164             0.0000000000
     19052       164  SAPE      H18Z           26.4077356291       21.3968829934        2.9580188477  MEMB      164             0.0000000000
     19053       165  SAPE      N             -32.5827941489        6.6474825001      -19.1150981334  MEMB      165             0.0000000000
     19054       165  SAPE      HN1           -31.8260466154        5.9544074873      -19.2962853265  MEMB      165             0.0000000000
     19055       165  SAPE      HN2           -33.2892500944        6.2741627773      -18.4582675914  MEMB      165             0.0000000000
     19056       165  SAPE      HN3           -33.0978769324        6.8874477485      -19.9988077006  MEMB      165             0.0000000000
     19057       165  SAPE      C12           -32.0372360826        7.8947217444      -18.4892930225  MEMB      165             0.0000000000
     19058       165  SAPE      H12A          -31.0954014701        8.1769035121      -19.0041589554  MEMB      165             0.0000000000
     19059       165  SAPE      H12B          -31.8039437586        7.6477698433      -17.4316454733  MEMB      165             0.0000000000
     19060       165  SAPE      C11           -33.1186634804        8.9819987542      -18.4799376393  MEMB      165             0.0000000000
     19061       165  SAPE      H11A          -33.0598590432        9.5009947865      -17.4953575007  MEMB      165             0.0000000000
     19062       165  SAPE      H11B          -34.1322037706        8.5390126273      -18.5244707404  MEMB      165             0.0000000000
     19063       165  SAPE      P             -33.7667943324        9.9072570989      -20.8698281707  MEMB      165             0.0000000000
     19064       165  SAPE      O13           -33.9282714218       11.2844627294      -21.3665437824  MEMB      165             0.0000000000
     19065       165  SAPE      O14           -33.2119064992        8.8670174150      -21.7492886342  MEMB      165             0.0000000000
     19066       165  SAPE      O12           -32.9302644712        9.9344040819      -19.5145921569  MEMB      165             0.0000000000
     19067       165  SAPE      O11           -35.1825503059        9.3602762219      -20.4518771577  MEMB      165             0.0000000000
     19068       165  SAPE      C1            -36.2985126666       10.2359140732      -20.4737409957  MEMB      165             0.0000000000
     19069       165  SAPE      HA            -36.2290957473       11.0007256321      -21.2515377527  MEMB      165             0.0000000000
     19070       165  SAPE      HB            -37.2030627221        9.6734395814      -20.7978806738  MEMB      165             0.0000000000
     19071       165  SAPE      C2            -36.4865453988       10.8878210629      -19.0919998230  MEMB      165             0.0000000000
     19072       165  SAPE      HS            -37.1757089734       11.7668794941      -19.1679143991  MEMB      165             0.0000000000
     19073       165  SAPE      O21           -35.2775925224       11.1306803143      -18.3656028440  MEMB      165             0.0000000000
     19074       165  SAPE      C21           -34.9116426268       12.3770832375      -18.2287167531  MEMB      165             0.0000000000
     19075       165  SAPE      O22           -35.5474891105       13.3574055177      -18.5340597976  MEMB      165             0.0000000000
     19076       165  SAPE      C22           -33.7781149805       12.5443137582      -17.3304074770  MEMB      165             0.0000000000
     19077       165  SAPE      H2R           -34.3054081685       12.8956094156      -16.4121308358  MEMB      165             0.0000000000
     19078       165  SAPE      H2S           -33.2376871558       11.5971775269      -17.1657635753  MEMB      165             0.0000000000
     19079       165  SAPE      C3            -37.2521394570        9.9155170645      -18.3305470224  MEMB      165             0.0000000000
     19080       165  SAPE      HX            -37.9819997835        9.4453016218      -19.0118165404  MEMB      165             0.0000000000
     19081       165  SAPE      HY            -37.7608957594       10.4115139834      -17.5198218320  MEMB      165             0.0000000000
     19082       165  SAPE      O31           -36.5026498870        8.9617181657      -17.7385964723  MEMB      165             0.0000000000
     19083       165  SAPE      C31           -36.6527299572        7.7714086095      -18.1931355750  MEMB      165             0.0000000000
     19084       165  SAPE      O32           -37.4929962401        7.2482189266      -18.8863891389  MEMB      165             0.0000000000
     19085       165  SAPE      C32           -35.9058549051        7.1272696249      -17.3210236690  MEMB      165             0.0000000000
     19086       165  SAPE      H2X           -35.0780264672        7.7563677891      -16.9573343812  MEMB      165             0.0000000000
     19087       165  SAPE      H2Y           -35.5065582702        6.2646360475      -17.9109089209  MEMB      165             0.0000000000
     19088       165  SAPE      C23           -32.9267533443       13.7011037975      -17.8668923858  MEMB      165             0.0000000000
     19089       165  SAPE      H3R           -33.4434829087       14.6889152998      -17.7621865150  MEMB      165             0.0000000000
     19090       165  SAPE      H3S           -32.7183029719       13.5968886786      -18.9588316298  MEMB      165             0.0000000000
     19091       165  SAPE      C24           -31.6206873562       13.7113255903      -17.0999288308  MEMB      165             0.0000000000
     19092       165  SAPE      H4R           -31.0667280842       14.5701081819      -17.5315188799  MEMB      165             0.0000000000
     19093       165  SAPE      H4S           -31.0559754779       12.7817820340      -17.3188724451  MEMB      165             0.0000000000
     19094       165  SAPE      C25           -31.9178200511       13.9341223137      -15.6354472080  MEMB      165             0.0000000000
     19095       165  SAPE      H5R           -32.2449242250       14.9582396758      -15.4591561457  MEMB      165             0.0000000000
     19096       165  SAPE      C26           -31.8158225977       13.1723832265      -14.5319363026  MEMB      165             0.0000000000
     19097       165  SAPE      H6R           -32.0213800254       13.6120229298      -13.5392991682  MEMB      165             0.0000000000
     19098       165  SAPE      C27           -31.3404356712       11.7703215793      -14.4483314642  MEMB      165             0.0000000000
     19099       165  SAPE      H7R           -30.5710916039       11.6830841166      -13.6524554584  MEMB      165             0.0000000000
     19100       165  SAPE      H7S           -30.8880167888       11.4921964687      -15.4077012565  MEMB      165             0.0000000000
     19101       165  SAPE      C28           -32.4479415341       10.8284214423      -14.1420431273  MEMB      165             0.0000000000
     19102       165  SAPE      H8R           -32.9065621595       10.2677190757      -14.9610306093  MEMB      165             0.0000000000
     19103       165  SAPE      C29           -32.8322469980       10.5003714600      -12.9283542589  MEMB      165             0.0000000000
     19104       165  SAPE      H9R           -33.5952611233        9.7289267824      -12.8727803677  MEMB      165             0.0000000000
     19105       165  SAPE      C210          -32.2772186047       10.9692196413      -11.6344082360  MEMB      165             0.0000000000
     19106       165  SAPE      H10R          -31.6308275907       11.8620906120      -11.6971809302  MEMB      165             0.0000000000
     19107       165  SAPE      H10S          -31.7805642418       10.1288563695      -11.1437058857  MEMB      165             0.0000000000
     19108       165  SAPE      C211          -33.3014646222       11.1661354651      -10.6494788177  MEMB      165             0.0000000000
     19109       165  SAPE      H11R          -33.8734733176       10.2817098441      -10.4232793266  MEMB      165             0.0000000000
     19110       165  SAPE      C212          -33.6141743773       12.3052338439      -10.1187776502  MEMB      165             0.0000000000
     19111       165  SAPE      H12R          -34.2241919808       12.2696643879       -9.1877671567  MEMB      165             0.0000000000
     19112       165  SAPE      C213          -32.9797850335       13.6110011266      -10.4106351134  MEMB      165             0.0000000000
     19113       165  SAPE      H13R          -33.6154762515       14.4734191760      -10.3522749237  MEMB      165             0.0000000000
     19114       165  SAPE      H13S          -32.8328657787       14.0136140978      -11.4238356101  MEMB      165             0.0000000000
     19115       165  SAPE      C214          -31.9414633655       13.4887830815       -9.3458640742  MEMB      165             0.0000000000
     19116       165  SAPE      H14R          -31.1241445599       14.1835852876       -9.5741984752  MEMB      165             0.0000000000
     19117       165  SAPE      C215          -32.1018186347       13.1552966000       -8.0218526116  MEMB      165             0.0000000000
     19118       165  SAPE      H15R          -31.0482334909       13.4108068253       -7.7313234411  MEMB      165             0.0000000000
     19119       165  SAPE      C216          -33.3063315616       12.7469445037       -6.8049215206  MEMB      165             0.0000000000
     19120       165  SAPE      H16R          -33.0375645748       11.7480959623       -6.4895966403  MEMB      165             0.0000000000
     19121       165  SAPE      H16S          -34.3565255857       12.7337405560       -7.1612817551  MEMB      165             0.0000000000
     19122       165  SAPE      C217          -33.8165963563       13.4191271784       -5.2067234393  MEMB      165             0.0000000000
     19123       165  SAPE      H17R          -34.0583681054       14.4671109914       -4.9021941154  MEMB      165             0.0000000000
     19124       165  SAPE      H17S          -33.0622336258       13.7410734338       -4.4987825194  MEMB      165             0.0000000000
     19125       165  SAPE      C218          -34.1219558682       12.7756172526       -4.0175345821  MEMB      165             0.0000000000
     19126       165  SAPE      H18R          -33.9271062245       13.4263397965       -3.0613856543  MEMB      165             0.0000000000
     19127       165  SAPE      H18S          -33.5709268820       11.8271169570       -4.0089785527  MEMB      165             0.0000000000
     19128       165  SAPE      C219          -35.5163138094       12.8930647155       -4.2716711197  MEMB      165             0.0000000000
     19129       165  SAPE      H19R          -35.7243612465       12.3622674278       -5.2472731999  MEMB      165             0.0000000000
     19130       165  SAPE      H19S          -35.8863122258       13.9614898887       -4.3838320598  MEMB      165             0.0000000000
     19131       165  SAPE      C220          -35.7155522824       12.2192647509       -2.9552352584  MEMB      165             0.0000000000
     19132       165  SAPE      H20R          -36.5841327104       12.6219048604       -2.4516532309  MEMB      165             0.0000000000
     19133       165  SAPE      H20S          -35.1126660261       12.5372198095       -2.1013924111  MEMB      165             0.0000000000
     19134       165  SAPE      H20T          -35.6711032500       11.1269068586       -3.1459716070  MEMB      165             0.0000000000
     19135       165  SAPE      C33           -36.8840370459        6.7667635051      -16.2027886407  MEMB      165             0.0000000000
     19136       165  SAPE      H3X           -37.6098467553        5.8773358088      -16.3771296954  MEMB      165             0.0000000000
     19137       165  SAPE      H3Y           -37.2685084881        7.3537290085      -15.3333817211  MEMB      165             0.0000000000
     19138       165  SAPE      C34           -35.7777419274        6.3356518148      -15.3997342749  MEMB      165             0.0000000000
     19139       165  SAPE      H4X           -35.7829173347        5.5861409484      -16.2244717287  MEMB      165             0.0000000000
     19140       165  SAPE      H4Y           -36.4308092969        5.8771983608      -14.6160733276  MEMB      165             0.0000000000
     19141       165  SAPE      C35           -34.2174163821        6.7812391596      -15.2028677238  MEMB      165             0.0000000000
     19142       165  SAPE      H5X           -33.6544429902        7.0766850881      -16.0673363611  MEMB      165             0.0000000000
     19143       165  SAPE      H5Y           -33.3700723540        6.1791967950      -14.8084789534  MEMB      165             0.0000000000
     19144       165  SAPE      C36           -34.1113220602        7.7514985105      -14.1144695751  MEMB      165             0.0000000000
     19145       165  SAPE      H6X           -35.0888239853        8.1191292594      -14.4311180105  MEMB      165             0.0000000000
     19146       165  SAPE      H6Y           -33.1681603637        8.2345634876      -13.9379005878  MEMB      165             0.0000000000
     19147       165  SAPE      C37           -33.9713810480        7.0547896654      -12.8376740698  MEMB      165             0.0000000000
     19148       165  SAPE      H7X           -33.2764127616        6.2111201645      -12.9449328739  MEMB      165             0.0000000000
     19149       165  SAPE      H7Y           -34.7781248834        6.6326707448      -13.3104161275  MEMB      165             0.0000000000
     19150       165  SAPE      C38           -33.8581816385        7.5375312490      -11.3536886025  MEMB      165             0.0000000000
     19151       165  SAPE      H8X           -33.3364704699        6.5367329395      -11.1536676337  MEMB      165             0.0000000000
     19152       165  SAPE      H8Y           -33.2632518151        8.3877032542      -11.1819214718  MEMB      165             0.0000000000
     19153       165  SAPE      C39           -34.9033111091        7.8266523411      -10.1503742021  MEMB      165             0.0000000000
     19154       165  SAPE      H9X           -34.4089757110        6.9064952521       -9.7686948367  MEMB      165             0.0000000000
     19155       165  SAPE      H9Y           -35.9506837514        7.8944858623      -10.4046719829  MEMB      165             0.0000000000
     19156       165  SAPE      C310          -35.0174321249        8.4523754631       -8.6715314598  MEMB      165             0.0000000000
     19157       165  SAPE      H10X          -35.8922671811        9.0662526413       -8.6490910844  MEMB      165             0.0000000000
     19158       165  SAPE      H10Y          -34.1298812736        8.9917410734       -8.4755889843  MEMB      165             0.0000000000
     19159       165  SAPE      C311          -36.0221806746        8.2518142739       -7.4763860519  MEMB      165             0.0000000000
     19160       165  SAPE      H11X          -37.1755016328        8.1587060451       -7.7208953979  MEMB      165             0.0000000000
     19161       165  SAPE      H11Y          -35.9046163913        8.9556321087       -6.6280542388  MEMB      165             0.0000000000
     19162       165  SAPE      C312          -35.4818024216        7.3548114036       -6.4887534381  MEMB      165             0.0000000000
     19163       165  SAPE      H12X          -36.5513460190        7.0884812582       -6.5320959047  MEMB      165             0.0000000000
     19164       165  SAPE      H12Y          -35.9633643434        7.1761364945       -5.5359121473  MEMB      165             0.0000000000
     19165       165  SAPE      C313          -34.1305754560        6.5123135136       -6.7291263623  MEMB      165             0.0000000000
     19166       165  SAPE      H13X          -33.5347426344        6.6996736057       -7.6270595203  MEMB      165             0.0000000000
     19167       165  SAPE      H13Y          -34.0374970387        5.3854329824       -6.7761636797  MEMB      165             0.0000000000
     19168       165  SAPE      C314          -33.5216363201        6.6023228374       -5.3852285085  MEMB      165             0.0000000000
     19169       165  SAPE      H14X          -33.4990012051        7.7048509392       -5.3672333824  MEMB      165             0.0000000000
     19170       165  SAPE      H14Y          -32.5498263338        6.0641617429       -5.3736070495  MEMB      165             0.0000000000
     19171       165  SAPE      C315          -34.4126999698        6.1187716133       -4.2407049041  MEMB      165             0.0000000000
     19172       165  SAPE      H15X          -34.7399957522        5.0448218438       -4.3276059502  MEMB      165             0.0000000000
     19173       165  SAPE      H15Y          -35.2868608572        6.7440425816       -3.9713161056  MEMB      165             0.0000000000
     19174       165  SAPE      C316          -33.6517326871        5.9618201165       -3.0640936995  MEMB      165             0.0000000000
     19175       165  SAPE      H16X          -32.9805834015        6.7966902534       -2.9655601112  MEMB      165             0.0000000000
     19176       165  SAPE      H16Y          -33.2058617632        5.0144198504       -3.4217828504  MEMB      165             0.0000000000
     19177       165  SAPE      C317          -34.6332425218        5.8229889284       -1.9881481304  MEMB      165             0.0000000000
     19178       165  SAPE      H17X          -35.0221161090        4.8822740365       -2.1725638796  MEMB      165             0.0000000000
     19179       165  SAPE      H17Y          -35.5293131474        6.4411953117       -1.8903044112  MEMB      165             0.0000000000
     19180       165  SAPE      C318          -34.1110520451        5.6190058860       -0.7166819246  MEMB      165             0.0000000000
     19181       165  SAPE      H18X          -33.2865454773        4.9469073671       -0.6195414794  MEMB      165             0.0000000000
     19182       165  SAPE      H18Y          -34.9307094962        5.3736117793       -0.0262880127  MEMB      165             0.0000000000
     19183       165  SAPE      H18Z          -33.6370747230        6.4536022825       -0.3659895688  MEMB      165             0.0000000000
     19184       166  SAPC      N              32.6528102826        4.4065474899      -19.3746673233  MEMB      166             0.0000000000
     19185       166  SAPC      C12            33.7953908356        4.3200037644      -18.3698402132  MEMB      166             0.0000000000
     19186       166  SAPC      H12A           33.6031576317        3.5083345607      -17.6808658775  MEMB      166             0.0000000000
     19187       166  SAPC      H12B           33.8368758285        5.2458309797      -17.8379141388  MEMB      166             0.0000000000
     19188       166  SAPC      C13            32.9931056067        5.3967363788      -20.4616497908  MEMB      166             0.0000000000
     19189       166  SAPC      H13A           33.8788240607        5.0853448522      -21.0269513671  MEMB      166             0.0000000000
     19190       166  SAPC      H13B           32.1693878011        5.4899272219      -21.1554647614  MEMB      166             0.0000000000
     19191       166  SAPC      H13C           33.2257398060        6.3596916770      -20.0401571550  MEMB      166             0.0000000000
     19192       166  SAPC      C14            32.3554622116        3.0675908354      -20.0116785461  MEMB      166             0.0000000000
     19193       166  SAPC      H14A           31.8497092712        3.2062723898      -20.9551451637  MEMB      166             0.0000000000
     19194       166  SAPC      H14B           33.2950528234        2.5279413969      -20.2106415789  MEMB      166             0.0000000000
     19195       166  SAPC      H14C           31.7675686426        2.4067732399      -19.3804195212  MEMB      166             0.0000000000
     19196       166  SAPC      C15            31.4345715044        4.8055787388      -18.6369570477  MEMB      166             0.0000000000
     19197       166  SAPC      H15A           31.2014817412        4.0603466157      -17.8822954435  MEMB      166             0.0000000000
     19198       166  SAPC      H15B           31.5622323574        5.7700114115      -18.1805130206  MEMB      166             0.0000000000
     19199       166  SAPC      H15C           30.5737598363        4.8747339514      -19.2978675571  MEMB      166             0.0000000000
     19200       166  SAPC      C11            35.1922646153        4.0605817405      -18.8933928394  MEMB      166             0.0000000000
     19201       166  SAPC      H11A           35.8696342059        3.7395678656      -18.0701552340  MEMB      166             0.0000000000
     19202       166  SAPC      H11B           35.6185699809        4.9587416779      -19.3957402106  MEMB      166             0.0000000000
     19203       166  SAPC      P              36.0975778576        2.7860811684      -20.8590489079  MEMB      166             0.0000000000
     19204       166  SAPC      O13            35.8928361535        1.4722264576      -21.4901719967  MEMB      166             0.0000000000
     19205       166  SAPC      O14            36.1413807329        3.9583814175      -21.7584271103  MEMB      166             0.0000000000
     19206       166  SAPC      O12            35.0270252111        3.0064169507      -19.7843998232  MEMB      166             0.0000000000
     19207       166  SAPC      O11            37.3981981346        2.8740754120      -19.9506558229  MEMB      166             0.0000000000
     19208       166  SAPC      C1             38.2344419878        1.9295666541      -19.3146820972  MEMB      166             0.0000000000
     19209       166  SAPC      HA             38.8942380930        1.3595422270      -19.9518623424  MEMB      166             0.0000000000
     19210       166  SAPC      HB             39.0679725477        2.4573274506      -18.9191513465  MEMB      166             0.0000000000
     19211       166  SAPC      C2             37.6185075044        0.8123823348      -18.5014133660  MEMB      166             0.0000000000
     19212       166  SAPC      HS             37.1653778852        0.0732570252      -19.2044526839  MEMB      166             0.0000000000
     19213       166  SAPC      O21            36.6785935575        1.3228554389      -17.5496390097  MEMB      166             0.0000000000
     19214       166  SAPC      C21            35.4111042281        0.9402169863      -17.6610261600  MEMB      166             0.0000000000
     19215       166  SAPC      O22            34.8231798788        0.5636185416      -18.6439388085  MEMB      166             0.0000000000
     19216       166  SAPC      C22            34.7143303637        1.1130641007      -16.3452814172  MEMB      166             0.0000000000
     19217       166  SAPC      H2R            35.2768543263        0.7597663108      -15.4671969822  MEMB      166             0.0000000000
     19218       166  SAPC      H2S            34.3929535728        2.1485034485      -16.3068298585  MEMB      166             0.0000000000
     19219       166  SAPC      C3             38.7340869268       -0.0167550381      -17.7804029308  MEMB      166             0.0000000000
     19220       166  SAPC      HX             39.2983431495       -0.6952637356      -18.4477318517  MEMB      166             0.0000000000
     19221       166  SAPC      HY             38.2134172647       -0.8493895500      -17.4751637371  MEMB      166             0.0000000000
     19222       166  SAPC      O31            39.6722059162        0.6250772925      -16.8253749029  MEMB      166             0.0000000000
     19223       166  SAPC      C31            39.1089727013        1.1113251308      -15.7592874090  MEMB      166             0.0000000000
     19224       166  SAPC      O32            38.0376979751        0.9918806672      -15.3801410863  MEMB      166             0.0000000000
     19225       166  SAPC      C32            39.5745863936        2.1040432308      -14.7788235010  MEMB      166             0.0000000000
     19226       166  SAPC      H2X            39.7161142921        2.6336198779      -15.5869910182  MEMB      166             0.0000000000
     19227       166  SAPC      H2Y            40.5357124028        1.8492284401      -14.8362578247  MEMB      166             0.0000000000
     19228       166  SAPC      C23            33.4351558311        0.3876210481      -16.2256002735  MEMB      166             0.0000000000
     19229       166  SAPC      H3R            33.7166590141       -0.6653741765      -16.3546845098  MEMB      166             0.0000000000
     19230       166  SAPC      H3S            32.7315680357        0.7002797055      -17.0074404647  MEMB      166             0.0000000000
     19231       166  SAPC      C24            32.8503707884        0.4204489537      -14.8369092037  MEMB      166             0.0000000000
     19232       166  SAPC      H4R            33.5743542618       -0.2052876540      -14.2811973302  MEMB      166             0.0000000000
     19233       166  SAPC      H4S            31.8459183310        0.0180615968      -14.7905678171  MEMB      166             0.0000000000
     19234       166  SAPC      C25            32.6601108988        1.7140868999      -14.2052709708  MEMB      166             0.0000000000
     19235       166  SAPC      H5R            32.3081763186        2.5110449315      -14.8513544728  MEMB      166             0.0000000000
     19236       166  SAPC      C26            32.9613188325        1.9430253544      -12.9433103167  MEMB      166             0.0000000000
     19237       166  SAPC      H6R            33.0841142810        3.0255655497      -12.7508392187  MEMB      166             0.0000000000
     19238       166  SAPC      C27            33.6826527864        1.0401032719      -11.9587318040  MEMB      166             0.0000000000
     19239       166  SAPC      H7R            34.5851326217        0.7925661483      -12.3838721021  MEMB      166             0.0000000000
     19240       166  SAPC      H7S            33.3822132300       -0.0307312784      -12.0571396806  MEMB      166             0.0000000000
     19241       166  SAPC      C28            33.4335318527        1.5232915968      -10.4887386136  MEMB      166             0.0000000000
     19242       166  SAPC      H8R            33.3652130498        2.6604636705      -10.4608184210  MEMB      166             0.0000000000
     19243       166  SAPC      C29            34.0403328176        1.1978335928       -9.2805841130  MEMB      166             0.0000000000
     19244       166  SAPC      H9R            34.1480315360        1.7847556495       -8.4569881211  MEMB      166             0.0000000000
     19245       166  SAPC      C210           34.7363710399       -0.1831179475       -9.0277657723  MEMB      166             0.0000000000
     19246       166  SAPC      H10R           34.2830570857       -0.6126639316       -9.8403328573  MEMB      166             0.0000000000
     19247       166  SAPC      H10S           34.3836634594       -0.8108183818       -8.4468338437  MEMB      166             0.0000000000
     19248       166  SAPC      C211           36.2960226665        0.2769113760       -9.3007081263  MEMB      166             0.0000000000
     19249       166  SAPC      H11R           36.6302537304        0.3315593817      -10.3065977617  MEMB      166             0.0000000000
     19250       166  SAPC      C212           37.4477499800        0.1544267796       -8.5167965053  MEMB      166             0.0000000000
     19251       166  SAPC      H12R           38.4430676977        0.1630893221       -8.6899654157  MEMB      166             0.0000000000
     19252       166  SAPC      C213           37.6481310964        0.5712586426       -7.0554130495  MEMB      166             0.0000000000
     19253       166  SAPC      H13R           36.9977988836        0.3263370271       -6.5050985573  MEMB      166             0.0000000000
     19254       166  SAPC      H13S           37.9272433187        1.4145999901       -7.3645375458  MEMB      166             0.0000000000
     19255       166  SAPC      C214           38.5109537211       -0.7867226555       -6.6844513086  MEMB      166             0.0000000000
     19256       166  SAPC      H14R           39.4282072343       -0.0614898018       -7.0591311842  MEMB      166             0.0000000000
     19257       166  SAPC      C215           38.9095358663       -1.5533023993       -5.2637229301  MEMB      166             0.0000000000
     19258       166  SAPC      H15R           39.5550373281       -2.3303572739       -5.1404542195  MEMB      166             0.0000000000
     19259       166  SAPC      C216           37.8468307039       -2.1668427851       -4.2924018025  MEMB      166             0.0000000000
     19260       166  SAPC      H16R           37.9247265192       -3.1836714609       -4.1159850402  MEMB      166             0.0000000000
     19261       166  SAPC      H16S           37.3952651343       -1.9360810282       -5.0263597121  MEMB      166             0.0000000000
     19262       166  SAPC      C217           38.4980282419       -1.3669926953       -2.8836551794  MEMB      166             0.0000000000
     19263       166  SAPC      H17R           39.4880822940       -1.6531811242       -2.5818425712  MEMB      166             0.0000000000
     19264       166  SAPC      H17S           37.9331282304       -1.7323395751       -2.0447261112  MEMB      166             0.0000000000
     19265       166  SAPC      C218           38.3202231863        0.1035033550       -2.5680725734  MEMB      166             0.0000000000
     19266       166  SAPC      H18R           37.3283575257        0.2579990277       -2.9220138102  MEMB      166             0.0000000000
     19267       166  SAPC      H18S           38.7892305768        0.7192819702       -3.1855174432  MEMB      166             0.0000000000
     19268       166  SAPC      C219           38.3749709257        1.0744120757       -1.3411560801  MEMB      166             0.0000000000
     19269       166  SAPC      H19R           39.2805781881        0.8662588591       -0.8647668808  MEMB      166             0.0000000000
     19270       166  SAPC      H19S           37.4323534186        0.7550679635       -0.8666819332  MEMB      166             0.0000000000
     19271       166  SAPC      C220           38.6145945169        2.6429474128       -1.3846594724  MEMB      166             0.0000000000
     19272       166  SAPC      H20R           39.2373369024        2.9874607894       -2.2454933723  MEMB      166             0.0000000000
     19273       166  SAPC      H20S           38.2851763298        3.2794973761       -0.5523861568  MEMB      166             0.0000000000
     19274       166  SAPC      H20T           38.0012473995        3.2490999820       -1.9937413076  MEMB      166             0.0000000000
     19275       166  SAPC      C33            38.7393549255        2.8173310157      -13.4742950056  MEMB      166             0.0000000000
     19276       166  SAPC      H3X            38.2775252322        2.3229757653      -12.7336249244  MEMB      166             0.0000000000
     19277       166  SAPC      H3Y            37.8166873981        2.3613040845      -13.7257178957  MEMB      166             0.0000000000
     19278       166  SAPC      C34            38.6355372120        4.3844763813      -12.9215490603  MEMB      166             0.0000000000
     19279       166  SAPC      H4X            39.0875996099        4.8169838084      -13.7567944227  MEMB      166             0.0000000000
     19280       166  SAPC      H4Y            39.5285401252        4.3933559463      -12.3564033771  MEMB      166             0.0000000000
     19281       166  SAPC      C35            37.3706864993        5.4451453611      -12.3404093477  MEMB      166             0.0000000000
     19282       166  SAPC      H5X            36.7809398486        5.0839368293      -12.9772641843  MEMB      166             0.0000000000
     19283       166  SAPC      H5Y            36.7963595782        6.4869947971      -12.4127221590  MEMB      166             0.0000000000
     19284       166  SAPC      C36            37.6908184473        5.4363407892      -11.0530587303  MEMB      166             0.0000000000
     19285       166  SAPC      H6X            38.7365520201        5.3815758159      -10.7976200187  MEMB      166             0.0000000000
     19286       166  SAPC      H6Y            37.8893684542        4.4727913697      -11.1427560062  MEMB      166             0.0000000000
     19287       166  SAPC      C37            36.5998627467        5.8502924421      -10.2155137919  MEMB      166             0.0000000000
     19288       166  SAPC      H7X            35.5736621494        6.1308076054      -10.3226240636  MEMB      166             0.0000000000
     19289       166  SAPC      H7Y            35.8604927367        5.3527783179      -10.8321711150  MEMB      166             0.0000000000
     19290       166  SAPC      C38            37.0040015490        5.9051823271       -8.7431398792  MEMB      166             0.0000000000
     19291       166  SAPC      H8X            36.1822300209        6.5288137877       -8.5492903618  MEMB      166             0.0000000000
     19292       166  SAPC      H8Y            38.0171559003        6.1802081142       -8.5793787983  MEMB      166             0.0000000000
     19293       166  SAPC      C39            36.9472849801        4.9564534926       -7.5594425271  MEMB      166             0.0000000000
     19294       166  SAPC      H9X            37.8610100521        4.3032457358       -7.3706630742  MEMB      166             0.0000000000
     19295       166  SAPC      H9Y            35.9862780811        4.5389986861       -7.7859652601  MEMB      166             0.0000000000
     19296       166  SAPC      C310           36.8993895825        5.0203901461       -6.2339849569  MEMB      166             0.0000000000
     19297       166  SAPC      H10X           36.1635773585        5.6620560678       -5.9276995276  MEMB      166             0.0000000000
     19298       166  SAPC      H10Y           37.8463365814        5.2119170992       -5.8371716389  MEMB      166             0.0000000000
     19299       166  SAPC      C311           36.7237058108        4.0178817466       -5.5702118755  MEMB      166             0.0000000000
     19300       166  SAPC      H11X           36.8074810667        4.4395665408       -4.5170371276  MEMB      166             0.0000000000
     19301       166  SAPC      H11Y           37.7218333575        3.4843532429       -5.8144825710  MEMB      166             0.0000000000
     19302       166  SAPC      C312           35.3859023082        3.4090067645       -5.8325487206  MEMB      166             0.0000000000
     19303       166  SAPC      H12X           35.1582975706        2.5289842885       -5.2288783033  MEMB      166             0.0000000000
     19304       166  SAPC      H12Y           35.4243379245        2.9644760108       -6.8323660849  MEMB      166             0.0000000000
     19305       166  SAPC      C313           34.3966988528        4.4842113611       -5.5219322936  MEMB      166             0.0000000000
     19306       166  SAPC      H13X           34.3992983699        5.0163144653       -6.5082332661  MEMB      166             0.0000000000
     19307       166  SAPC      H13Y           34.7993263840        5.1769045546       -4.7236285403  MEMB      166             0.0000000000
     19308       166  SAPC      C314           33.0784651692        3.9134355640       -5.1791849304  MEMB      166             0.0000000000
     19309       166  SAPC      H14X           33.0642694193        2.8810939517       -5.5915724718  MEMB      166             0.0000000000
     19310       166  SAPC      H14Y           32.3962038779        4.5549029073       -5.7776331225  MEMB      166             0.0000000000
     19311       166  SAPC      C315           32.6326241046        4.0294787753       -3.6988543014  MEMB      166             0.0000000000
     19312       166  SAPC      H15X           31.6204191684        3.6265808431       -3.6379111569  MEMB      166             0.0000000000
     19313       166  SAPC      H15Y           32.7169876705        5.1053798450       -3.4160176430  MEMB      166             0.0000000000
     19314       166  SAPC      C316           33.4198113813        3.3188787769       -2.6157349826  MEMB      166             0.0000000000
     19315       166  SAPC      H16X           34.2528780667        4.0505898406       -2.8088549773  MEMB      166             0.0000000000
     19316       166  SAPC      H16Y           33.6023816710        2.2647574335       -2.9040236332  MEMB      166             0.0000000000
     19317       166  SAPC      C317           33.1484421811        3.3975771253       -1.0395407228  MEMB      166             0.0000000000
     19318       166  SAPC      H17X           32.2190154828        2.8384326123       -0.9650254906  MEMB      166             0.0000000000
     19319       166  SAPC      H17Y           33.1331831190        4.5016597065       -0.9424548762  MEMB      166             0.0000000000
     19320       166  SAPC      C318           34.0492938113        2.8783334204        0.1912829871  MEMB      166             0.0000000000
     19321       166  SAPC      H18X           33.7938438763        2.8328066422        1.2397993653  MEMB      166             0.0000000000
     19322       166  SAPC      H18Y           34.9123336780        3.5993238461        0.2705017553  MEMB      166             0.0000000000
     19323       166  SAPC      H18Z           34.4163816026        1.8417634186       -0.0179160280  MEMB      166             0.0000000000
     19324       167  SAPC      N              29.1471104817      -20.4917645677      -21.3631814739  MEMB      167             0.0000000000
     19325       167  SAPC      C12            29.1574305628      -21.0349260274      -19.9284337302  MEMB      167             0.0000000000
     19326       167  SAPC      H12A           28.8786720213      -20.2269248196      -19.2525526068  MEMB      167             0.0000000000
     19327       167  SAPC      H12B           30.1687478401      -21.3163111690      -19.6761196199  MEMB      167             0.0000000000
     19328       167  SAPC      C13            30.3112764042      -19.5442805334      -21.4527692405  MEMB      167             0.0000000000
     19329       167  SAPC      H13A           31.2011556690      -20.0614059047      -21.1089195330  MEMB      167             0.0000000000
     19330       167  SAPC      H13B           30.4978161992      -19.1781170982      -22.4582961375  MEMB      167             0.0000000000
     19331       167  SAPC      H13C           30.1624951967      -18.6662887083      -20.8237172000  MEMB      167             0.0000000000
     19332       167  SAPC      C14            29.3182217152      -21.6135359387      -22.3421836577  MEMB      167             0.0000000000
     19333       167  SAPC      H14A           30.3392516860      -21.9740831958      -22.3185431901  MEMB      167             0.0000000000
     19334       167  SAPC      H14B           28.6519078072      -22.4447078569      -22.0873404142  MEMB      167             0.0000000000
     19335       167  SAPC      H14C           29.0916846334      -21.3244128603      -23.3603907051  MEMB      167             0.0000000000
     19336       167  SAPC      C15            27.8649858428      -19.7638794119      -21.6565808461  MEMB      167             0.0000000000
     19337       167  SAPC      H15A           27.0333487831      -20.4745586621      -21.6300913356  MEMB      167             0.0000000000
     19338       167  SAPC      H15B           27.6250612206      -19.0220813914      -20.9028191508  MEMB      167             0.0000000000
     19339       167  SAPC      H15C           27.8656246484      -19.2426792293      -22.6109864084  MEMB      167             0.0000000000
     19340       167  SAPC      C11            28.3162487037      -22.2680022546      -19.5201730743  MEMB      167             0.0000000000
     19341       167  SAPC      H11A           28.4761250833      -22.4647411082      -18.4270573799  MEMB      167             0.0000000000
     19342       167  SAPC      H11B           28.6309741613      -23.1759961027      -20.0410123594  MEMB      167             0.0000000000
     19343       167  SAPC      P              25.9224935055      -21.7789850060      -18.7642988756  MEMB      167             0.0000000000
     19344       167  SAPC      O13            26.5123147852      -20.7044558579      -17.9256702160  MEMB      167             0.0000000000
     19345       167  SAPC      O14            24.6634106324      -21.4706100116      -19.4516179912  MEMB      167             0.0000000000
     19346       167  SAPC      O12            26.9695959305      -22.1026166856      -19.8636435563  MEMB      167             0.0000000000
     19347       167  SAPC      O11            25.8470141945      -23.1088275154      -17.8935760613  MEMB      167             0.0000000000
     19348       167  SAPC      C1             25.2943928881      -24.2588892683      -18.5288346999  MEMB      167             0.0000000000
     19349       167  SAPC      HA             24.3145618936      -24.0596533422      -19.0317687925  MEMB      167             0.0000000000
     19350       167  SAPC      HB             26.0062620563      -24.6171485676      -19.3141956914  MEMB      167             0.0000000000
     19351       167  SAPC      C2             25.0649049410      -25.4428814133      -17.5340600417  MEMB      167             0.0000000000
     19352       167  SAPC      HS             24.4119794235      -26.1830628984      -18.0501783810  MEMB      167             0.0000000000
     19353       167  SAPC      O21            24.5158452367      -25.2182696475      -16.1912531755  MEMB      167             0.0000000000
     19354       167  SAPC      C21            23.0995827485      -25.0208736230      -16.3211672123  MEMB      167             0.0000000000
     19355       167  SAPC      O22            22.6424523797      -25.0335787891      -17.3905880306  MEMB      167             0.0000000000
     19356       167  SAPC      C22            22.1551842161      -24.2752071719      -15.0984215462  MEMB      167             0.0000000000
     19357       167  SAPC      H2R            21.8057618096      -24.9730128658      -14.3398373032  MEMB      167             0.0000000000
     19358       167  SAPC      H2S            23.0708571678      -24.8897210661      -14.7073943643  MEMB      167             0.0000000000
     19359       167  SAPC      C3             26.3864847497      -26.1522184109      -17.3397076535  MEMB      167             0.0000000000
     19360       167  SAPC      HX             26.6002638849      -26.6973475306      -18.2922533476  MEMB      167             0.0000000000
     19361       167  SAPC      HY             26.0992282070      -26.8606570533      -16.5225978093  MEMB      167             0.0000000000
     19362       167  SAPC      O31            27.5320093548      -25.3481326389      -16.9875372372  MEMB      167             0.0000000000
     19363       167  SAPC      C31            27.5986232051      -25.0367952646      -15.6997254210  MEMB      167             0.0000000000
     19364       167  SAPC      O32            26.8439456652      -25.4010642598      -14.8211486440  MEMB      167             0.0000000000
     19365       167  SAPC      C32            28.8705641079      -24.2786561939      -15.4351687688  MEMB      167             0.0000000000
     19366       167  SAPC      H2X            28.6936258569      -23.2719992877      -15.8588860510  MEMB      167             0.0000000000
     19367       167  SAPC      H2Y            29.7248756986      -24.7362682997      -15.9759136723  MEMB      167             0.0000000000
     19368       167  SAPC      C23            22.0167549130      -22.1449329235      -14.6420136212  MEMB      167             0.0000000000
     19369       167  SAPC      H3R            21.5343161140      -21.7468404000      -13.7836260243  MEMB      167             0.0000000000
     19370       167  SAPC      H3S            21.3686711162      -22.4294227951      -15.3761779076  MEMB      167             0.0000000000
     19371       167  SAPC      C24            23.6825418271      -20.9534038583      -14.0264029200  MEMB      167             0.0000000000
     19372       167  SAPC      H4R            23.1602886520      -20.1583772716      -13.6775314690  MEMB      167             0.0000000000
     19373       167  SAPC      H4S            24.5516856001      -20.6801505828      -14.7372428818  MEMB      167             0.0000000000
     19374       167  SAPC      C25            25.2974839958      -21.1067145419      -13.7393691520  MEMB      167             0.0000000000
     19375       167  SAPC      H5R            26.0936577302      -21.5449094053      -14.4849557251  MEMB      167             0.0000000000
     19376       167  SAPC      C26            25.6320545879      -21.3020171402      -12.4922171252  MEMB      167             0.0000000000
     19377       167  SAPC      H6R            26.5588258136      -21.8447014491      -12.3313882592  MEMB      167             0.0000000000
     19378       167  SAPC      C27            24.6292551920      -21.3808811173      -11.4015110402  MEMB      167             0.0000000000
     19379       167  SAPC      H7R            24.2759762399      -22.3077803174      -11.5747397010  MEMB      167             0.0000000000
     19380       167  SAPC      H7S            23.5756248755      -20.9642719932      -11.4967641452  MEMB      167             0.0000000000
     19381       167  SAPC      C28            25.2031104272      -21.8779950716      -10.1299197411  MEMB      167             0.0000000000
     19382       167  SAPC      H8R            25.0724779350      -21.0319224767       -9.4885801142  MEMB      167             0.0000000000
     19383       167  SAPC      C29            25.5210294266      -23.1101095716       -9.5937466482  MEMB      167             0.0000000000
     19384       167  SAPC      H9R            26.0173884471      -23.1006041185       -8.6325039810  MEMB      167             0.0000000000
     19385       167  SAPC      C210           25.4474166444      -24.5673857498      -10.0218505105  MEMB      167             0.0000000000
     19386       167  SAPC      H10R           24.6898899259      -25.0143263995      -10.7086106651  MEMB      167             0.0000000000
     19387       167  SAPC      H10S           25.1981743426      -25.2101648314       -9.1359376811  MEMB      167             0.0000000000
     19388       167  SAPC      C211           26.3973832143      -24.8317845092      -11.0817184172  MEMB      167             0.0000000000
     19389       167  SAPC      H11R           26.5779567910      -24.1051818574      -11.8598297335  MEMB      167             0.0000000000
     19390       167  SAPC      C212           26.7723731961      -26.0415019403      -11.1781641152  MEMB      167             0.0000000000
     19391       167  SAPC      H12R           27.4564177948      -26.3238712631      -11.9877900279  MEMB      167             0.0000000000
     19392       167  SAPC      C213           26.2502572435      -27.0452310571      -10.2370419389  MEMB      167             0.0000000000
     19393       167  SAPC      H13R           25.9855379980      -27.9631414686      -10.7266304991  MEMB      167             0.0000000000
     19394       167  SAPC      H13S           25.4819469826      -26.9625324130       -9.3730530861  MEMB      167             0.0000000000
     19395       167  SAPC      C214           27.0594898136      -27.3481718568       -9.0717424107  MEMB      167             0.0000000000
     19396       167  SAPC      H14R           27.5057108021      -28.4259272423       -9.0151402823  MEMB      167             0.0000000000
     19397       167  SAPC      C215           27.9408790203      -26.5236851057       -8.5578066064  MEMB      167             0.0000000000
     19398       167  SAPC      H15R           28.5633232841      -27.0501687273       -8.4091681138  MEMB      167             0.0000000000
     19399       167  SAPC      C216           28.0681459677      -25.1211366660       -8.2739542283  MEMB      167             0.0000000000
     19400       167  SAPC      H16R           28.1170699414      -24.6263452738       -9.2639409715  MEMB      167             0.0000000000
     19401       167  SAPC      H16S           29.1961719055      -25.1881306101       -8.0462942300  MEMB      167             0.0000000000
     19402       167  SAPC      C217           27.1571959626      -25.0565249709       -7.0898064700  MEMB      167             0.0000000000
     19403       167  SAPC      H17R           26.2077192170      -25.6654957042       -7.1438824669  MEMB      167             0.0000000000
     19404       167  SAPC      H17S           26.9413356163      -24.0101841792       -7.1813784592  MEMB      167             0.0000000000
     19405       167  SAPC      C218           27.5001304077      -25.2172604116       -5.5657471623  MEMB      167             0.0000000000
     19406       167  SAPC      H18R           28.4428606431      -24.7383262322       -5.2800636836  MEMB      167             0.0000000000
     19407       167  SAPC      H18S           27.5126708224      -26.2807084532       -5.3848994328  MEMB      167             0.0000000000
     19408       167  SAPC      C219           26.3401974918      -24.8726794978       -4.6005585570  MEMB      167             0.0000000000
     19409       167  SAPC      H19R           25.4354048448      -25.2844721838       -5.0880764593  MEMB      167             0.0000000000
     19410       167  SAPC      H19S           26.3194555511      -23.7778863725       -4.5361314929  MEMB      167             0.0000000000
     19411       167  SAPC      C220           26.2908768735      -25.3984786749       -3.1598856511  MEMB      167             0.0000000000
     19412       167  SAPC      H20R           26.9924539738      -24.8239866518       -2.5495020593  MEMB      167             0.0000000000
     19413       167  SAPC      H20S           26.4625480435      -26.4960849818       -3.0765707701  MEMB      167             0.0000000000
     19414       167  SAPC      H20T           25.3711473416      -25.1465545592       -2.6153975162  MEMB      167             0.0000000000
     19415       167  SAPC      C33            29.1310976526      -24.2199785908      -13.9077183476  MEMB      167             0.0000000000
     19416       167  SAPC      H3X            29.0146142041      -25.1686914992      -13.3611977236  MEMB      167             0.0000000000
     19417       167  SAPC      H3Y            28.4082731012      -23.4721204595      -13.4949780765  MEMB      167             0.0000000000
     19418       167  SAPC      C34            30.5586817577      -23.8175435198      -13.6359254860  MEMB      167             0.0000000000
     19419       167  SAPC      H4X            30.4953130435      -22.7170101314      -13.7651503801  MEMB      167             0.0000000000
     19420       167  SAPC      H4Y            31.2343845972      -24.3255007996      -14.3475030107  MEMB      167             0.0000000000
     19421       167  SAPC      C35            31.3116764772      -24.1457572432      -12.4246540466  MEMB      167             0.0000000000
     19422       167  SAPC      H5X            32.2974601808      -23.5941908177      -12.3779725046  MEMB      167             0.0000000000
     19423       167  SAPC      H5Y            31.5556228251      -25.2198242995      -12.3739505312  MEMB      167             0.0000000000
     19424       167  SAPC      C36            30.3988036956      -23.7538693035      -11.3490880033  MEMB      167             0.0000000000
     19425       167  SAPC      H6X            31.1865340590      -23.9092745820      -10.5418315806  MEMB      167             0.0000000000
     19426       167  SAPC      H6Y            29.5877246938      -24.3565213773      -10.9962166439  MEMB      167             0.0000000000
     19427       167  SAPC      C37            29.5261226620      -22.4025470869      -11.5252795982  MEMB      167             0.0000000000
     19428       167  SAPC      H7X            29.3355126421      -21.9901710848      -12.4936492261  MEMB      167             0.0000000000
     19429       167  SAPC      H7Y            30.5692247605      -21.7928419940      -11.6586696390  MEMB      167             0.0000000000
     19430       167  SAPC      C38            28.1596444136      -21.6835189061      -10.2162795016  MEMB      167             0.0000000000
     19431       167  SAPC      H8X            28.2086894283      -22.1524645303       -9.2670071996  MEMB      167             0.0000000000
     19432       167  SAPC      H8Y            28.3886317587      -22.7021304217       -9.8746801883  MEMB      167             0.0000000000
     19433       167  SAPC      C39            28.4766534178      -19.4575607120       -9.4123616355  MEMB      167             0.0000000000
     19434       167  SAPC      H9X            29.4812671825      -18.8719058439       -9.9204486019  MEMB      167             0.0000000000
     19435       167  SAPC      H9Y            29.6014119374      -18.9240576775       -9.1691504163  MEMB      167             0.0000000000
     19436       167  SAPC      C310           27.7097688584      -19.1800387796       -8.4567059418  MEMB      167             0.0000000000
     19437       167  SAPC      H10X           26.8353129403      -19.4498125628       -9.0463003410  MEMB      167             0.0000000000
     19438       167  SAPC      H10Y           27.9879393013      -18.0930117444       -8.5580295798  MEMB      167             0.0000000000
     19439       167  SAPC      C311           28.0017697360      -20.2763193922       -7.3883639582  MEMB      167             0.0000000000
     19440       167  SAPC      H11X           28.9665839779      -19.8272283525       -7.1425699539  MEMB      167             0.0000000000
     19441       167  SAPC      H11Y           28.4148031718      -21.2758237521       -7.3945103739  MEMB      167             0.0000000000
     19442       167  SAPC      C312           27.0238926209      -20.4195910380       -6.2656152502  MEMB      167             0.0000000000
     19443       167  SAPC      H12X           26.3902615073      -19.5296849259       -6.5001029697  MEMB      167             0.0000000000
     19444       167  SAPC      H12Y           27.4778916038      -20.4884344685       -5.2296338456  MEMB      167             0.0000000000
     19445       167  SAPC      C313           26.1855132986      -21.5368769815       -6.0318749179  MEMB      167             0.0000000000
     19446       167  SAPC      H13X           26.8704649460      -22.2505983576       -5.5047810157  MEMB      167             0.0000000000
     19447       167  SAPC      H13Y           26.0115623912      -21.6598080810       -7.1169654157  MEMB      167             0.0000000000
     19448       167  SAPC      C314           25.0446578974      -20.9372122447       -5.1996955105  MEMB      167             0.0000000000
     19449       167  SAPC      H14X           24.2508713195      -21.6770360689       -5.2730316448  MEMB      167             0.0000000000
     19450       167  SAPC      H14Y           24.7204688066      -19.9783686358       -5.6921526039  MEMB      167             0.0000000000
     19451       167  SAPC      C315           25.2955961874      -20.5134976326       -3.7383499289  MEMB      167             0.0000000000
     19452       167  SAPC      H15X           24.6859633445      -19.6220921662       -3.4499088893  MEMB      167             0.0000000000
     19453       167  SAPC      H15Y           26.3283035233      -20.2089543410       -3.6160829295  MEMB      167             0.0000000000
     19454       167  SAPC      C316           25.5819443842      -21.5158186903       -2.6672009625  MEMB      167             0.0000000000
     19455       167  SAPC      H16X           26.5294887491      -22.0675500601       -2.9087934679  MEMB      167             0.0000000000
     19456       167  SAPC      H16Y           24.7133140670      -22.1881459214       -2.7078279411  MEMB      167             0.0000000000
     19457       167  SAPC      C317           25.8367286079      -20.7119805093       -1.3814116872  MEMB      167             0.0000000000
     19458       167  SAPC      H17X           25.0836862804      -19.9070877472       -1.2733792149  MEMB      167             0.0000000000
     19459       167  SAPC      H17Y           26.8521698063      -20.2482006032       -1.3934689735  MEMB      167             0.0000000000
     19460       167  SAPC      C318           25.7744585788      -21.5624303876       -0.1847198882  MEMB      167             0.0000000000
     19461       167  SAPC      H18X           25.6736612533      -21.0740617109        0.7922865948  MEMB      167             0.0000000000
     19462       167  SAPC      H18Y           26.7619268781      -22.0445309141       -0.1084306445  MEMB      167             0.0000000000
     19463       167  SAPC      H18Z           24.9409783964      -22.2878450779       -0.3462287167  MEMB      167             0.0000000000
     19464       168  SAPS      N             -34.1361355042       -8.4781985999      -21.0184511186  MEMB      168             0.0000000000
     19465       168  SAPS      HN1           -35.1107902090       -8.1393220361      -20.9784231299  MEMB      168             0.0000000000
     19466       168  SAPS      HN2           -33.6593655132       -8.4090450633      -20.0991081029  MEMB      168             0.0000000000
     19467       168  SAPS      HN3           -33.5669834455       -7.9702994990      -21.7223906666  MEMB      168             0.0000000000
     19468       168  SAPS      C12           -34.1564525573       -9.9665811371      -21.2470922562  MEMB      168             0.0000000000
     19469       168  SAPS      H12A          -34.6450546196      -10.1535830512      -22.1815427620  MEMB      168             0.0000000000
     19470       168  SAPS      C13           -32.7540248565      -10.6020919749      -21.2997425551  MEMB      168             0.0000000000
     19471       168  SAPS      O13A          -31.8134399620       -9.8675030472      -20.9292566467  MEMB      168             0.0000000000
     19472       168  SAPS      O13B          -32.6494749605      -11.8434451981      -21.4731641150  MEMB      168             0.0000000000
     19473       168  SAPS      C11           -34.9317424152      -10.6486980911      -20.0800255563  MEMB      168             0.0000000000
     19474       168  SAPS      H11A          -34.3560127646      -10.4962775527      -19.1345635225  MEMB      168             0.0000000000
     19475       168  SAPS      H11B          -34.9453706845      -11.7474011787      -20.2876489164  MEMB      168             0.0000000000
     19476       168  SAPS      P             -37.2081756142      -10.3260297729      -18.7504606353  MEMB      168             0.0000000000
     19477       168  SAPS      O13           -36.7496053223       -9.4451148797      -17.6654494719  MEMB      168             0.0000000000
     19478       168  SAPS      O14           -38.5878922323      -10.1897097708      -19.2520390791  MEMB      168             0.0000000000
     19479       168  SAPS      O12           -36.2631324579      -10.1286358112      -19.9945377009  MEMB      168             0.0000000000
     19480       168  SAPS      O11           -36.9223076992      -11.7914542989      -18.3540547191  MEMB      168             0.0000000000
     19481       168  SAPS      C1            -37.7197501645      -12.8088442713      -18.9120503625  MEMB      168             0.0000000000
     19482       168  SAPS      HA            -38.7466601818      -12.8720872607      -18.4489080230  MEMB      168             0.0000000000
     19483       168  SAPS      HB            -37.7859783399      -12.8248370357      -20.0331554643  MEMB      168             0.0000000000
     19484       168  SAPS      C2            -37.0320664193      -14.0765966656      -18.6121650504  MEMB      168             0.0000000000
     19485       168  SAPS      HS            -37.5511406868      -14.8535911494      -19.1077678501  MEMB      168             0.0000000000
     19486       168  SAPS      O21           -36.6653344000      -14.2083805793      -17.1722495379  MEMB      168             0.0000000000
     19487       168  SAPS      C21           -37.5098035488      -14.3653343657      -16.0837542181  MEMB      168             0.0000000000
     19488       168  SAPS      O22           -38.6485217923      -14.0983901406      -16.0084934402  MEMB      168             0.0000000000
     19489       168  SAPS      C22           -36.9818626558      -15.0749990536      -14.8563994623  MEMB      168             0.0000000000
     19490       168  SAPS      H2R           -36.5120987671      -15.9978850064      -15.2138918204  MEMB      168             0.0000000000
     19491       168  SAPS      H2S           -36.3179148633      -14.3134835309      -14.4492835561  MEMB      168             0.0000000000
     19492       168  SAPS      C3            -35.7697039223      -14.4261483700      -19.4906523587  MEMB      168             0.0000000000
     19493       168  SAPS      HX            -36.0082507728      -14.2084355987      -20.5535418846  MEMB      168             0.0000000000
     19494       168  SAPS      HY            -35.5267413567      -15.5066723218      -19.5767072290  MEMB      168             0.0000000000
     19495       168  SAPS      O31           -34.6289751169      -13.8320580522      -19.0118128358  MEMB      168             0.0000000000
     19496       168  SAPS      C31           -33.9940616389      -14.4618707033      -18.0595253299  MEMB      168             0.0000000000
     19497       168  SAPS      O32           -34.2184890290      -15.5495648003      -17.5495884616  MEMB      168             0.0000000000
     19498       168  SAPS      C32           -33.0403785990      -13.5395547403      -17.6272541994  MEMB      168             0.0000000000
     19499       168  SAPS      H2X           -32.7326676189      -12.8086280642      -18.4199976627  MEMB      168             0.0000000000
     19500       168  SAPS      H2Y           -32.1389983316      -14.0637847218      -17.2351771328  MEMB      168             0.0000000000
     19501       168  SAPS      C23           -38.0765998767      -15.5636152032      -13.8149214055  MEMB      168             0.0000000000
     19502       168  SAPS      H3R           -37.6408193895      -15.9727231177      -12.8902872246  MEMB      168             0.0000000000
     19503       168  SAPS      H3S           -38.4222572924      -16.4984170950      -14.2803886065  MEMB      168             0.0000000000
     19504       168  SAPS      C24           -39.1847924644      -14.6332828380      -13.2424725905  MEMB      168             0.0000000000
     19505       168  SAPS      H4R           -39.8082011786      -15.0558187717      -12.4348783717  MEMB      168             0.0000000000
     19506       168  SAPS      H4S           -40.0709770357      -14.2874809362      -13.7352301245  MEMB      168             0.0000000000
     19507       168  SAPS      C25           -38.5718949097      -13.3486216180      -13.1263592984  MEMB      168             0.0000000000
     19508       168  SAPS      H5R           -38.3796097195      -12.7957256670      -14.0662699103  MEMB      168             0.0000000000
     19509       168  SAPS      C26           -38.7731732756      -12.6827037294      -12.0578774448  MEMB      168             0.0000000000
     19510       168  SAPS      H6R           -38.3785356764      -11.7162009047      -12.1917231823  MEMB      168             0.0000000000
     19511       168  SAPS      C27           -39.5676523302      -12.9634499621      -10.8291804268  MEMB      168             0.0000000000
     19512       168  SAPS      H7R           -40.6717759100      -12.9454743650      -11.0010255035  MEMB      168             0.0000000000
     19513       168  SAPS      H7S           -39.4089069215      -12.2438650796      -10.0612297993  MEMB      168             0.0000000000
     19514       168  SAPS      C28           -39.1356655198      -14.1249592817      -10.1381683902  MEMB      168             0.0000000000
     19515       168  SAPS      H8R           -39.7461353175      -14.9001095690      -10.5758799630  MEMB      168             0.0000000000
     19516       168  SAPS      C29           -38.1441973070      -14.3068237795       -9.2547152244  MEMB      168             0.0000000000
     19517       168  SAPS      H9R           -37.9638043288      -15.3142340857       -8.8714868809  MEMB      168             0.0000000000
     19518       168  SAPS      C210          -37.2033220822      -13.2578431277       -8.7619322171  MEMB      168             0.0000000000
     19519       168  SAPS      H10R          -37.0364313771      -13.3553633163       -7.6672264892  MEMB      168             0.0000000000
     19520       168  SAPS      H10S          -37.6518639681      -12.2711841446       -8.8456256343  MEMB      168             0.0000000000
     19521       168  SAPS      C211          -35.9671062391      -13.2746772434       -9.6175694581  MEMB      168             0.0000000000
     19522       168  SAPS      H11R          -36.0954141718      -13.0108229425      -10.6663380583  MEMB      168             0.0000000000
     19523       168  SAPS      C212          -34.7872562311      -13.7422157122       -9.2477618098  MEMB      168             0.0000000000
     19524       168  SAPS      H12R          -33.9253469605      -13.7194963099       -9.9305001976  MEMB      168             0.0000000000
     19525       168  SAPS      C213          -34.5860030295      -14.3144258608       -7.9099261608  MEMB      168             0.0000000000
     19526       168  SAPS      H13R          -34.8568180974      -13.6753156255       -7.0543451962  MEMB      168             0.0000000000
     19527       168  SAPS      H13S          -33.5725642078      -14.3499823537       -7.7975092515  MEMB      168             0.0000000000
     19528       168  SAPS      C214          -35.1967836714      -15.6608265458       -7.9235650233  MEMB      168             0.0000000000
     19529       168  SAPS      H14R          -34.9398276987      -16.3498854766       -8.7501081717  MEMB      168             0.0000000000
     19530       168  SAPS      C215          -35.7997012758      -16.1415006620       -6.8672536219  MEMB      168             0.0000000000
     19531       168  SAPS      H15R          -35.9487121171      -17.2335524364       -6.9650797056  MEMB      168             0.0000000000
     19532       168  SAPS      C216          -35.9302316834      -15.4149205202       -5.5011151355  MEMB      168             0.0000000000
     19533       168  SAPS      H16R          -35.1511085389      -14.6607775102       -5.2802855159  MEMB      168             0.0000000000
     19534       168  SAPS      H16S          -35.4970346287      -15.8232913195       -4.5579818519  MEMB      168             0.0000000000
     19535       168  SAPS      C217          -37.2283442635      -15.7855604303       -4.8516839664  MEMB      168             0.0000000000
     19536       168  SAPS      H17R          -37.4026539178      -16.8971218887       -4.9144934722  MEMB      168             0.0000000000
     19537       168  SAPS      H17S          -37.8831804633      -15.2656836407       -5.5626569862  MEMB      168             0.0000000000
     19538       168  SAPS      C218          -37.3271989571      -15.2999290810       -3.3942371961  MEMB      168             0.0000000000
     19539       168  SAPS      H18R          -36.8656028099      -14.3139074162       -3.2653861114  MEMB      168             0.0000000000
     19540       168  SAPS      H18S          -36.8727649272      -15.8713984746       -2.5862708586  MEMB      168             0.0000000000
     19541       168  SAPS      C219          -38.6621288624      -15.4846865816       -2.7800933834  MEMB      168             0.0000000000
     19542       168  SAPS      H19R          -39.4398828249      -15.0356848783       -3.4335619978  MEMB      168             0.0000000000
     19543       168  SAPS      H19S          -38.6763538000      -15.2130751087       -1.7106130154  MEMB      168             0.0000000000
     19544       168  SAPS      C220          -39.0382187644      -16.8778323104       -2.6885668876  MEMB      168             0.0000000000
     19545       168  SAPS      H20R          -39.3163179510      -17.0312202525       -3.7352932391  MEMB      168             0.0000000000
     19546       168  SAPS      H20S          -40.0207963110      -16.9430865362       -2.2022124285  MEMB      168             0.0000000000
     19547       168  SAPS      H20T          -38.3418010399      -17.6671706516       -2.2820619690  MEMB      168             0.0000000000
     19548       168  SAPS      C33           -33.9167418092      -12.8336756058      -16.6243133937  MEMB      168             0.0000000000
     19549       168  SAPS      H3X           -34.3250278208      -13.3497381573      -15.7233845062  MEMB      168             0.0000000000
     19550       168  SAPS      H3Y           -34.6386079137      -12.0824657735      -17.0519926979  MEMB      168             0.0000000000
     19551       168  SAPS      C34           -32.9358007488      -12.0495767399      -16.0528025684  MEMB      168             0.0000000000
     19552       168  SAPS      H4X           -33.0231368286      -11.0680532170      -16.5944706796  MEMB      168             0.0000000000
     19553       168  SAPS      H4Y           -31.8934232565      -12.3915200766      -16.3539795387  MEMB      168             0.0000000000
     19554       168  SAPS      C35           -33.0022089296      -12.0571314344      -14.5361639880  MEMB      168             0.0000000000
     19555       168  SAPS      H5X           -31.9018069840      -12.0519006275      -14.4369449025  MEMB      168             0.0000000000
     19556       168  SAPS      H5Y           -32.8985986747      -12.9153840373      -13.8733834519  MEMB      168             0.0000000000
     19557       168  SAPS      C36           -33.9943119565      -10.9717019125      -13.9753728601  MEMB      168             0.0000000000
     19558       168  SAPS      H6X           -35.0094940049      -11.1890940052      -14.3297304695  MEMB      168             0.0000000000
     19559       168  SAPS      H6Y           -33.8428455086       -9.9316051889      -14.3835047857  MEMB      168             0.0000000000
     19560       168  SAPS      C37           -33.9242153055      -10.8091817473      -12.4319824596  MEMB      168             0.0000000000
     19561       168  SAPS      H7X           -32.9742491281      -10.4610943982      -11.9354307092  MEMB      168             0.0000000000
     19562       168  SAPS      H7Y           -34.1389115989      -11.7428003364      -11.9074353488  MEMB      168             0.0000000000
     19563       168  SAPS      C38           -34.7935166100       -9.6983874126      -12.0138994007  MEMB      168             0.0000000000
     19564       168  SAPS      H8X           -35.7348900195       -9.6997300547      -12.5996163432  MEMB      168             0.0000000000
     19565       168  SAPS      H8Y           -34.2488187554       -8.7968169386      -12.3517297932  MEMB      168             0.0000000000
     19566       168  SAPS      C39           -34.9534995746       -9.8373722290      -10.4933807259  MEMB      168             0.0000000000
     19567       168  SAPS      H9X           -34.0093999828       -9.5964977011       -9.9953788528  MEMB      168             0.0000000000
     19568       168  SAPS      H9Y           -35.1850714529      -10.8702948406      -10.2193034281  MEMB      168             0.0000000000
     19569       168  SAPS      C310          -36.1630147142       -9.0829602597      -10.0423217960  MEMB      168             0.0000000000
     19570       168  SAPS      H10X          -36.6362538526       -9.5216917438      -10.8562026670  MEMB      168             0.0000000000
     19571       168  SAPS      H10Y          -36.4061131464       -8.1108938733      -10.4644272323  MEMB      168             0.0000000000
     19572       168  SAPS      C311          -36.5622306624       -8.5942655696       -8.5945298897  MEMB      168             0.0000000000
     19573       168  SAPS      H11X          -37.0102288721       -7.5794514997       -8.7675045418  MEMB      168             0.0000000000
     19574       168  SAPS      H11Y          -35.7796992794       -8.4023181831       -7.8695678347  MEMB      168             0.0000000000
     19575       168  SAPS      C312          -36.9486722060       -9.4358035937       -7.4680423128  MEMB      168             0.0000000000
     19576       168  SAPS      H12X          -36.5464133202      -10.4284791206       -7.6179053905  MEMB      168             0.0000000000
     19577       168  SAPS      H12Y          -37.7010992988       -9.2646453703       -8.2048067658  MEMB      168             0.0000000000
     19578       168  SAPS      C313          -37.1416366742       -8.8362368803       -6.0056777718  MEMB      168             0.0000000000
     19579       168  SAPS      H13X          -37.5173175013       -7.7987730902       -6.1483276862  MEMB      168             0.0000000000
     19580       168  SAPS      H13Y          -36.1791127985       -8.5567148241       -5.5803074683  MEMB      168             0.0000000000
     19581       168  SAPS      C314          -37.9761227379       -9.6813805655       -4.9101016722  MEMB      168             0.0000000000
     19582       168  SAPS      H14X          -39.0346687136       -9.9895454804       -4.9915296869  MEMB      168             0.0000000000
     19583       168  SAPS      H14Y          -38.3719955433       -9.1126293941       -4.0616692868  MEMB      168             0.0000000000
     19584       168  SAPS      C315          -37.7976022578      -11.1906805670       -5.0661555052  MEMB      168             0.0000000000
     19585       168  SAPS      H15X          -36.8073112326      -11.2777885251       -4.6184967267  MEMB      168             0.0000000000
     19586       168  SAPS      H15Y          -37.7150537847      -11.5134307220       -6.1346996429  MEMB      168             0.0000000000
     19587       168  SAPS      C316          -38.9600680239      -12.0631398206       -4.5161370889  MEMB      168             0.0000000000
     19588       168  SAPS      H16X          -38.6317218045      -13.1179318131       -4.6052230028  MEMB      168             0.0000000000
     19589       168  SAPS      H16Y          -39.9479139297      -12.0307606466       -5.0257592168  MEMB      168             0.0000000000
     19590       168  SAPS      C317          -39.4334780275      -11.6786518541       -3.1378685263  MEMB      168             0.0000000000
     19591       168  SAPS      H17X          -38.7344713546      -10.9718316703       -2.6338866478  MEMB      168             0.0000000000
     19592       168  SAPS      H17Y          -39.4401227469      -12.6651354990       -2.6877326486  MEMB      168             0.0000000000
     19593       168  SAPS      C318          -40.8457673337      -11.1504588830       -2.9764033380  MEMB      168             0.0000000000
     19594       168  SAPS      H18X          -40.6673051819      -10.0925800067       -2.7952181269  MEMB      168             0.0000000000
     19595       168  SAPS      H18Y          -41.3005339799      -11.2345146675       -1.9871514620  MEMB      168             0.0000000000
     19596       168  SAPS      H18Z          -41.5465551384      -11.3148639156       -3.8371460899  MEMB      168             0.0000000000
     19597       169  OSM       N             -20.2627550056      -27.5578238676      -20.1208566596  MEMB      169             0.0000000000
     19598       169  OSM       C15           -19.1066054503      -27.6019849930      -19.1718150359  MEMB      169             0.0000000000
     19599       169  OSM       H15A          -18.7005150749      -28.5844707682      -19.0539018401  MEMB      169             0.0000000000
     19600       169  OSM       H15B          -19.4048201351      -27.2211405749      -18.1955138622  MEMB      169             0.0000000000
     19601       169  OSM       H15C          -18.3163889479      -26.9439824647      -19.5183111836  MEMB      169             0.0000000000
     19602       169  OSM       C14           -20.6061906911      -26.1056443935      -20.2760707128  MEMB      169             0.0000000000
     19603       169  OSM       H14A          -20.7832973327      -25.6537986165      -19.2961373625  MEMB      169             0.0000000000
     19604       169  OSM       H14B          -21.5475904939      -26.0481421682      -20.8193260734  MEMB      169             0.0000000000
     19605       169  OSM       H14C          -19.8448835309      -25.5271710265      -20.7796260089  MEMB      169             0.0000000000
     19606       169  OSM       C13           -19.9034602533      -28.1766930606      -21.4391175920  MEMB      169             0.0000000000
     19607       169  OSM       H13A          -19.0611596843      -27.7329146316      -21.9376537168  MEMB      169             0.0000000000
     19608       169  OSM       H13B          -20.7471819245      -28.0885494695      -22.1362069169  MEMB      169             0.0000000000
     19609       169  OSM       H13C          -19.7592054218      -29.2454253505      -21.3502276079  MEMB      169             0.0000000000
     19610       169  OSM       C12           -21.5136347665      -28.2289816970      -19.5470591617  MEMB      169             0.0000000000
     19611       169  OSM       H12A          -21.6583628182      -27.8671119353      -18.5392101490  MEMB      169             0.0000000000
     19612       169  OSM       H12B          -21.3464673079      -29.2973369647      -19.5124647703  MEMB      169             0.0000000000
     19613       169  OSM       C11           -22.8957523799      -27.9931038554      -20.2508959518  MEMB      169             0.0000000000
     19614       169  OSM       H11A          -23.1572819202      -26.9209890031      -20.1365144513  MEMB      169             0.0000000000
     19615       169  OSM       H11B          -23.7156571217      -28.5543606736      -19.7345572381  MEMB      169             0.0000000000
     19616       169  OSM       P             -23.0211850966      -29.7725009081      -22.1451537092  MEMB      169             0.0000000000
     19617       169  OSM       O13           -24.4552411291      -30.1276864016      -22.1430801377  MEMB      169             0.0000000000
     19618       169  OSM       O14           -22.2475727811      -29.9773352342      -23.3668488673  MEMB      169             0.0000000000
     19619       169  OSM       O11           -22.3142760928      -30.5255109376      -20.9463438143  MEMB      169             0.0000000000
     19620       169  OSM       O12           -22.8778574284      -28.2828532033      -21.6425681387  MEMB      169             0.0000000000
     19621       169  OSM       C1S           -22.6156388442      -31.8450237805      -20.5180101551  MEMB      169             0.0000000000
     19622       169  OSM       H1S           -22.4457037356      -32.5645418822      -21.3555791307  MEMB      169             0.0000000000
     19623       169  OSM       H1T           -23.6609552814      -31.9481879872      -20.2709272841  MEMB      169             0.0000000000
     19624       169  OSM       NF            -22.0008200436      -31.2397384593      -18.1673727316  MEMB      169             0.0000000000
     19625       169  OSM       HNF           -21.3705075501      -30.4954647647      -18.0615678675  MEMB      169             0.0000000000
     19626       169  OSM       C2S           -21.7463250018      -32.1429723804      -19.2499740527  MEMB      169             0.0000000000
     19627       169  OSM       H2S           -21.8587551098      -33.2198046640      -18.9269686626  MEMB      169             0.0000000000
     19628       169  OSM       C3S           -20.3382627937      -31.9558681746      -19.6854215261  MEMB      169             0.0000000000
     19629       169  OSM       H3S           -20.1058896453      -30.9471577807      -20.0559312974  MEMB      169             0.0000000000
     19630       169  OSM       O3            -20.2318811092      -32.7219828704      -20.8402070012  MEMB      169             0.0000000000
     19631       169  OSM       HO3           -20.8271093331      -33.4632518133      -20.6492502644  MEMB      169             0.0000000000
     19632       169  OSM       C4S           -19.3904887021      -32.2949186182      -18.5206102444  MEMB      169             0.0000000000
     19633       169  OSM       H4S           -19.2642211818      -33.3505333215      -18.2102197763  MEMB      169             0.0000000000
     19634       169  OSM       C5S           -18.6455262944      -31.3709213009      -17.8829976354  MEMB      169             0.0000000000
     19635       169  OSM       H5S           -18.6352397943      -30.3378437227      -18.2455326770  MEMB      169             0.0000000000
     19636       169  OSM       C6S           -17.7316719991      -31.5976792814      -16.7115224767  MEMB      169             0.0000000000
     19637       169  OSM       H6S           -16.6680221402      -31.3439251334      -16.8653417880  MEMB      169             0.0000000000
     19638       169  OSM       H6T           -17.7409020955      -32.6659042379      -16.3915584590  MEMB      169             0.0000000000
     19639       169  OSM       C7S           -18.2986864975      -30.5777704044      -15.6714139397  MEMB      169             0.0000000000
     19640       169  OSM       H7S           -19.3287222439      -30.8835554052      -15.3665120766  MEMB      169             0.0000000000
     19641       169  OSM       H7T           -18.2411008170      -29.5248348743      -15.9947235987  MEMB      169             0.0000000000
     19642       169  OSM       C8S           -17.4964455786      -30.4448044724      -14.4029903623  MEMB      169             0.0000000000
     19643       169  OSM       H8S           -16.4012501766      -30.4265278389      -14.6450680307  MEMB      169             0.0000000000
     19644       169  OSM       H8T           -17.8987420199      -31.4060913305      -14.0295578192  MEMB      169             0.0000000000
     19645       169  OSM       C9S           -17.7977854162      -29.5029203339      -13.2173421736  MEMB      169             0.0000000000
     19646       169  OSM       H9S           -18.1646694421      -28.5328728992      -13.5533545465  MEMB      169             0.0000000000
     19647       169  OSM       H9T           -16.7965024067      -29.2399831362      -12.7767206518  MEMB      169             0.0000000000
     19648       169  OSM       C10S          -18.7183928735      -30.1827728824      -12.1380123091  MEMB      169             0.0000000000
     19649       169  OSM       H10S          -18.3958460492      -31.2122281869      -11.8460939997  MEMB      169             0.0000000000
     19650       169  OSM       H10T          -19.6998040963      -30.3300638015      -12.6172516406  MEMB      169             0.0000000000
     19651       169  OSM       C11S          -18.8575764177      -29.4062124300      -10.8201878548  MEMB      169             0.0000000000
     19652       169  OSM       H11S          -18.9773890652      -28.3374429009      -11.0937029106  MEMB      169             0.0000000000
     19653       169  OSM       H11T          -17.9442824525      -29.4898191590      -10.1805988825  MEMB      169             0.0000000000
     19654       169  OSM       C12S          -20.0401807615      -29.8166485160       -9.9251297147  MEMB      169             0.0000000000
     19655       169  OSM       H12S          -19.8637499500      -30.8329141571       -9.5020185731  MEMB      169             0.0000000000
     19656       169  OSM       H12T          -20.9996133981      -29.8425793933      -10.4859535944  MEMB      169             0.0000000000
     19657       169  OSM       C13S          -20.1495268366      -28.7748156566       -8.8086306252  MEMB      169             0.0000000000
     19658       169  OSM       H13S          -20.4921297510      -27.8104780904       -9.2532694658  MEMB      169             0.0000000000
     19659       169  OSM       H13T          -19.1312948631      -28.6034061783       -8.4035118642  MEMB      169             0.0000000000
     19660       169  OSM       C14S          -21.1326738637      -29.1027712679       -7.6893687427  MEMB      169             0.0000000000
     19661       169  OSM       H14S          -21.0069035657      -30.1271549725       -7.2802418541  MEMB      169             0.0000000000
     19662       169  OSM       H14T          -22.1130218949      -29.0252377808       -8.2088330982  MEMB      169             0.0000000000
     19663       169  OSM       C15S          -21.0858887047      -28.0621287332       -6.5594286919  MEMB      169             0.0000000000
     19664       169  OSM       H15S          -22.0551209896      -27.5622345455       -6.4066357296  MEMB      169             0.0000000000
     19665       169  OSM       H15T          -20.3909381154      -27.2731632403       -6.9173197048  MEMB      169             0.0000000000
     19666       169  OSM       C16S          -20.5398939919      -28.5320576049       -5.2004886402  MEMB      169             0.0000000000
     19667       169  OSM       H16S          -20.2564490311      -27.6006937819       -4.6585786426  MEMB      169             0.0000000000
     19668       169  OSM       H16T          -19.6335130720      -29.1369762126       -5.4074132245  MEMB      169             0.0000000000
     19669       169  OSM       C17S          -21.4779714128      -29.3265853358       -4.2738898882  MEMB      169             0.0000000000
     19670       169  OSM       H17S          -21.7530595495      -30.2772280123       -4.7821831963  MEMB      169             0.0000000000
     19671       169  OSM       H17T          -22.4172477916      -28.7480666369       -4.1122098396  MEMB      169             0.0000000000
     19672       169  OSM       C18S          -20.8870010737      -29.6736708113       -2.8946529080  MEMB      169             0.0000000000
     19673       169  OSM       H18S          -21.5054082158      -30.4668629904       -2.4244998081  MEMB      169             0.0000000000
     19674       169  OSM       H18T          -20.9012664014      -28.7951302685       -2.2138251112  MEMB      169             0.0000000000
     19675       169  OSM       H18U          -19.8436398642      -30.0555642098       -2.9554869943  MEMB      169             0.0000000000
     19676       169  OSM       C1F           -22.9645196680      -31.5592634094      -17.3536973746  MEMB      169             0.0000000000
     19677       169  OSM       OF            -23.6256274592      -32.5158027928      -17.6548756169  MEMB      169             0.0000000000
     19678       169  OSM       C2F           -23.1828842952      -30.8599370912      -16.0957657254  MEMB      169             0.0000000000
     19679       169  OSM       H2F           -24.2392017783      -30.5162894875      -16.0812257667  MEMB      169             0.0000000000
     19680       169  OSM       H2G           -22.4760045448      -30.0138619309      -15.9871704881  MEMB      169             0.0000000000
     19681       169  OSM       C3F           -23.0584212039      -31.8571648715      -14.9361983056  MEMB      169             0.0000000000
     19682       169  OSM       H3F           -22.0471931226      -32.3133569210      -14.8697498135  MEMB      169             0.0000000000
     19683       169  OSM       H3G           -23.7822365297      -32.6994893646      -15.0607052378  MEMB      169             0.0000000000
     19684       169  OSM       C4F           -23.3656957397      -31.0613573030      -13.6778972932  MEMB      169             0.0000000000
     19685       169  OSM       H4F           -24.4395911048      -30.7477392796      -13.7295234069  MEMB      169             0.0000000000
     19686       169  OSM       H4G           -22.7354757654      -30.1470082858      -13.6573942157  MEMB      169             0.0000000000
     19687       169  OSM       C5F           -23.1088776779      -31.7964986858      -12.3822585604  MEMB      169             0.0000000000
     19688       169  OSM       H5F           -23.2492235778      -31.0040202342      -11.6014166475  MEMB      169             0.0000000000
     19689       169  OSM       H5G           -22.0715433449      -32.1400944178      -12.2417421506  MEMB      169             0.0000000000
     19690       169  OSM       C6F           -24.0585895763      -32.9908109204      -12.2935815708  MEMB      169             0.0000000000
     19691       169  OSM       H6F           -23.9642215271      -33.8205919868      -12.9876784012  MEMB      169             0.0000000000
     19692       169  OSM       H6G           -25.0674339513      -32.5379475834      -12.5452889173  MEMB      169             0.0000000000
     19693       169  OSM       C7F           -23.9139136236      -33.8147921120      -11.0166961170  MEMB      169             0.0000000000
     19694       169  OSM       H7F           -23.0035626567      -33.7108423408      -10.3525350594  MEMB      169             0.0000000000
     19695       169  OSM       H7G           -24.6045072519      -34.7161899020      -10.9425210377  MEMB      169             0.0000000000
     19696       169  OSM       C8F           -24.6791665490      -33.0082160157      -10.2427314928  MEMB      169             0.0000000000
     19697       169  OSM       H8F           -25.6140035240      -32.9873376922      -10.8596861778  MEMB      169             0.0000000000
     19698       169  OSM       H8G           -24.2664934896      -31.9761448262      -10.2834376739  MEMB      169             0.0000000000
     19699       169  OSM       C9F           -24.7619190012      -33.6210337838       -8.9138959106  MEMB      169             0.0000000000
     19700       169  OSM       H9F           -25.9194660643      -33.7021236109       -8.7328507043  MEMB      169             0.0000000000
     19701       169  OSM       C10F          -24.2278526009      -32.8657080515       -7.9661005016  MEMB      169             0.0000000000
     19702       169  OSM       H10F          -25.1175965708      -33.3388311139       -7.4101829686  MEMB      169             0.0000000000
     19703       169  OSM       C11F          -23.4371240742      -31.2963867833       -7.3530819438  MEMB      169             0.0000000000
     19704       169  OSM       H11F          -23.3114907601      -30.4681690408       -8.0557674902  MEMB      169             0.0000000000
     19705       169  OSM       H11G          -22.4574622842      -31.5180799675       -6.9582184141  MEMB      169             0.0000000000
     19706       169  OSM       C12F          -24.0616240857      -29.7201049992       -6.4477757223  MEMB      169             0.0000000000
     19707       169  OSM       H12F          -23.4885430741      -28.8072613470       -6.5424692659  MEMB      169             0.0000000000
     19708       169  OSM       H12G          -23.9904713093      -29.8904304771       -5.3433686147  MEMB      169             0.0000000000
     19709       169  OSM       C13F          -25.6138376067      -28.9735107442       -6.5291838538  MEMB      169             0.0000000000
     19710       169  OSM       H13F          -26.5896069446      -29.5529217681       -6.5441148688  MEMB      169             0.0000000000
     19711       169  OSM       H13G          -25.8161874289      -28.5244090426       -7.5120443375  MEMB      169             0.0000000000
     19712       169  OSM       C14F          -26.2247783583      -28.1904112648       -5.4131745409  MEMB      169             0.0000000000
     19713       169  OSM       H14F          -27.2946994354      -28.0061161957       -5.6574756121  MEMB      169             0.0000000000
     19714       169  OSM       H14G          -25.5566168375      -27.3288215677       -5.4019333813  MEMB      169             0.0000000000
     19715       169  OSM       C15F          -26.3904107286      -28.9622472842       -4.1522019232  MEMB      169             0.0000000000
     19716       169  OSM       H15F          -25.4616513342      -29.5242049728       -3.9899887419  MEMB      169             0.0000000000
     19717       169  OSM       H15G          -27.3202226753      -29.6025547309       -4.1549169115  MEMB      169             0.0000000000
     19718       169  OSM       C16F          -26.3591247457      -28.2188493732       -2.8800493788  MEMB      169             0.0000000000
     19719       169  OSM       H16F          -26.7480992008      -28.8294760618       -2.1095901075  MEMB      169             0.0000000000
     19720       169  OSM       H16G          -27.0338313206      -27.4852606981       -2.7322393319  MEMB      169             0.0000000000
     19721       169  OSM       C17F          -25.3648966086      -27.2110551850       -2.6108428135  MEMB      169             0.0000000000
     19722       169  OSM       H17F          -25.8063574377      -26.2234497704       -2.2515921110  MEMB      169             0.0000000000
     19723       169  OSM       H17G          -24.9777285406      -26.9960079914       -3.6256155669  MEMB      169             0.0000000000
     19724       169  OSM       C18F          -24.4222131962      -27.7526734856       -1.5594153287  MEMB      169             0.0000000000
     19725       169  OSM       H18F          -24.1578230213      -28.7826973405       -1.8307579269  MEMB      169             0.0000000000
     19726       169  OSM       H18G          -24.8859741041      -27.5534238841       -0.5617407667  MEMB      169             0.0000000000
     19727       169  OSM       H18H          -23.4197718391      -27.3933105587       -1.4086561464  MEMB      169             0.0000000000
     19728       170  SLPC      N              38.9941187001       -5.0230065210      -17.1649113582  MEMB      170             0.0000000000
     19729       170  SLPC      C13            40.2915014952       -5.6588718243      -16.8080886949  MEMB      170             0.0000000000
     19730       170  SLPC      H13A           40.1462325097       -6.5872219801      -16.2749718681  MEMB      170             0.0000000000
     19731       170  SLPC      H13B           40.8806586821       -5.8638239012      -17.6996751350  MEMB      170             0.0000000000
     19732       170  SLPC      H13C           40.8940210310       -4.9934774877      -16.1962680230  MEMB      170             0.0000000000
     19733       170  SLPC      C14            38.2471137007       -5.8584832130      -18.1617786078  MEMB      170             0.0000000000
     19734       170  SLPC      H14A           37.3683070135       -5.3135376256      -18.5205481606  MEMB      170             0.0000000000
     19735       170  SLPC      H14B           38.8795959532       -6.1382732021      -18.9879305637  MEMB      170             0.0000000000
     19736       170  SLPC      H14C           37.8453351192       -6.7436412684      -17.6731780298  MEMB      170             0.0000000000
     19737       170  SLPC      C15            39.3093263479       -3.6610498067      -17.7076976929  MEMB      170             0.0000000000
     19738       170  SLPC      H15A           38.3811493939       -3.1416925835      -17.9656641721  MEMB      170             0.0000000000
     19739       170  SLPC      H15B           39.7737149762       -3.0480339250      -16.9430542793  MEMB      170             0.0000000000
     19740       170  SLPC      H15C           39.9705669361       -3.7163324500      -18.5574119227  MEMB      170             0.0000000000
     19741       170  SLPC      C12            38.0894843829       -4.8713673976      -15.9563702670  MEMB      170             0.0000000000
     19742       170  SLPC      H12A           38.5076899234       -4.1110047033      -15.3038360542  MEMB      170             0.0000000000
     19743       170  SLPC      H12B           38.0629535231       -5.8013773670      -15.4171901427  MEMB      170             0.0000000000
     19744       170  SLPC      C11            36.6069459155       -4.5560356082      -16.2154947467  MEMB      170             0.0000000000
     19745       170  SLPC      H11A           36.1232288731       -4.2549900488      -15.2536997424  MEMB      170             0.0000000000
     19746       170  SLPC      H11B           36.0720125480       -5.4338428536      -16.6281203828  MEMB      170             0.0000000000
     19747       170  SLPC      P              35.4421822182       -2.4901312898      -17.1999697450  MEMB      170             0.0000000000
     19748       170  SLPC      O13            35.8349873451       -1.7193534254      -18.3716276572  MEMB      170             0.0000000000
     19749       170  SLPC      O14            34.0960068265       -2.9892530830      -17.0331007264  MEMB      170             0.0000000000
     19750       170  SLPC      O12            36.5192689034       -3.5730042984      -17.1923508715  MEMB      170             0.0000000000
     19751       170  SLPC      O11            35.7736507890       -1.8421600882      -15.8351339617  MEMB      170             0.0000000000
     19752       170  SLPC      C1             37.0117752009       -1.3059249278      -15.6771379586  MEMB      170             0.0000000000
     19753       170  SLPC      HA             37.8710521114       -1.8208437736      -16.1031622656  MEMB      170             0.0000000000
     19754       170  SLPC      HB             36.7751402739       -0.3230400086      -16.0601431519  MEMB      170             0.0000000000
     19755       170  SLPC      C2             37.6088578364       -1.3082242272      -14.3518344625  MEMB      170             0.0000000000
     19756       170  SLPC      HS             38.6323406552       -0.8669582579      -14.4371056225  MEMB      170             0.0000000000
     19757       170  SLPC      O21            37.8682287528       -2.6035807055      -13.8853631180  MEMB      170             0.0000000000
     19758       170  SLPC      C21            38.8717195544       -2.9080839127      -13.1124043405  MEMB      170             0.0000000000
     19759       170  SLPC      O22            40.0016535521       -2.4519701563      -13.0483548488  MEMB      170             0.0000000000
     19760       170  SLPC      C22            38.3663965140       -4.0869164907      -12.4306579830  MEMB      170             0.0000000000
     19761       170  SLPC      H2R            38.3286302176       -4.0829067020      -11.3368140914  MEMB      170             0.0000000000
     19762       170  SLPC      H2S            37.3321032015       -4.3292014002      -12.7620601561  MEMB      170             0.0000000000
     19763       170  SLPC      C3             36.4737401331       -0.5266246900      -13.6476530523  MEMB      170             0.0000000000
     19764       170  SLPC      HX             36.2735437128        0.5408905491      -13.7737850818  MEMB      170             0.0000000000
     19765       170  SLPC      HY             36.7119387624        0.1099760668      -12.7959277361  MEMB      170             0.0000000000
     19766       170  SLPC      O31            35.4253184599       -1.5222794248      -13.4562890930  MEMB      170             0.0000000000
     19767       170  SLPC      C31            35.2429648281       -1.6754140951      -12.1806689459  MEMB      170             0.0000000000
     19768       170  SLPC      O32            35.5858912280       -0.8758295068      -11.4472196356  MEMB      170             0.0000000000
     19769       170  SLPC      C32            34.6000212967       -2.8621234521      -11.6151194460  MEMB      170             0.0000000000
     19770       170  SLPC      H2X            34.8168395536       -3.6575086191      -12.3157205479  MEMB      170             0.0000000000
     19771       170  SLPC      H2Y            33.5547748954       -2.5808180265      -11.5521008315  MEMB      170             0.0000000000
     19772       170  SLPC      C23            39.4638374064       -4.9747226923      -12.9211017228  MEMB      170             0.0000000000
     19773       170  SLPC      H3R            40.3666109886       -4.8200662961      -12.2733467868  MEMB      170             0.0000000000
     19774       170  SLPC      H3S            39.7589715176       -4.8067614699      -13.9813341183  MEMB      170             0.0000000000
     19775       170  SLPC      C24            38.9624705506       -6.3471671934      -12.9140574617  MEMB      170             0.0000000000
     19776       170  SLPC      H4R            39.8547134355       -6.9986399919      -12.9613954760  MEMB      170             0.0000000000
     19777       170  SLPC      H4S            38.2548563913       -6.5935106656      -13.7252109727  MEMB      170             0.0000000000
     19778       170  SLPC      C25            38.2199446009       -6.6138601217      -11.6694640427  MEMB      170             0.0000000000
     19779       170  SLPC      H5R            37.6385035859       -7.4832569482      -11.9978280974  MEMB      170             0.0000000000
     19780       170  SLPC      H5S            37.5376438641       -5.9281325360      -11.1369915677  MEMB      170             0.0000000000
     19781       170  SLPC      C26            39.2491827876       -6.8437435158      -10.6945879275  MEMB      170             0.0000000000
     19782       170  SLPC      H6R            39.8968550485       -5.9600116557      -10.6001520165  MEMB      170             0.0000000000
     19783       170  SLPC      H6S            39.9032324691       -7.7562800636      -10.9130699698  MEMB      170             0.0000000000
     19784       170  SLPC      C27            38.7746197206       -6.9897136525       -9.3359684756  MEMB      170             0.0000000000
     19785       170  SLPC      H7R            39.0654551682       -7.9047279147       -8.7628448500  MEMB      170             0.0000000000
     19786       170  SLPC      H7S            38.8845898424       -8.0205646458       -9.2746828101  MEMB      170             0.0000000000
     19787       170  SLPC      C28            38.0308695028       -6.0920565101       -8.3821308051  MEMB      170             0.0000000000
     19788       170  SLPC      H8R            37.6404904840       -6.5590890315       -7.4449016116  MEMB      170             0.0000000000
     19789       170  SLPC      H8S            37.1653072056       -5.7879473385       -8.9919069736  MEMB      170             0.0000000000
     19790       170  SLPC      C29            38.9495757274       -5.0853649055       -7.8968806405  MEMB      170             0.0000000000
     19791       170  SLPC      H9R            39.8729235349       -5.2050815985       -7.3980572729  MEMB      170             0.0000000000
     19792       170  SLPC      C210           38.6422621649       -3.9507354419       -7.7109690216  MEMB      170             0.0000000000
     19793       170  SLPC      H10R           39.5373357969       -3.3501358765       -7.4757037931  MEMB      170             0.0000000000
     19794       170  SLPC      C211           37.1383877436       -3.7793948189       -8.2646386791  MEMB      170             0.0000000000
     19795       170  SLPC      H11R           36.5306548126       -4.1757748701       -7.5288101543  MEMB      170             0.0000000000
     19796       170  SLPC      H11S           37.3080134516       -3.6667499925       -9.2727982715  MEMB      170             0.0000000000
     19797       170  SLPC      C212           37.2436737486       -2.4049289572       -7.8378681270  MEMB      170             0.0000000000
     19798       170  SLPC      H12R           37.9683118108       -1.9353776858       -8.4257749278  MEMB      170             0.0000000000
     19799       170  SLPC      C213           35.9893213929       -1.7802607047       -7.3319845643  MEMB      170             0.0000000000
     19800       170  SLPC      H13R           36.0643146762       -0.9022152428       -6.6247122551  MEMB      170             0.0000000000
     19801       170  SLPC      C214           34.8984703365       -2.0713780598       -6.4314049381  MEMB      170             0.0000000000
     19802       170  SLPC      H14R           34.4019779826       -2.7146885963       -7.1455835608  MEMB      170             0.0000000000
     19803       170  SLPC      H14S           34.4043420401       -0.9322562313       -6.6790124806  MEMB      170             0.0000000000
     19804       170  SLPC      C215           35.3116720305       -2.0047338181       -5.1239799727  MEMB      170             0.0000000000
     19805       170  SLPC      H15R           35.8414650242       -2.9406714500       -4.9549386997  MEMB      170             0.0000000000
     19806       170  SLPC      H15S           34.6544788816       -2.1038016053       -4.4673532255  MEMB      170             0.0000000000
     19807       170  SLPC      C216           35.5873323852       -0.7984744191       -4.1165134215  MEMB      170             0.0000000000
     19808       170  SLPC      H16R           35.0955132242        0.1381942645       -4.2980975266  MEMB      170             0.0000000000
     19809       170  SLPC      H16S           36.5323689482       -0.5080692737       -4.3873823671  MEMB      170             0.0000000000
     19810       170  SLPC      C217           35.7062185054       -1.2458386018       -2.6129779833  MEMB      170             0.0000000000
     19811       170  SLPC      H17R           36.3298838458       -0.7024970057       -1.8937890108  MEMB      170             0.0000000000
     19812       170  SLPC      H17S           36.0959746775       -2.2913045930       -2.5868315700  MEMB      170             0.0000000000
     19813       170  SLPC      C218           34.6696075911       -0.8349079505       -1.6666345370  MEMB      170             0.0000000000
     19814       170  SLPC      H18R           34.6117577027       -1.1126070042       -0.6764651931  MEMB      170             0.0000000000
     19815       170  SLPC      H18S           34.0210776524       -1.6855069286       -1.8043273169  MEMB      170             0.0000000000
     19816       170  SLPC      H18T           34.3773999298        0.2164991696       -1.6994863976  MEMB      170             0.0000000000
     19817       170  SLPC      C33            34.4144268213       -3.1354297848      -10.1229351189  MEMB      170             0.0000000000
     19818       170  SLPC      H3X            34.0030492628       -2.3858059103       -9.4278074644  MEMB      170             0.0000000000
     19819       170  SLPC      H3Y            35.3664079897       -3.4763518553       -9.7334892574  MEMB      170             0.0000000000
     19820       170  SLPC      C34            33.1963087616       -4.0380512896      -10.0468250373  MEMB      170             0.0000000000
     19821       170  SLPC      H4X            33.3495440037       -4.7410156866      -10.8620609170  MEMB      170             0.0000000000
     19822       170  SLPC      H4Y            32.2414083766       -3.6014407530      -10.3546351481  MEMB      170             0.0000000000
     19823       170  SLPC      C35            32.9936881016       -4.4454624477       -8.6251575993  MEMB      170             0.0000000000
     19824       170  SLPC      H5X            32.0439003432       -5.0250775189       -8.5195921013  MEMB      170             0.0000000000
     19825       170  SLPC      H5Y            33.0210645189       -3.6086595791       -7.9207954741  MEMB      170             0.0000000000
     19826       170  SLPC      C36            34.1974502909       -5.1259154839       -8.1075454871  MEMB      170             0.0000000000
     19827       170  SLPC      H6X            35.2277644601       -4.9709409442       -8.2800746837  MEMB      170             0.0000000000
     19828       170  SLPC      H6Y            34.2935603642       -5.6626399826       -8.9947384521  MEMB      170             0.0000000000
     19829       170  SLPC      C37            33.8684511453       -5.8702274346       -6.8807733596  MEMB      170             0.0000000000
     19830       170  SLPC      H7X            34.5141525526       -6.7002485316       -6.8765313327  MEMB      170             0.0000000000
     19831       170  SLPC      H7Y            32.8079280371       -6.1772130931       -6.8600383095  MEMB      170             0.0000000000
     19832       170  SLPC      C38            34.4490327574       -5.3024948248       -5.6720297497  MEMB      170             0.0000000000
     19833       170  SLPC      H8X            33.9532508205       -4.3742995902       -5.8438664052  MEMB      170             0.0000000000
     19834       170  SLPC      H8Y            35.5504763106       -5.2757642478       -5.6936782905  MEMB      170             0.0000000000
     19835       170  SLPC      C39            34.0913650164       -6.1493406942       -4.5376114587  MEMB      170             0.0000000000
     19836       170  SLPC      H9X            34.4259529112       -7.1466642489       -4.8406105190  MEMB      170             0.0000000000
     19837       170  SLPC      H9Y            32.9754754023       -6.0641160341       -4.4361133182  MEMB      170             0.0000000000
     19838       170  SLPC      C310           34.9118555062       -6.0198918307       -3.2716308675  MEMB      170             0.0000000000
     19839       170  SLPC      H10X           34.9670934217       -4.9790951026       -3.1506890877  MEMB      170             0.0000000000
     19840       170  SLPC      H10Y           35.9704921137       -5.8971158049       -3.4116685657  MEMB      170             0.0000000000
     19841       170  SLPC      C311           34.4561637726       -6.8095529629       -2.0172153294  MEMB      170             0.0000000000
     19842       170  SLPC      H11X           35.0353577656       -7.7401835774       -2.0826136178  MEMB      170             0.0000000000
     19843       170  SLPC      H11Y           33.4135864111       -7.1142598050       -1.9947334845  MEMB      170             0.0000000000
     19844       170  SLPC      C312           34.6843678588       -6.1329253219       -0.6868613919  MEMB      170             0.0000000000
     19845       170  SLPC      H12X           34.5804880067       -6.7198965638        0.2403866838  MEMB      170             0.0000000000
     19846       170  SLPC      H12Y           33.9950709945       -5.3259681733       -0.4336230835  MEMB      170             0.0000000000
     19847       170  SLPC      C313           35.8933892746       -5.3076823941       -0.7670907291  MEMB      170             0.0000000000
     19848       170  SLPC      H13X           35.7409316045       -4.8846402413        0.2211981137  MEMB      170             0.0000000000
     19849       170  SLPC      H13Y           35.8393574659       -4.5603326056       -1.5792569187  MEMB      170             0.0000000000
     19850       170  SLPC      C314           37.2311308269       -5.9216969919       -0.8309320011  MEMB      170             0.0000000000
     19851       170  SLPC      H14X           37.1402214266       -6.8443438822       -1.4415883769  MEMB      170             0.0000000000
     19852       170  SLPC      H14Y           37.4175489911       -6.2380914653        0.2032929924  MEMB      170             0.0000000000
     19853       170  SLPC      C315           38.2485374550       -4.9498253552       -1.4965289097  MEMB      170             0.0000000000
     19854       170  SLPC      H15X           37.8351972604       -4.5100007452       -2.4159909809  MEMB      170             0.0000000000
     19855       170  SLPC      H15Y           39.0856161891       -5.5504970345       -1.7216351532  MEMB      170             0.0000000000
     19856       170  SLPC      C316           38.8464522620       -3.7217857713       -0.7956293508  MEMB      170             0.0000000000
     19857       170  SLPC      H16X           37.9556238550       -3.5622619044       -0.3548703684  MEMB      170             0.0000000000
     19858       170  SLPC      H16Y           39.3383174717       -2.8790766018       -1.2257931664  MEMB      170             0.0000000000
     19859       170  SLPC      C317           39.2738703632       -3.7262689271        0.5822500987  MEMB      170             0.0000000000
     19860       170  SLPC      H17X           39.7803996709       -4.5416398137        0.1149149318  MEMB      170             0.0000000000
     19861       170  SLPC      H17Y           38.6282987999       -4.4065471732        1.1390739164  MEMB      170             0.0000000000
     19862       170  SLPC      C318           40.3234778211       -2.7598533875        1.3324153634  MEMB      170             0.0000000000
     19863       170  SLPC      H18X           40.6055490997       -1.9269248009        0.6993802967  MEMB      170             0.0000000000
     19864       170  SLPC      H18Y           41.2339126748       -3.0115822538        1.8822024062  MEMB      170             0.0000000000
     19865       170  SLPC      H18Z           40.0362932106       -2.5684309578        2.3263784934  MEMB      170             0.0000000000
     19866       171  SOPE      N             -34.1077057826      -19.4230263156      -21.9189204476  MEMB      171             0.0000000000
     19867       171  SOPE      HN1           -34.4631346886      -19.8373606038      -21.0283854903  MEMB      171             0.0000000000
     19868       171  SOPE      HN2           -34.8135154561      -19.5589547728      -22.6561129017  MEMB      171             0.0000000000
     19869       171  SOPE      HN3           -33.2036385183      -19.8812199978      -22.1787175654  MEMB      171             0.0000000000
     19870       171  SOPE      C12           -33.8812307712      -17.9510629355      -21.7560347509  MEMB      171             0.0000000000
     19871       171  SOPE      H12A          -34.8654332262      -17.4648062675      -21.6770290101  MEMB      171             0.0000000000
     19872       171  SOPE      H12B          -33.4121792019      -17.5878018276      -22.6868000792  MEMB      171             0.0000000000
     19873       171  SOPE      C11           -32.9246507911      -17.6297412504      -20.6089190738  MEMB      171             0.0000000000
     19874       171  SOPE      H11A          -33.1396521422      -18.2423138410      -19.7023748368  MEMB      171             0.0000000000
     19875       171  SOPE      H11B          -33.0171607824      -16.5604836136      -20.3078835035  MEMB      171             0.0000000000
     19876       171  SOPE      P             -30.5830338757      -18.8911985339      -20.7551532083  MEMB      171             0.0000000000
     19877       171  SOPE      O13           -29.7913935062      -18.4662370164      -19.5898406007  MEMB      171             0.0000000000
     19878       171  SOPE      O14           -29.9462911825      -19.3464097137      -22.0052590247  MEMB      171             0.0000000000
     19879       171  SOPE      O12           -31.6193173260      -17.7830273446      -21.1157333528  MEMB      171             0.0000000000
     19880       171  SOPE      O11           -31.5299021518      -20.0975735626      -20.3713168671  MEMB      171             0.0000000000
     19881       171  SOPE      C1            -30.8635072322      -21.3818269016      -20.3062733624  MEMB      171             0.0000000000
     19882       171  SOPE      HA            -30.2679178987      -21.6882747118      -21.1863603308  MEMB      171             0.0000000000
     19883       171  SOPE      HB            -31.6651938584      -22.1448612467      -20.3049607632  MEMB      171             0.0000000000
     19884       171  SOPE      C2            -30.0789619631      -21.6604031556      -18.9637232673  MEMB      171             0.0000000000
     19885       171  SOPE      HS            -30.2022881875      -22.7586557860      -18.7294956804  MEMB      171             0.0000000000
     19886       171  SOPE      O21           -30.5069857893      -20.8401479376      -17.8492843302  MEMB      171             0.0000000000
     19887       171  SOPE      C21           -31.7280918334      -21.1336186247      -17.6536987401  MEMB      171             0.0000000000
     19888       171  SOPE      O22           -32.3208591274      -21.9997892840      -18.2949930529  MEMB      171             0.0000000000
     19889       171  SOPE      C22           -32.3258104931      -20.1890723448      -16.5201395146  MEMB      171             0.0000000000
     19890       171  SOPE      H2R           -33.1606242462      -19.6544187816      -17.0266841205  MEMB      171             0.0000000000
     19891       171  SOPE      H2S           -31.5118886464      -19.5120435519      -16.2632382726  MEMB      171             0.0000000000
     19892       171  SOPE      C3            -28.5768949888      -21.4540227692      -19.0647819042  MEMB      171             0.0000000000
     19893       171  SOPE      HX            -28.3570572857      -20.4223803143      -19.4090753464  MEMB      171             0.0000000000
     19894       171  SOPE      HY            -28.1991581236      -22.1724089519      -19.8084123906  MEMB      171             0.0000000000
     19895       171  SOPE      O31           -28.0071419700      -21.7767212626      -17.7965479099  MEMB      171             0.0000000000
     19896       171  SOPE      C31           -27.4714019957      -20.7964294618      -17.0773106858  MEMB      171             0.0000000000
     19897       171  SOPE      O32           -27.0765614845      -19.7229698463      -17.4603108605  MEMB      171             0.0000000000
     19898       171  SOPE      C32           -27.3391246109      -21.3462410898      -15.6691401516  MEMB      171             0.0000000000
     19899       171  SOPE      H2X           -26.3908730632      -21.9202028560      -15.6457060897  MEMB      171             0.0000000000
     19900       171  SOPE      H2Y           -28.1868412840      -22.0596561935      -15.6520451614  MEMB      171             0.0000000000
     19901       171  SOPE      C23           -32.6214969354      -20.6102296886      -15.0069814784  MEMB      171             0.0000000000
     19902       171  SOPE      H3R           -32.1155981200      -21.4860988870      -14.6009665032  MEMB      171             0.0000000000
     19903       171  SOPE      H3S           -33.5352261729      -21.0470195359      -15.0821224054  MEMB      171             0.0000000000
     19904       171  SOPE      C24           -33.4361295356      -19.7730543950      -13.9932200512  MEMB      171             0.0000000000
     19905       171  SOPE      H4R           -32.6981278566      -19.0807998274      -13.6128113162  MEMB      171             0.0000000000
     19906       171  SOPE      H4S           -34.1394183164      -19.1429392635      -14.5394892899  MEMB      171             0.0000000000
     19907       171  SOPE      C25           -34.0753244941      -20.5844384155      -12.8077964936  MEMB      171             0.0000000000
     19908       171  SOPE      H5R           -34.8667570014      -21.3526728599      -12.8663724303  MEMB      171             0.0000000000
     19909       171  SOPE      H5S           -33.2763474430      -21.2821876726      -12.5191123943  MEMB      171             0.0000000000
     19910       171  SOPE      C26           -34.6536828133      -19.7042615074      -11.6950004303  MEMB      171             0.0000000000
     19911       171  SOPE      H6R           -33.9938060387      -18.8534257574      -11.5480447103  MEMB      171             0.0000000000
     19912       171  SOPE      H6S           -35.6338488559      -19.2325153104      -11.9330195466  MEMB      171             0.0000000000
     19913       171  SOPE      C27           -34.8940519828      -20.5499870952      -10.4498726823  MEMB      171             0.0000000000
     19914       171  SOPE      H7R           -35.6399796799      -20.0273836233       -9.8175641731  MEMB      171             0.0000000000
     19915       171  SOPE      H7S           -35.2967631756      -21.5486773898      -10.7252897418  MEMB      171             0.0000000000
     19916       171  SOPE      C28           -33.5723785743      -20.7379430651       -9.7556334185  MEMB      171             0.0000000000
     19917       171  SOPE      H8R           -32.8357844482      -21.1171902566      -10.4725256001  MEMB      171             0.0000000000
     19918       171  SOPE      H8S           -33.2678161530      -19.7060748176       -9.4688927243  MEMB      171             0.0000000000
     19919       171  SOPE      C29           -33.5627977702      -21.7080717373       -8.6346542727  MEMB      171             0.0000000000
     19920       171  SOPE      H91           -33.5678903192      -22.7834693723       -8.8022187491  MEMB      171             0.0000000000
     19921       171  SOPE      C210          -33.6825267434      -21.2942705554       -7.4191555141  MEMB      171             0.0000000000
     19922       171  SOPE      H101          -34.1672122039      -22.0252731007       -6.7364675602  MEMB      171             0.0000000000
     19923       171  SOPE      C211          -33.8581246868      -19.8113335468       -7.1938790134  MEMB      171             0.0000000000
     19924       171  SOPE      H11R          -34.5864139305      -19.5976652074       -6.4763725273  MEMB      171             0.0000000000
     19925       171  SOPE      H11S          -34.5758575746      -19.2166219792       -7.8100714397  MEMB      171             0.0000000000
     19926       171  SOPE      C212          -32.7868760743      -19.1698778842       -6.4356462850  MEMB      171             0.0000000000
     19927       171  SOPE      H12R          -32.0016559487      -19.1874068077       -7.1946003594  MEMB      171             0.0000000000
     19928       171  SOPE      H12S          -32.5530804478      -19.6496259756       -5.4556009550  MEMB      171             0.0000000000
     19929       171  SOPE      C213          -33.2782015579      -17.8178107847       -6.1930531966  MEMB      171             0.0000000000
     19930       171  SOPE      H13R          -33.6484859247      -17.4668102974       -7.1728161199  MEMB      171             0.0000000000
     19931       171  SOPE      H13S          -32.5387862149      -17.0868896188       -5.9653476222  MEMB      171             0.0000000000
     19932       171  SOPE      C214          -34.3414543392      -17.7231447092       -5.1365605778  MEMB      171             0.0000000000
     19933       171  SOPE      H14R          -35.3959374695      -18.0123757081       -5.3953199251  MEMB      171             0.0000000000
     19934       171  SOPE      H14S          -34.1423813583      -16.6726376255       -5.2264569989  MEMB      171             0.0000000000
     19935       171  SOPE      C215          -34.1681183333      -17.8516420474       -3.6604655904  MEMB      171             0.0000000000
     19936       171  SOPE      H15R          -33.4783298583      -17.0964859599       -3.3512835793  MEMB      171             0.0000000000
     19937       171  SOPE      H15S          -33.7710314093      -18.8256506879       -3.5359520478  MEMB      171             0.0000000000
     19938       171  SOPE      C216          -35.4278178024      -17.6345756416       -2.8561629442  MEMB      171             0.0000000000
     19939       171  SOPE      H16R          -36.3845187330      -17.9060975789       -3.3626045378  MEMB      171             0.0000000000
     19940       171  SOPE      H16S          -35.2640402307      -16.5423908895       -2.7444979458  MEMB      171             0.0000000000
     19941       171  SOPE      C217          -35.4522644293      -18.0536120214       -1.4108826641  MEMB      171             0.0000000000
     19942       171  SOPE      H17R          -34.8121494080      -18.9574075262       -1.3899756270  MEMB      171             0.0000000000
     19943       171  SOPE      H17S          -36.4959353429      -18.3354925778       -1.1372802422  MEMB      171             0.0000000000
     19944       171  SOPE      C218          -34.9800557808      -16.9000340792       -0.5089665431  MEMB      171             0.0000000000
     19945       171  SOPE      H18R          -35.4067711397      -15.9160101079       -0.8079912142  MEMB      171             0.0000000000
     19946       171  SOPE      H18S          -33.8869047712      -16.7870844257       -0.5729741792  MEMB      171             0.0000000000
     19947       171  SOPE      H18T          -35.2735439850      -17.0529764657        0.5440116284  MEMB      171             0.0000000000
     19948       171  SOPE      C33           -27.3120655264      -20.3880859573      -14.4264257631  MEMB      171             0.0000000000
     19949       171  SOPE      H3X           -26.6960692264      -19.5087889957      -14.6833851356  MEMB      171             0.0000000000
     19950       171  SOPE      H3Y           -26.7780269643      -20.8889443662      -13.5914381716  MEMB      171             0.0000000000
     19951       171  SOPE      C34           -28.6696560213      -19.9648219452      -13.8300270056  MEMB      171             0.0000000000
     19952       171  SOPE      H4X           -29.1802461278      -20.8222132744      -13.3874060433  MEMB      171             0.0000000000
     19953       171  SOPE      H4Y           -29.3160741896      -19.6095801559      -14.6525992164  MEMB      171             0.0000000000
     19954       171  SOPE      C35           -28.6655293508      -18.9672633209      -12.6452366419  MEMB      171             0.0000000000
     19955       171  SOPE      H5X           -28.0911364673      -18.0622167723      -12.9317697503  MEMB      171             0.0000000000
     19956       171  SOPE      H5Y           -28.1769932168      -19.4075742807      -11.7456213142  MEMB      171             0.0000000000
     19957       171  SOPE      C36           -30.1132385388      -18.5986379467      -12.2541318188  MEMB      171             0.0000000000
     19958       171  SOPE      H6X           -30.6767149211      -19.5354910637      -12.0332889229  MEMB      171             0.0000000000
     19959       171  SOPE      H6Y           -30.6072009779      -18.1237762289      -13.1290161213  MEMB      171             0.0000000000
     19960       171  SOPE      C37           -30.2544234754      -17.6683547638      -11.0377412206  MEMB      171             0.0000000000
     19961       171  SOPE      H7X           -29.7982109374      -16.6727734432      -11.2340205988  MEMB      171             0.0000000000
     19962       171  SOPE      H7Y           -29.7519882245      -18.1256040548      -10.1548383131  MEMB      171             0.0000000000
     19963       171  SOPE      C38           -31.7120300621      -17.4549361649      -10.6349725685  MEMB      171             0.0000000000
     19964       171  SOPE      H8X           -32.2126867206      -18.4409183486      -10.5572734167  MEMB      171             0.0000000000
     19965       171  SOPE      H8Y           -32.2533264775      -16.8603806114      -11.3962423752  MEMB      171             0.0000000000
     19966       171  SOPE      C39           -31.8251595757      -16.8058542220       -9.2703123768  MEMB      171             0.0000000000
     19967       171  SOPE      H9X           -31.2222368751      -17.3843432309       -8.5331991495  MEMB      171             0.0000000000
     19968       171  SOPE      H9Y           -32.8741405186      -16.9033015999       -8.9327089272  MEMB      171             0.0000000000
     19969       171  SOPE      C310          -31.4837627801      -15.3228762472       -9.2224721760  MEMB      171             0.0000000000
     19970       171  SOPE      H10X          -32.2570237907      -14.7056912833       -9.6994893151  MEMB      171             0.0000000000
     19971       171  SOPE      H10Y          -30.4934848872      -15.0529012337       -9.6600567698  MEMB      171             0.0000000000
     19972       171  SOPE      C311          -31.5391569392      -14.9460854441       -7.7849769451  MEMB      171             0.0000000000
     19973       171  SOPE      H11X          -32.2478230814      -15.5409116388       -7.1765767858  MEMB      171             0.0000000000
     19974       171  SOPE      H11Y          -31.7859374951      -13.9023580061       -7.5167945688  MEMB      171             0.0000000000
     19975       171  SOPE      C312          -30.3478326170      -15.2559131739       -7.1954935282  MEMB      171             0.0000000000
     19976       171  SOPE      H12X          -29.5335120629      -14.7668219443       -7.7844488832  MEMB      171             0.0000000000
     19977       171  SOPE      H12Y          -30.1099115111      -16.3113165460       -7.3594469337  MEMB      171             0.0000000000
     19978       171  SOPE      C313          -30.6752709268      -15.1730608142       -5.7132338155  MEMB      171             0.0000000000
     19979       171  SOPE      H13X          -31.4709138340      -14.5258705379       -5.3629601237  MEMB      171             0.0000000000
     19980       171  SOPE      H13Y          -29.9284845215      -14.4022371077       -5.4005823435  MEMB      171             0.0000000000
     19981       171  SOPE      C314          -30.7288332714      -16.6429760737       -4.9237083837  MEMB      171             0.0000000000
     19982       171  SOPE      H14X          -29.6900279651      -16.5855069100       -5.1524186776  MEMB      171             0.0000000000
     19983       171  SOPE      H14Y          -30.7177262764      -17.6036198393       -5.4062569728  MEMB      171             0.0000000000
     19984       171  SOPE      C315          -31.1899469878      -16.8864817519       -3.2894948555  MEMB      171             0.0000000000
     19985       171  SOPE      H15X          -31.9967191936      -16.1882611778       -3.3432099651  MEMB      171             0.0000000000
     19986       171  SOPE      H15Y          -31.1935354340      -15.9656375391       -2.6741981227  MEMB      171             0.0000000000
     19987       171  SOPE      C316          -30.4177492288      -17.2586461035       -1.8811671586  MEMB      171             0.0000000000
     19988       171  SOPE      H16X          -29.4988819250      -16.7799505528       -1.4123710394  MEMB      171             0.0000000000
     19989       171  SOPE      H16Y          -30.0348774119      -18.2894994568       -1.8875457896  MEMB      171             0.0000000000
     19990       171  SOPE      C317          -31.4317024506      -16.9034711062       -0.8487285656  MEMB      171             0.0000000000
     19991       171  SOPE      H17X          -32.2421717922      -17.4723019390       -1.3267916252  MEMB      171             0.0000000000
     19992       171  SOPE      H17Y          -31.6112081879      -15.8203855418       -0.6567073074  MEMB      171             0.0000000000
     19993       171  SOPE      C318          -31.1270212144      -17.5009926378        0.3909782134  MEMB      171             0.0000000000
     19994       171  SOPE      H18X          -32.0036338690      -17.8308303169        0.9777668509  MEMB      171             0.0000000000
     19995       171  SOPE      H18Y          -30.3450873859      -17.0680877497        0.9062048703  MEMB      171             0.0000000000
     19996       171  SOPE      H18Z          -30.4747802855      -18.3032694759        0.0963787479  MEMB      171             0.0000000000
     19997       172  SAPE      N             -10.7853522745       32.6984606047      -21.3676545529  MEMB      172             0.0000000000
     19998       172  SAPE      HN1           -10.6468199683       32.0576968326      -22.1801620367  MEMB      172             0.0000000000
     19999       172  SAPE      HN2           -10.8818603693       32.0947437493      -20.5276085776  MEMB      172             0.0000000000
     20000       172  SAPE      HN3           -11.6791806516       33.2221879120      -21.4769138132  MEMB      172             0.0000000000
     20001       172  SAPE      C12            -9.6990109133       33.7418557710      -21.2056004445  MEMB      172             0.0000000000
     20002       172  SAPE      H12A           -9.4793658337       34.1735299769      -22.2006688110  MEMB      172             0.0000000000
     20003       172  SAPE      H12B           -8.7867787949       33.2620765360      -20.8092975860  MEMB      172             0.0000000000
     20004       172  SAPE      C11           -10.1504789934       34.8308969285      -20.2225798652  MEMB      172             0.0000000000
     20005       172  SAPE      H11A           -9.4468099817       35.6995205068      -20.2530113542  MEMB      172             0.0000000000
     20006       172  SAPE      H11B          -10.1092663812       34.3941016785      -19.1988282041  MEMB      172             0.0000000000
     20007       172  SAPE      P             -12.2403546249       36.1568686629      -19.4764718009  MEMB      172             0.0000000000
     20008       172  SAPE      O13           -11.3799501173       37.2504732630      -19.0433754561  MEMB      172             0.0000000000
     20009       172  SAPE      O14           -13.5693772101       36.4042583690      -20.0643419548  MEMB      172             0.0000000000
     20010       172  SAPE      O12           -11.4757036106       35.2449871615      -20.5320016862  MEMB      172             0.0000000000
     20011       172  SAPE      O11           -12.2806675863       35.1554015192      -18.2737380380  MEMB      172             0.0000000000
     20012       172  SAPE      C1            -13.0847738698       34.0114750474      -18.4216869293  MEMB      172             0.0000000000
     20013       172  SAPE      HA            -14.1672624668       34.3327012922      -18.4564465086  MEMB      172             0.0000000000
     20014       172  SAPE      HB            -12.9211018174       33.4239191883      -19.3461857488  MEMB      172             0.0000000000
     20015       172  SAPE      C2            -12.9253360966       33.0325953327      -17.2242898623  MEMB      172             0.0000000000
     20016       172  SAPE      HS            -13.9076631851       32.6458501788      -17.3028891114  MEMB      172             0.0000000000
     20017       172  SAPE      O21           -12.5563111530       33.5812591406      -15.9184749643  MEMB      172             0.0000000000
     20018       172  SAPE      C21           -13.4390860317       34.4052117814      -15.5658802062  MEMB      172             0.0000000000
     20019       172  SAPE      O22           -14.4692410741       34.5106782762      -16.1732185247  MEMB      172             0.0000000000
     20020       172  SAPE      C22           -12.9365717628       35.2500935897      -14.3943901616  MEMB      172             0.0000000000
     20021       172  SAPE      H2R           -12.4702984845       34.5748891686      -13.6494653823  MEMB      172             0.0000000000
     20022       172  SAPE      H2S           -12.1945742817       35.9182798913      -14.8663026006  MEMB      172             0.0000000000
     20023       172  SAPE      C3            -11.9486051766       31.8844822691      -17.4244342684  MEMB      172             0.0000000000
     20024       172  SAPE      HX            -11.9597716318       31.4444077584      -18.4178396163  MEMB      172             0.0000000000
     20025       172  SAPE      HY            -11.9721762698       31.0754761080      -16.6489889704  MEMB      172             0.0000000000
     20026       172  SAPE      O31           -10.7590299540       32.4258610164      -17.3787279965  MEMB      172             0.0000000000
     20027       172  SAPE      C31           -10.3366971467       32.5036967976      -16.1816504629  MEMB      172             0.0000000000
     20028       172  SAPE      O32           -10.6618008769       32.0943405972      -15.1114356790  MEMB      172             0.0000000000
     20029       172  SAPE      C32            -9.4696813454       33.1804690213      -16.3587176680  MEMB      172             0.0000000000
     20030       172  SAPE      H2X            -9.2239155379       33.6692523983      -17.3926184583  MEMB      172             0.0000000000
     20031       172  SAPE      H2Y            -8.7172668274       32.3703431677      -16.8395985496  MEMB      172             0.0000000000
     20032       172  SAPE      C23           -13.8441668891       36.2806900428      -13.7228041807  MEMB      172             0.0000000000
     20033       172  SAPE      H3R           -14.4569322631       36.8700235280      -14.4321488760  MEMB      172             0.0000000000
     20034       172  SAPE      H3S           -13.2182825674       37.0424350683      -13.2133849034  MEMB      172             0.0000000000
     20035       172  SAPE      C24           -14.6076620473       35.6688729198      -12.6155581698  MEMB      172             0.0000000000
     20036       172  SAPE      H4R           -14.0168352897       35.0311555186      -11.9319432866  MEMB      172             0.0000000000
     20037       172  SAPE      H4S           -15.3230319909       34.9448245297      -13.0721777519  MEMB      172             0.0000000000
     20038       172  SAPE      C25           -15.2318474310       36.8835227325      -11.9676963188  MEMB      172             0.0000000000
     20039       172  SAPE      H5R           -16.2186704332       36.8757482867      -11.7525917196  MEMB      172             0.0000000000
     20040       172  SAPE      C26           -15.0608821579       37.7729400955      -11.0857465811  MEMB      172             0.0000000000
     20041       172  SAPE      H6R           -15.9471379067       38.3960567557      -10.7887584254  MEMB      172             0.0000000000
     20042       172  SAPE      C27           -13.8694324898       37.7359632779      -10.3403267541  MEMB      172             0.0000000000
     20043       172  SAPE      H7R           -13.2657053533       38.2018401079      -11.1132412625  MEMB      172             0.0000000000
     20044       172  SAPE      H7S           -13.5940006628       36.6838988485      -10.1409183825  MEMB      172             0.0000000000
     20045       172  SAPE      C28           -14.1976410320       38.5909378505       -9.1764218885  MEMB      172             0.0000000000
     20046       172  SAPE      H8R           -15.0485243840       39.2771710214       -9.3034201942  MEMB      172             0.0000000000
     20047       172  SAPE      C29           -13.6569607666       38.5745883845       -7.9846975759  MEMB      172             0.0000000000
     20048       172  SAPE      H9R           -13.9216570963       39.4414070134       -7.3714369572  MEMB      172             0.0000000000
     20049       172  SAPE      C210          -12.5653780725       37.6674611598       -7.4979703061  MEMB      172             0.0000000000
     20050       172  SAPE      H10R          -12.5320510735       37.7857090080       -6.3937645278  MEMB      172             0.0000000000
     20051       172  SAPE      H10S          -11.5746879960       37.9546003163       -7.8585212772  MEMB      172             0.0000000000
     20052       172  SAPE      C211          -12.6650561430       36.2326827692       -7.8943298296  MEMB      172             0.0000000000
     20053       172  SAPE      H11R          -12.1766540584       35.9297150856       -8.8212328521  MEMB      172             0.0000000000
     20054       172  SAPE      C212          -13.3689626140       35.3603432690       -7.2385266284  MEMB      172             0.0000000000
     20055       172  SAPE      H12R          -13.3030823527       34.2887663430       -7.4938175396  MEMB      172             0.0000000000
     20056       172  SAPE      C213          -14.1241011627       35.7674863636       -6.0251383308  MEMB      172             0.0000000000
     20057       172  SAPE      H13R          -14.6940401296       36.7195163213       -6.1436752035  MEMB      172             0.0000000000
     20058       172  SAPE      H13S          -13.4905988463       35.7925774326       -5.1249772776  MEMB      172             0.0000000000
     20059       172  SAPE      C214          -15.1287494150       34.7408484471       -5.9184591773  MEMB      172             0.0000000000
     20060       172  SAPE      H14R          -16.0965167722       35.2406910768       -5.7501895844  MEMB      172             0.0000000000
     20061       172  SAPE      C215          -15.0135796072       33.3911513917       -5.9782128121  MEMB      172             0.0000000000
     20062       172  SAPE      H15R          -15.8276745375       32.6616134440       -5.8706276082  MEMB      172             0.0000000000
     20063       172  SAPE      C216          -14.0310146752       32.4476195994       -6.1327005190  MEMB      172             0.0000000000
     20064       172  SAPE      H16R          -13.7696012051       32.3112892607       -7.1604167728  MEMB      172             0.0000000000
     20065       172  SAPE      H16S          -14.5630983379       31.5650665475       -5.9417292312  MEMB      172             0.0000000000
     20066       172  SAPE      C217          -13.0974125415       32.7964337735       -5.0836603249  MEMB      172             0.0000000000
     20067       172  SAPE      H17R          -12.4681844327       33.6559026772       -5.2907283816  MEMB      172             0.0000000000
     20068       172  SAPE      H17S          -12.6279111587       31.8418984366       -5.0365156549  MEMB      172             0.0000000000
     20069       172  SAPE      C218          -13.4620963639       33.0495553845       -3.6863328295  MEMB      172             0.0000000000
     20070       172  SAPE      H18R          -13.8028007339       31.9636219505       -3.6055036971  MEMB      172             0.0000000000
     20071       172  SAPE      H18S          -13.9410508663       34.0054254890       -3.3917099913  MEMB      172             0.0000000000
     20072       172  SAPE      C219          -13.1518993731       32.2849202483       -2.4892108048  MEMB      172             0.0000000000
     20073       172  SAPE      H19R          -13.6110218857       32.6830800942       -1.5479692474  MEMB      172             0.0000000000
     20074       172  SAPE      H19S          -12.6949179796       33.2283845802       -1.9948810037  MEMB      172             0.0000000000
     20075       172  SAPE      C220          -12.2335307347       30.7306769876       -2.8045824819  MEMB      172             0.0000000000
     20076       172  SAPE      H20R          -11.6387347093       30.3073332471       -3.5327025981  MEMB      172             0.0000000000
     20077       172  SAPE      H20S          -12.6933158338       29.8982612618       -2.4385035579  MEMB      172             0.0000000000
     20078       172  SAPE      H20T          -11.2789156762       30.4245218693       -2.2994854333  MEMB      172             0.0000000000
     20079       172  SAPE      C33            -9.2761584479       34.0714891289      -14.8087063866  MEMB      172             0.0000000000
     20080       172  SAPE      H3X            -9.8532049350       34.9673423826      -14.9235344107  MEMB      172             0.0000000000
     20081       172  SAPE      H3Y            -8.6214738700       34.9579896854      -14.7411203530  MEMB      172             0.0000000000
     20082       172  SAPE      C34            -8.0364356326       34.0140214416      -13.7184261240  MEMB      172             0.0000000000
     20083       172  SAPE      H4X            -6.9639704229       34.2875021363      -14.0148881096  MEMB      172             0.0000000000
     20084       172  SAPE      H4Y            -8.0634694852       32.9960748612      -13.3912100751  MEMB      172             0.0000000000
     20085       172  SAPE      C35            -7.8618248016       34.9809171657      -12.5768107721  MEMB      172             0.0000000000
     20086       172  SAPE      H5X            -8.6721407323       35.7285560126      -12.6092379763  MEMB      172             0.0000000000
     20087       172  SAPE      H5Y            -6.8544940952       35.4792844572      -12.5396315954  MEMB      172             0.0000000000
     20088       172  SAPE      C36            -7.5137081506       34.1396449712      -11.3955227143  MEMB      172             0.0000000000
     20089       172  SAPE      H6X            -6.4557855180       33.7733745560      -11.4249156260  MEMB      172             0.0000000000
     20090       172  SAPE      H6Y            -8.1067282028       33.2438807576      -11.5045027270  MEMB      172             0.0000000000
     20091       172  SAPE      C37            -7.7998239269       34.8730406566      -10.1409367572  MEMB      172             0.0000000000
     20092       172  SAPE      H7X            -8.6364894578       35.5939660322      -10.2793899151  MEMB      172             0.0000000000
     20093       172  SAPE      H7Y            -6.9084637638       35.4210601207       -9.8209078730  MEMB      172             0.0000000000
     20094       172  SAPE      C38            -8.1619335235       33.8779430456       -9.1012137951  MEMB      172             0.0000000000
     20095       172  SAPE      H8X            -7.5216770879       32.9665793330       -9.1973774850  MEMB      172             0.0000000000
     20096       172  SAPE      H8Y            -9.2242482410       33.6573365308       -9.3193337345  MEMB      172             0.0000000000
     20097       172  SAPE      C39            -8.1377998683       34.5366221061       -7.7655522175  MEMB      172             0.0000000000
     20098       172  SAPE      H9X            -8.8503651667       35.3875660765       -7.8655919888  MEMB      172             0.0000000000
     20099       172  SAPE      H9Y            -7.1325812840       34.9178275344       -7.5442185658  MEMB      172             0.0000000000
     20100       172  SAPE      C310           -8.7424456811       33.7315611276       -6.6742806011  MEMB      172             0.0000000000
     20101       172  SAPE      H10X           -8.0436863431       32.9773277981       -6.2335943631  MEMB      172             0.0000000000
     20102       172  SAPE      H10Y           -9.5985192254       33.1865222650       -7.1342290617  MEMB      172             0.0000000000
     20103       172  SAPE      C311           -9.4753887300       34.6565834904       -5.7056698269  MEMB      172             0.0000000000
     20104       172  SAPE      H11X           -9.9258102930       34.1135473759       -4.9080048704  MEMB      172             0.0000000000
     20105       172  SAPE      H11Y          -10.3397933080       35.1882188447       -6.0789239787  MEMB      172             0.0000000000
     20106       172  SAPE      C312           -8.7387157883       35.3848953621       -4.6834168852  MEMB      172             0.0000000000
     20107       172  SAPE      H12X           -8.0306402970       36.1272933702       -5.0540766367  MEMB      172             0.0000000000
     20108       172  SAPE      H12Y           -8.1234317384       34.5541139052       -4.2945977053  MEMB      172             0.0000000000
     20109       172  SAPE      C313           -9.6929753147       35.9057497159       -3.5685381219  MEMB      172             0.0000000000
     20110       172  SAPE      H13X           -9.2629036956       36.3237969576       -2.6725138404  MEMB      172             0.0000000000
     20111       172  SAPE      H13Y          -10.3091185940       35.2563470328       -2.9556378299  MEMB      172             0.0000000000
     20112       172  SAPE      C314          -10.6132743282       36.8515845650       -4.0010809805  MEMB      172             0.0000000000
     20113       172  SAPE      H14X          -11.3090918942       36.4061983370       -4.7204172655  MEMB      172             0.0000000000
     20114       172  SAPE      H14Y           -9.9332895192       37.6230917655       -4.4470952842  MEMB      172             0.0000000000
     20115       172  SAPE      C315          -11.2947181373       37.2273291355       -2.7182428399  MEMB      172             0.0000000000
     20116       172  SAPE      H15X          -12.0027355412       37.9714085056       -3.0736899004  MEMB      172             0.0000000000
     20117       172  SAPE      H15Y          -10.5505634030       37.5306956810       -1.9256909878  MEMB      172             0.0000000000
     20118       172  SAPE      C316          -12.0996563443       36.4296030693       -1.7925556853  MEMB      172             0.0000000000
     20119       172  SAPE      H16X          -11.4387508053       35.6790934773       -1.3194767876  MEMB      172             0.0000000000
     20120       172  SAPE      H16Y          -12.8874606842       35.9496041579       -2.3934505271  MEMB      172             0.0000000000
     20121       172  SAPE      C317          -12.6131883406       37.3467871030       -0.6824781789  MEMB      172             0.0000000000
     20122       172  SAPE      H17X          -13.3802812131       38.0830781904       -1.0486280759  MEMB      172             0.0000000000
     20123       172  SAPE      H17Y          -11.8779350173       37.8374349613       -0.0005417649  MEMB      172             0.0000000000
     20124       172  SAPE      C318          -13.2901778426       36.4103710416        0.1507069750  MEMB      172             0.0000000000
     20125       172  SAPE      H18X          -13.8109654120       36.8815257568        1.0168578726  MEMB      172             0.0000000000
     20126       172  SAPE      H18Y          -12.7087516307       35.5330640487        0.5065310959  MEMB      172             0.0000000000
     20127       172  SAPE      H18Z          -14.0494811273       36.0175136568       -0.5810472428  MEMB      172             0.0000000000
     20128       173  SAPS      N               8.7562428480      -36.6369464797      -22.2230666519  MEMB      173             0.0000000000
     20129       173  SAPS      HN1             7.7638053747      -36.9673815863      -22.0914433381  MEMB      173             0.0000000000
     20130       173  SAPS      HN2             8.7683178847      -36.3625030139      -23.2298937662  MEMB      173             0.0000000000
     20131       173  SAPS      HN3             9.3290594793      -37.4969035368      -22.0665328080  MEMB      173             0.0000000000
     20132       173  SAPS      C12             9.0127899069      -35.5164473267      -21.2701695128  MEMB      173             0.0000000000
     20133       173  SAPS      H12A           10.0493189616      -35.2731800879      -21.3826964431  MEMB      173             0.0000000000
     20134       173  SAPS      C13             8.1282482758      -34.3244764218      -21.6308894540  MEMB      173             0.0000000000
     20135       173  SAPS      O13A            7.2278292858      -34.4396040543      -22.5016030711  MEMB      173             0.0000000000
     20136       173  SAPS      O13B            8.4112927185      -33.2685744640      -21.0119369150  MEMB      173             0.0000000000
     20137       173  SAPS      C11             8.7191397545      -35.7618454432      -19.7233593655  MEMB      173             0.0000000000
     20138       173  SAPS      H11A            7.6127437526      -35.6720498988      -19.5519524352  MEMB      173             0.0000000000
     20139       173  SAPS      H11B            9.0986766855      -34.9071226345      -19.1302481405  MEMB      173             0.0000000000
     20140       173  SAPS      P              10.1694078874      -37.2179088429      -18.0154768914  MEMB      173             0.0000000000
     20141       173  SAPS      O13             9.3903585469      -36.9218360037      -16.8085808356  MEMB      173             0.0000000000
     20142       173  SAPS      O14            10.8687653719      -38.5101232956      -18.1621313244  MEMB      173             0.0000000000
     20143       173  SAPS      O12             9.1607516822      -37.0537380322      -19.2380114647  MEMB      173             0.0000000000
     20144       173  SAPS      O11            11.0762766477      -36.0666686998      -18.5975048156  MEMB      173             0.0000000000
     20145       173  SAPS      C1             12.4745310582      -36.1933220635      -18.7878912458  MEMB      173             0.0000000000
     20146       173  SAPS      HA             12.8249661050      -37.2479990284      -18.7937503297  MEMB      173             0.0000000000
     20147       173  SAPS      HB             12.7556615324      -35.7432641481      -19.7676613359  MEMB      173             0.0000000000
     20148       173  SAPS      C2             13.2047345127      -35.4063316338      -17.6914580622  MEMB      173             0.0000000000
     20149       173  SAPS      HS             14.2953407856      -35.4754209695      -17.9198526512  MEMB      173             0.0000000000
     20150       173  SAPS      O21            12.9034381016      -35.9823116505      -16.4011603319  MEMB      173             0.0000000000
     20151       173  SAPS      C21            13.7490484748      -35.7155257792      -15.4173190593  MEMB      173             0.0000000000
     20152       173  SAPS      O22            14.7499430628      -35.0286869538      -15.5171652342  MEMB      173             0.0000000000
     20153       173  SAPS      C22            13.3465703917      -36.5250206009      -14.1800650806  MEMB      173             0.0000000000
     20154       173  SAPS      H2R            12.4724120371      -36.0761896462      -13.6825983960  MEMB      173             0.0000000000
     20155       173  SAPS      H2S            13.1084490519      -37.5618850419      -14.4953887957  MEMB      173             0.0000000000
     20156       173  SAPS      C3             12.7541287798      -33.9085114640      -17.8152141916  MEMB      173             0.0000000000
     20157       173  SAPS      HX             13.0106995865      -33.5848602922      -18.8304654518  MEMB      173             0.0000000000
     20158       173  SAPS      HY             13.5289721496      -33.3342632808      -17.2162098057  MEMB      173             0.0000000000
     20159       173  SAPS      O31            11.2770553657      -33.6368079953      -17.6690918502  MEMB      173             0.0000000000
     20160       173  SAPS      C31            11.1048722851      -33.2129725316      -16.4039417591  MEMB      173             0.0000000000
     20161       173  SAPS      O32            12.0491195892      -33.1276730470      -15.6953438498  MEMB      173             0.0000000000
     20162       173  SAPS      C32             9.7522227676      -32.9148202768      -15.7680899920  MEMB      173             0.0000000000
     20163       173  SAPS      H2X             9.0496381545      -32.6223960103      -16.5552030373  MEMB      173             0.0000000000
     20164       173  SAPS      H2Y             9.7819843800      -32.1002655566      -14.9962770569  MEMB      173             0.0000000000
     20165       173  SAPS      C23            14.4473188063      -36.6111486866      -13.1308322110  MEMB      173             0.0000000000
     20166       173  SAPS      H3R            14.7057733951      -35.6177411472      -12.7232259422  MEMB      173             0.0000000000
     20167       173  SAPS      H3S            15.3296222340      -36.9604749224      -13.7006948756  MEMB      173             0.0000000000
     20168       173  SAPS      C24            13.9714599763      -37.4757016256      -11.9536233898  MEMB      173             0.0000000000
     20169       173  SAPS      H4R            14.7702672540      -37.9763437268      -11.3796410735  MEMB      173             0.0000000000
     20170       173  SAPS      H4S            13.4882879111      -38.3612271489      -12.4000586295  MEMB      173             0.0000000000
     20171       173  SAPS      C25            13.0103821329      -36.6717809746      -11.0732266776  MEMB      173             0.0000000000
     20172       173  SAPS      H5R            12.0589512149      -36.4378845709      -11.5066919512  MEMB      173             0.0000000000
     20173       173  SAPS      C26            13.2102766579      -35.9466161537       -9.9670122430  MEMB      173             0.0000000000
     20174       173  SAPS      H6R            12.5147884737      -35.4084426870       -9.3471997293  MEMB      173             0.0000000000
     20175       173  SAPS      C27            14.4228130677      -35.7542705134       -9.3458274684  MEMB      173             0.0000000000
     20176       173  SAPS      H7R            14.8833297113      -35.1873495423      -10.1042227401  MEMB      173             0.0000000000
     20177       173  SAPS      H7S            14.9202941508      -36.6813862396       -9.5837211212  MEMB      173             0.0000000000
     20178       173  SAPS      C28            14.6202842527      -35.1565699596       -7.9711947537  MEMB      173             0.0000000000
     20179       173  SAPS      H8R            15.2599502129      -35.8968037645       -7.7062966968  MEMB      173             0.0000000000
     20180       173  SAPS      C29            15.1698621262      -33.9713357803       -7.6071599888  MEMB      173             0.0000000000
     20181       173  SAPS      H9R            15.6737805013      -33.8931802879       -6.6160828260  MEMB      173             0.0000000000
     20182       173  SAPS      C210           15.6502020957      -33.0140085230       -8.7012779758  MEMB      173             0.0000000000
     20183       173  SAPS      H10R           15.2254438210      -33.2518803224       -9.6846282976  MEMB      173             0.0000000000
     20184       173  SAPS      H10S           16.7491618357      -32.8199776448       -8.8081120216  MEMB      173             0.0000000000
     20185       173  SAPS      C211           15.0126466832      -31.7922406800       -8.2614378281  MEMB      173             0.0000000000
     20186       173  SAPS      H11R           15.5330181642      -30.8698612040       -8.4539930635  MEMB      173             0.0000000000
     20187       173  SAPS      C212           13.7762176642      -31.5320615266       -8.0635535293  MEMB      173             0.0000000000
     20188       173  SAPS      H12R           13.5732946084      -30.5383478710       -7.6263358964  MEMB      173             0.0000000000
     20189       173  SAPS      C213           12.7224233706      -32.5127786349       -8.3260790714  MEMB      173             0.0000000000
     20190       173  SAPS      H13R           12.9238208288      -33.5265299016       -8.1273158556  MEMB      173             0.0000000000
     20191       173  SAPS      H13S           12.8784639969      -32.5542808752       -9.3932579985  MEMB      173             0.0000000000
     20192       173  SAPS      C214           11.3595412161      -32.1613281287       -7.8945773348  MEMB      173             0.0000000000
     20193       173  SAPS      H14R           10.7595557422      -31.7029909429       -8.6788167597  MEMB      173             0.0000000000
     20194       173  SAPS      C215           10.6493954911      -32.5262953296       -6.8847402529  MEMB      173             0.0000000000
     20195       173  SAPS      H15R            9.7490289037      -31.9347727462       -6.6715656702  MEMB      173             0.0000000000
     20196       173  SAPS      C216           11.1940724265      -33.4935743510       -5.9350030833  MEMB      173             0.0000000000
     20197       173  SAPS      H16R           11.4675987890      -34.3625612430       -6.5792196294  MEMB      173             0.0000000000
     20198       173  SAPS      H16S           10.3484612802      -33.7792720429       -5.2942138103  MEMB      173             0.0000000000
     20199       173  SAPS      C217           12.3939038135      -33.1631145608       -5.0592279568  MEMB      173             0.0000000000
     20200       173  SAPS      H17R           12.2032884443      -32.2157062240       -4.5347720565  MEMB      173             0.0000000000
     20201       173  SAPS      H17S           13.3127593217      -33.0088104374       -5.6645869402  MEMB      173             0.0000000000
     20202       173  SAPS      C218           12.5405917194      -34.3123898251       -4.0659243223  MEMB      173             0.0000000000
     20203       173  SAPS      H18R           12.5157459225      -35.2739936467       -4.6273146454  MEMB      173             0.0000000000
     20204       173  SAPS      H18S           11.7188352472      -34.3013410789       -3.3199483098  MEMB      173             0.0000000000
     20205       173  SAPS      C219           13.7955309956      -34.2858713278       -3.2522738745  MEMB      173             0.0000000000
     20206       173  SAPS      H19R           13.9425804858      -33.2799381101       -2.8553084599  MEMB      173             0.0000000000
     20207       173  SAPS      H19S           14.6074998242      -34.4043665164       -3.9899934672  MEMB      173             0.0000000000
     20208       173  SAPS      C220           13.7368118563      -35.3557374163       -2.1436303458  MEMB      173             0.0000000000
     20209       173  SAPS      H20R           13.8125079863      -36.3279739540       -2.6689568926  MEMB      173             0.0000000000
     20210       173  SAPS      H20S           12.8999066647      -35.3477357369       -1.4703097276  MEMB      173             0.0000000000
     20211       173  SAPS      H20T           14.5287906226      -35.3384967789       -1.3677250383  MEMB      173             0.0000000000
     20212       173  SAPS      C33             9.4304213765      -34.1901053973      -14.9650105017  MEMB      173             0.0000000000
     20213       173  SAPS      H3X             9.8847721723      -35.0609106760      -15.4989870604  MEMB      173             0.0000000000
     20214       173  SAPS      H3Y             8.3401029405      -34.3611517821      -14.9375566019  MEMB      173             0.0000000000
     20215       173  SAPS      C34             9.9606135049      -34.2756311289      -13.5127387195  MEMB      173             0.0000000000
     20216       173  SAPS      H4X            11.0650316018      -34.1425706209      -13.5193645503  MEMB      173             0.0000000000
     20217       173  SAPS      H4Y             9.7660540029      -35.3333190538      -13.2156938571  MEMB      173             0.0000000000
     20218       173  SAPS      C35             9.2697246482      -33.3588736201      -12.4753618144  MEMB      173             0.0000000000
     20219       173  SAPS      H5X             8.1709548152      -33.4778004197      -12.5084374454  MEMB      173             0.0000000000
     20220       173  SAPS      H5Y             9.4029517853      -32.2957281802      -12.7311548076  MEMB      173             0.0000000000
     20221       173  SAPS      C36             9.6953640026      -33.5965175332      -11.0149279928  MEMB      173             0.0000000000
     20222       173  SAPS      H6X             9.4196871068      -32.6862812927      -10.4274621664  MEMB      173             0.0000000000
     20223       173  SAPS      H6Y            10.7922630779      -33.7357660325      -10.9131585497  MEMB      173             0.0000000000
     20224       173  SAPS      C37             9.0145483185      -34.8179544898      -10.4012369812  MEMB      173             0.0000000000
     20225       173  SAPS      H7X             9.5459905224      -35.7383636853      -10.7464986352  MEMB      173             0.0000000000
     20226       173  SAPS      H7Y             7.9682495272      -34.8724806604      -10.7714207348  MEMB      173             0.0000000000
     20227       173  SAPS      C38             9.0085349109      -34.7543198452       -8.8657822343  MEMB      173             0.0000000000
     20228       173  SAPS      H8X             8.7145832914      -33.7530907286       -8.5070437296  MEMB      173             0.0000000000
     20229       173  SAPS      H8Y            10.0583023580      -34.9522737557       -8.5463189002  MEMB      173             0.0000000000
     20230       173  SAPS      C39             8.1040272917      -35.7683447828       -8.2037255606  MEMB      173             0.0000000000
     20231       173  SAPS      H9X             7.0293129985      -35.7434328651       -8.5412186788  MEMB      173             0.0000000000
     20232       173  SAPS      H9Y             8.1169391223      -35.8018461856       -7.0973356653  MEMB      173             0.0000000000
     20233       173  SAPS      C310            8.5862415762      -37.1112758307       -8.5937934078  MEMB      173             0.0000000000
     20234       173  SAPS      H10X            8.2418697988      -37.1121768284       -9.6549341290  MEMB      173             0.0000000000
     20235       173  SAPS      H10Y            7.8675924913      -37.6914604284       -7.9851402250  MEMB      173             0.0000000000
     20236       173  SAPS      C311           10.0751008347      -37.5720450722       -8.3313170783  MEMB      173             0.0000000000
     20237       173  SAPS      H11X           10.4068628332      -36.9276574009       -7.5010219623  MEMB      173             0.0000000000
     20238       173  SAPS      H11Y           10.7098868056      -37.4080009672       -9.2295759203  MEMB      173             0.0000000000
     20239       173  SAPS      C312           10.4094467484      -39.0443769407       -7.9102170309  MEMB      173             0.0000000000
     20240       173  SAPS      H12X           10.1475669878      -39.8077421482       -8.6728350225  MEMB      173             0.0000000000
     20241       173  SAPS      H12Y            9.8863898186      -39.2962946599       -6.9598321275  MEMB      173             0.0000000000
     20242       173  SAPS      C313           11.8269221151      -39.4917175103       -7.8694921574  MEMB      173             0.0000000000
     20243       173  SAPS      H13X           12.2406275642      -39.6192410938       -8.8982918138  MEMB      173             0.0000000000
     20244       173  SAPS      H13Y           11.8038974472      -40.5063057285       -7.3998745647  MEMB      173             0.0000000000
     20245       173  SAPS      C314           12.6268799983      -38.5348650553       -7.0667475011  MEMB      173             0.0000000000
     20246       173  SAPS      H14X           12.7427224657      -37.5407236519       -7.5712361259  MEMB      173             0.0000000000
     20247       173  SAPS      H14Y           13.5903417936      -39.0797436111       -7.0661279580  MEMB      173             0.0000000000
     20248       173  SAPS      C315           12.1410880751      -38.3141842766       -5.6300254850  MEMB      173             0.0000000000
     20249       173  SAPS      H15X           11.1438881260      -37.8366879818       -5.5996708534  MEMB      173             0.0000000000
     20250       173  SAPS      H15Y           12.8099767517      -37.5622441222       -5.1970747569  MEMB      173             0.0000000000
     20251       173  SAPS      C316           12.1120333888      -39.5926274046       -4.7852950696  MEMB      173             0.0000000000
     20252       173  SAPS      H16X           13.1354958942      -40.0285152081       -4.7436470308  MEMB      173             0.0000000000
     20253       173  SAPS      H16Y           11.4750566938      -40.3424974825       -5.3076164622  MEMB      173             0.0000000000
     20254       173  SAPS      C317           11.5110965129      -39.4033731262       -3.3755833920  MEMB      173             0.0000000000
     20255       173  SAPS      H17X           11.5501529215      -40.3942916944       -2.8668341145  MEMB      173             0.0000000000
     20256       173  SAPS      H17Y           10.4379588403      -39.1206099825       -3.4797586838  MEMB      173             0.0000000000
     20257       173  SAPS      C318           12.1424487578      -38.3508625374       -2.4584486837  MEMB      173             0.0000000000
     20258       173  SAPS      H18X           11.7877378728      -37.3280852473       -2.7114631589  MEMB      173             0.0000000000
     20259       173  SAPS      H18Y           13.2508942673      -38.3745920005       -2.5206104101  MEMB      173             0.0000000000
     20260       173  SAPS      H18Z           11.8350873072      -38.5368183030       -1.4077408851  MEMB      173             0.0000000000
     20261       174  OSM       N              27.5549513260       23.5648298258      -21.0268168101  MEMB      174             0.0000000000
     20262       174  OSM       C15            26.3208228766       23.6887423050      -20.1921399632  MEMB      174             0.0000000000
     20263       174  OSM       H15A           25.4513934968       23.7522254486      -20.8323621926  MEMB      174             0.0000000000
     20264       174  OSM       H15B           26.3329195319       24.6692504806      -19.7080605246  MEMB      174             0.0000000000
     20265       174  OSM       H15C           26.2109479002       22.8991327757      -19.4686057597  MEMB      174             0.0000000000
     20266       174  OSM       C14            28.7333846241       24.0242163209      -20.2224662976  MEMB      174             0.0000000000
     20267       174  OSM       H14A           29.5180321394       24.3970258631      -20.8652108007  MEMB      174             0.0000000000
     20268       174  OSM       H14B           29.1112611941       23.2245842712      -19.5936351897  MEMB      174             0.0000000000
     20269       174  OSM       H14C           28.4625217892       24.8389037268      -19.5493275632  MEMB      174             0.0000000000
     20270       174  OSM       C13            27.7689792993       22.1492501077      -21.4076103801  MEMB      174             0.0000000000
     20271       174  OSM       H13A           26.9532246815       21.7766125313      -22.0078966311  MEMB      174             0.0000000000
     20272       174  OSM       H13B           27.8193911921       21.5219615109      -20.5153310009  MEMB      174             0.0000000000
     20273       174  OSM       H13C           28.7204465585       22.0416598584      -21.9136375755  MEMB      174             0.0000000000
     20274       174  OSM       C12            27.3627663594       24.3979771449      -22.2731994515  MEMB      174             0.0000000000
     20275       174  OSM       H12A           26.3799011433       24.1761550481      -22.6834783984  MEMB      174             0.0000000000
     20276       174  OSM       H12B           28.0973463910       24.0433662900      -22.9789552008  MEMB      174             0.0000000000
     20277       174  OSM       C11            27.3418019059       25.9391547946      -22.1475629732  MEMB      174             0.0000000000
     20278       174  OSM       H11A           26.8230504692       26.3348281217      -23.0617247862  MEMB      174             0.0000000000
     20279       174  OSM       H11B           28.3618935132       26.3741826707      -22.1357690021  MEMB      174             0.0000000000
     20280       174  OSM       P              26.1909418322       27.8352029283      -20.8189730565  MEMB      174             0.0000000000
     20281       174  OSM       O13            27.4140486030       28.6145641481      -21.1109033789  MEMB      174             0.0000000000
     20282       174  OSM       O14            24.9954361334       27.9576090019      -21.6868016086  MEMB      174             0.0000000000
     20283       174  OSM       O11            25.7879474445       27.9129604066      -19.2577345388  MEMB      174             0.0000000000
     20284       174  OSM       O12            26.6445411815       26.3222732227      -20.9612875058  MEMB      174             0.0000000000
     20285       174  OSM       C1S            25.8058343703       26.7027610063      -18.5056461342  MEMB      174             0.0000000000
     20286       174  OSM       H1S            26.7778251718       26.1768103268      -18.6202988713  MEMB      174             0.0000000000
     20287       174  OSM       H1T            24.9630679718       26.0665766466      -18.8590577178  MEMB      174             0.0000000000
     20288       174  OSM       NF             25.7572816385       25.6257319435      -16.3081175459  MEMB      174             0.0000000000
     20289       174  OSM       HNF            24.9948220683       24.9965616774      -16.2417082201  MEMB      174             0.0000000000
     20290       174  OSM       C2S            25.5940557641       26.9033092486      -16.9818133791  MEMB      174             0.0000000000
     20291       174  OSM       H2S            26.3282135115       27.6579746543      -16.5940077246  MEMB      174             0.0000000000
     20292       174  OSM       C3S            24.1926346987       27.4609048228      -16.7913585583  MEMB      174             0.0000000000
     20293       174  OSM       H3S            23.4924775915       26.7136732053      -17.2369683396  MEMB      174             0.0000000000
     20294       174  OSM       O3             23.9999212686       28.7086864990      -17.4171939050  MEMB      174             0.0000000000
     20295       174  OSM       HO3            24.7485527871       28.7538964668      -18.0411008266  MEMB      174             0.0000000000
     20296       174  OSM       C4S            23.8849669120       27.6038455129      -15.3468122585  MEMB      174             0.0000000000
     20297       174  OSM       H4S            24.5080030062       28.3271879773      -14.8005829061  MEMB      174             0.0000000000
     20298       174  OSM       C5S            22.9010188553       26.9004166745      -14.7613520738  MEMB      174             0.0000000000
     20299       174  OSM       H5S            22.3434229385       26.1800362104      -15.3819854025  MEMB      174             0.0000000000
     20300       174  OSM       C6S            22.5050511500       26.9623546605      -13.3182916936  MEMB      174             0.0000000000
     20301       174  OSM       H6S            22.6573328441       25.9510203333      -12.8882364379  MEMB      174             0.0000000000
     20302       174  OSM       H6T            21.4294245443       27.2219098283      -13.1816736718  MEMB      174             0.0000000000
     20303       174  OSM       C7S            23.2915617442       27.9823527588      -12.4868038185  MEMB      174             0.0000000000
     20304       174  OSM       H7S            23.2327905587       28.9815671947      -12.9848274372  MEMB      174             0.0000000000
     20305       174  OSM       H7T            24.3592132148       27.6726170175      -12.4756397848  MEMB      174             0.0000000000
     20306       174  OSM       C8S            22.6966189421       28.0771740583      -11.0692008386  MEMB      174             0.0000000000
     20307       174  OSM       H8S            21.6019587062       28.2626742989      -11.1744007293  MEMB      174             0.0000000000
     20308       174  OSM       H8T            23.1046982409       28.9616842426      -10.5470333475  MEMB      174             0.0000000000
     20309       174  OSM       C9S            22.9173270901       26.8143831764      -10.2065769271  MEMB      174             0.0000000000
     20310       174  OSM       H9S            22.6892219528       25.9169903107      -10.8185577321  MEMB      174             0.0000000000
     20311       174  OSM       H9T            22.2158707424       26.7816222113       -9.3449191419  MEMB      174             0.0000000000
     20312       174  OSM       C10S           24.3434938354       26.6737871943       -9.6523862592  MEMB      174             0.0000000000
     20313       174  OSM       H10S           24.4735276327       27.3155127891       -8.7509083199  MEMB      174             0.0000000000
     20314       174  OSM       H10T           25.0446917971       27.0293179965      -10.4380775657  MEMB      174             0.0000000000
     20315       174  OSM       C11S           24.6864526289       25.2259287027       -9.2972087458  MEMB      174             0.0000000000
     20316       174  OSM       H11S           24.6690068229       24.6322990228      -10.2393709662  MEMB      174             0.0000000000
     20317       174  OSM       H11T           23.8976640799       24.8321156974       -8.6258219187  MEMB      174             0.0000000000
     20318       174  OSM       C12S           26.0785153035       24.9966785070       -8.6978620361  MEMB      174             0.0000000000
     20319       174  OSM       H12S           26.7699223402       25.2927890467       -9.4763500626  MEMB      174             0.0000000000
     20320       174  OSM       H12T           26.2145257712       23.9186972483       -8.4584848755  MEMB      174             0.0000000000
     20321       174  OSM       C13S           26.4773944855       25.7790229573       -7.4622062017  MEMB      174             0.0000000000
     20322       174  OSM       H13S           26.5341924707       26.8713676931       -7.6590337589  MEMB      174             0.0000000000
     20323       174  OSM       H13T           27.4935690016       25.4305766203       -7.1483676105  MEMB      174             0.0000000000
     20324       174  OSM       C14S           25.4879095346       25.5468326786       -6.3535472567  MEMB      174             0.0000000000
     20325       174  OSM       H14S           25.5586263187       24.4964641140       -5.9833480172  MEMB      174             0.0000000000
     20326       174  OSM       H14T           24.4385312849       25.7411824825       -6.6751616029  MEMB      174             0.0000000000
     20327       174  OSM       C15S           25.7891219987       26.4482523205       -5.2007778661  MEMB      174             0.0000000000
     20328       174  OSM       H15S           25.6494124749       27.5217186424       -5.4532351241  MEMB      174             0.0000000000
     20329       174  OSM       H15T           26.8608772953       26.3474293813       -4.9285503099  MEMB      174             0.0000000000
     20330       174  OSM       C16S           24.8715288875       25.9655275188       -4.0919429840  MEMB      174             0.0000000000
     20331       174  OSM       H16S           25.2092936293       25.0782302921       -3.5238869043  MEMB      174             0.0000000000
     20332       174  OSM       H16T           23.8295311289       25.9929238700       -4.4563622896  MEMB      174             0.0000000000
     20333       174  OSM       C17S           24.8400065866       26.7888299978       -2.9259081711  MEMB      174             0.0000000000
     20334       174  OSM       H17S           24.2842967031       26.5324652066       -2.0218069465  MEMB      174             0.0000000000
     20335       174  OSM       H17T           24.4228685577       27.7124755560       -3.3530938222  MEMB      174             0.0000000000
     20336       174  OSM       C18S           26.1582873111       26.9477510990       -2.4329540369  MEMB      174             0.0000000000
     20337       174  OSM       H18S           26.8943187760       26.5961561169       -1.7406327389  MEMB      174             0.0000000000
     20338       174  OSM       H18T           25.6933131462       27.6584194411       -1.7151363422  MEMB      174             0.0000000000
     20339       174  OSM       H18U           26.7032121224       27.3545959041       -3.2934192752  MEMB      174             0.0000000000
     20340       174  OSM       C1F            26.9507446450       25.3126146028      -15.8884425565  MEMB      174             0.0000000000
     20341       174  OSM       OF             27.8778328947       26.0119181546      -16.2513036547  MEMB      174             0.0000000000
     20342       174  OSM       C2F            27.0326627744       24.1818424718      -14.9271873665  MEMB      174             0.0000000000
     20343       174  OSM       H2F            27.5359431233       23.2920504192      -15.3742660107  MEMB      174             0.0000000000
     20344       174  OSM       H2G            26.0052729393       23.9174555485      -14.6003949952  MEMB      174             0.0000000000
     20345       174  OSM       C3F            27.7918643903       24.6049522897      -13.6642506456  MEMB      174             0.0000000000
     20346       174  OSM       H3F            27.5116907250       25.6106850946      -13.2805067788  MEMB      174             0.0000000000
     20347       174  OSM       H3G            28.8257343035       24.5975321335      -14.0486897230  MEMB      174             0.0000000000
     20348       174  OSM       C4F            27.4992090332       23.6116647179      -12.5375542800  MEMB      174             0.0000000000
     20349       174  OSM       H4F            27.3877382034       22.5982330893      -13.0205393199  MEMB      174             0.0000000000
     20350       174  OSM       H4G            26.6679564272       23.9454268850      -11.9133287204  MEMB      174             0.0000000000
     20351       174  OSM       C5F            28.4524037386       23.3583298070      -11.4056369847  MEMB      174             0.0000000000
     20352       174  OSM       H5F            29.0026952986       22.7491794808      -12.0757324735  MEMB      174             0.0000000000
     20353       174  OSM       H5G            28.1481638844       22.6881012850      -10.6006129254  MEMB      174             0.0000000000
     20354       174  OSM       C6F            29.0733831854       24.4752646993      -10.6349130505  MEMB      174             0.0000000000
     20355       174  OSM       H6F            28.3464785866       24.9947355227      -10.1152812110  MEMB      174             0.0000000000
     20356       174  OSM       H6G            29.0688755071       25.2861276800      -11.3533030935  MEMB      174             0.0000000000
     20357       174  OSM       C7F            30.3800162634       24.1144426388       -9.8116651897  MEMB      174             0.0000000000
     20358       174  OSM       H7F            31.2802715160       23.6314677968      -10.3373498789  MEMB      174             0.0000000000
     20359       174  OSM       H7G            30.1038226219       23.4693612802       -8.9987138217  MEMB      174             0.0000000000
     20360       174  OSM       C8F            31.2433709604       24.9906753747       -9.1045244951  MEMB      174             0.0000000000
     20361       174  OSM       H8F            31.8465011461       25.7538402740       -9.6011069005  MEMB      174             0.0000000000
     20362       174  OSM       H8G            31.9907336802       24.2122028237       -8.7864213448  MEMB      174             0.0000000000
     20363       174  OSM       C9F            30.5748926403       25.6526822868       -8.0287755618  MEMB      174             0.0000000000
     20364       174  OSM       H9F            30.4985910092       26.6578959317       -8.2840493450  MEMB      174             0.0000000000
     20365       174  OSM       C10F           30.7507591702       25.5320117490       -6.7926181928  MEMB      174             0.0000000000
     20366       174  OSM       H10F           30.3155034054       26.3948557012       -6.2408817028  MEMB      174             0.0000000000
     20367       174  OSM       C11F           31.7975716112       24.5554270894       -6.3334254164  MEMB      174             0.0000000000
     20368       174  OSM       H11F           32.9570977844       24.7103104714       -6.1171261934  MEMB      174             0.0000000000
     20369       174  OSM       H11G           31.9656345698       23.8210629103       -7.0396342546  MEMB      174             0.0000000000
     20370       174  OSM       C12F           30.8693035568       23.8803172580       -5.3204690168  MEMB      174             0.0000000000
     20371       174  OSM       H12F           31.6307151001       23.2564569656       -4.8206675671  MEMB      174             0.0000000000
     20372       174  OSM       H12G           30.0599890265       23.4416505256       -5.9076459505  MEMB      174             0.0000000000
     20373       174  OSM       C13F           29.9234767078       24.4788326493       -4.2077279121  MEMB      174             0.0000000000
     20374       174  OSM       H13F           29.2660961217       25.3607082428       -4.2567175851  MEMB      174             0.0000000000
     20375       174  OSM       H13G           30.7437183846       25.0501341614       -4.2808631027  MEMB      174             0.0000000000
     20376       174  OSM       C14F           29.8548880587       23.8454286516       -2.7824464836  MEMB      174             0.0000000000
     20377       174  OSM       H14F           29.6922591005       24.5591243322       -1.9353266803  MEMB      174             0.0000000000
     20378       174  OSM       H14G           30.7040632614       23.2112522123       -2.4325600606  MEMB      174             0.0000000000
     20379       174  OSM       C15F           28.7414939752       22.9616460303       -2.9245083219  MEMB      174             0.0000000000
     20380       174  OSM       H15F           28.9709246288       22.3507399510       -3.8363169883  MEMB      174             0.0000000000
     20381       174  OSM       H15G           27.8454312428       23.5872191193       -3.1159756471  MEMB      174             0.0000000000
     20382       174  OSM       C16F           28.5911184535       22.0794103655       -1.7711746549  MEMB      174             0.0000000000
     20383       174  OSM       H16F           28.3534949878       22.5445614983       -0.7878725786  MEMB      174             0.0000000000
     20384       174  OSM       H16G           29.4916108780       21.4247863932       -1.5946306594  MEMB      174             0.0000000000
     20385       174  OSM       C17F           27.4502565594       21.2883889370       -2.3295783803  MEMB      174             0.0000000000
     20386       174  OSM       H17F           27.7784605851       20.5934862374       -1.6210856724  MEMB      174             0.0000000000
     20387       174  OSM       H17G           27.6211715722       20.7344020126       -3.2659764921  MEMB      174             0.0000000000
     20388       174  OSM       C18F           26.0256124916       21.8622349307       -2.2069849347  MEMB      174             0.0000000000
     20389       174  OSM       H18F           25.2404503196       21.0902448141       -2.0647956879  MEMB      174             0.0000000000
     20390       174  OSM       H18G           25.7023197526       22.3184920617       -3.1496527244  MEMB      174             0.0000000000
     20391       174  OSM       H18H           25.9575554323       22.5369140623       -1.3222363461  MEMB      174             0.0000000000
     20392       175  SLPC      N              35.6795839463      -17.1659168482      -18.6124941390  MEMB      175             0.0000000000
     20393       175  SLPC      C13            36.7753358843      -16.6984783229      -17.7017142816  MEMB      175             0.0000000000
     20394       175  SLPC      H13A           37.3052869739      -15.8613675291      -18.1427689093  MEMB      175             0.0000000000
     20395       175  SLPC      H13B           36.3743654613      -16.1801801677      -16.8567087548  MEMB      175             0.0000000000
     20396       175  SLPC      H13C           37.7228933659      -17.1813293351      -17.4433982122  MEMB      175             0.0000000000
     20397       175  SLPC      C14            35.3436187003      -18.3484860464      -17.8809743907  MEMB      175             0.0000000000
     20398       175  SLPC      H14A           34.8576514654      -18.0290752734      -16.9499659256  MEMB      175             0.0000000000
     20399       175  SLPC      H14B           34.7542928508      -19.0204516803      -18.4530343184  MEMB      175             0.0000000000
     20400       175  SLPC      H14C           36.2637693785      -18.8529908981      -17.5865900510  MEMB      175             0.0000000000
     20401       175  SLPC      C15            36.3304295632      -17.4341062556      -19.8978359701  MEMB      175             0.0000000000
     20402       175  SLPC      H15A           37.1564337562      -18.0980591349      -19.7202663537  MEMB      175             0.0000000000
     20403       175  SLPC      H15B           35.5950737314      -17.7969134513      -20.5965241124  MEMB      175             0.0000000000
     20404       175  SLPC      H15C           36.7028914710      -16.4846431613      -20.2753886076  MEMB      175             0.0000000000
     20405       175  SLPC      C12            34.3469058035      -16.3375808693      -18.9473058272  MEMB      175             0.0000000000
     20406       175  SLPC      H12A           33.6351174141      -16.8763950723      -19.5117960608  MEMB      175             0.0000000000
     20407       175  SLPC      H12B           34.6466621666      -15.5175214923      -19.5959189589  MEMB      175             0.0000000000
     20408       175  SLPC      C11            33.4792045048      -15.5120500148      -17.9747828077  MEMB      175             0.0000000000
     20409       175  SLPC      H11A           32.9611308450      -14.5538542190      -18.1906499362  MEMB      175             0.0000000000
     20410       175  SLPC      H11B           34.3323849237      -14.9264472613      -17.7661383645  MEMB      175             0.0000000000
     20411       175  SLPC      P              32.3519398853      -15.6813025689      -15.5669948270  MEMB      175             0.0000000000
     20412       175  SLPC      O13            32.9157295824      -16.5177462588      -14.5171681492  MEMB      175             0.0000000000
     20413       175  SLPC      O14            32.2612871004      -14.2149698311      -15.5552967227  MEMB      175             0.0000000000
     20414       175  SLPC      O12            32.8876831212      -16.2942916366      -16.9448821877  MEMB      175             0.0000000000
     20415       175  SLPC      O11            30.9300649758      -16.0416500320      -15.2768587084  MEMB      175             0.0000000000
     20416       175  SLPC      C1             30.7038514777      -17.2671984147      -15.8838934815  MEMB      175             0.0000000000
     20417       175  SLPC      HA             30.5461550109      -17.0366234203      -16.9547910449  MEMB      175             0.0000000000
     20418       175  SLPC      HB             31.4802850329      -18.0701393508      -15.7403904057  MEMB      175             0.0000000000
     20419       175  SLPC      C2             29.5231669770      -17.7459042342      -15.1654985916  MEMB      175             0.0000000000
     20420       175  SLPC      HS             28.9028845421      -16.8785750455      -14.8843178291  MEMB      175             0.0000000000
     20421       175  SLPC      O21            29.9286053631      -18.2713926495      -13.9751240077  MEMB      175             0.0000000000
     20422       175  SLPC      C21            28.9018850858      -18.4630728942      -13.2648168988  MEMB      175             0.0000000000
     20423       175  SLPC      O22            27.7540085594      -18.0551180945      -13.3578202583  MEMB      175             0.0000000000
     20424       175  SLPC      C22            29.5974441299      -19.0503115205      -12.2124440013  MEMB      175             0.0000000000
     20425       175  SLPC      H2R            30.3695423205      -19.7857540739      -12.4480304983  MEMB      175             0.0000000000
     20426       175  SLPC      H2S            29.9751634428      -18.2076424080      -11.6393998731  MEMB      175             0.0000000000
     20427       175  SLPC      C3             28.8946071962      -18.8168108536      -16.0240028724  MEMB      175             0.0000000000
     20428       175  SLPC      HX             28.4804903889      -18.3063581472      -16.9073818650  MEMB      175             0.0000000000
     20429       175  SLPC      HY             28.0627988015      -19.3025583890      -15.4660121565  MEMB      175             0.0000000000
     20430       175  SLPC      O31            29.9300239760      -19.6905178669      -16.5075209230  MEMB      175             0.0000000000
     20431       175  SLPC      C31            30.0139835347      -20.8448754081      -15.9267492097  MEMB      175             0.0000000000
     20432       175  SLPC      O32            29.2723282955      -21.2547409567      -15.0494784762  MEMB      175             0.0000000000
     20433       175  SLPC      C32            31.1414371168      -21.6219261848      -16.6467260253  MEMB      175             0.0000000000
     20434       175  SLPC      H2X            31.7712627395      -20.9631788171      -17.2542931456  MEMB      175             0.0000000000
     20435       175  SLPC      H2Y            30.6354712114      -22.4157896248      -17.2475915209  MEMB      175             0.0000000000
     20436       175  SLPC      C23            28.9857965217      -20.0185334501      -11.5790339658  MEMB      175             0.0000000000
     20437       175  SLPC      H3R            28.1456961746      -20.6240650971      -12.1067308267  MEMB      175             0.0000000000
     20438       175  SLPC      H3S            27.8594157446      -19.5390310864      -11.3319061138  MEMB      175             0.0000000000
     20439       175  SLPC      C24            30.2881697993      -20.7797433872       -9.8334287407  MEMB      175             0.0000000000
     20440       175  SLPC      H4R            29.5795866571      -21.0961378806       -8.9238777080  MEMB      175             0.0000000000
     20441       175  SLPC      H4S            30.0923020777      -20.5450994873       -8.7284340662  MEMB      175             0.0000000000
     20442       175  SLPC      C25            31.0898043633      -21.9280686637       -9.4403422295  MEMB      175             0.0000000000
     20443       175  SLPC      H5R            31.5868027178      -21.0166323362       -9.8474396714  MEMB      175             0.0000000000
     20444       175  SLPC      H5S            30.3375373972      -22.5986046651       -9.6127456395  MEMB      175             0.0000000000
     20445       175  SLPC      C26            30.8552891594      -22.5657173028       -8.0817991844  MEMB      175             0.0000000000
     20446       175  SLPC      H6R            31.5950857055      -23.3835964934       -8.3013656442  MEMB      175             0.0000000000
     20447       175  SLPC      H6S            29.8640862724      -23.1016293986       -7.9546068191  MEMB      175             0.0000000000
     20448       175  SLPC      C27            31.0969840730      -21.5131126004       -6.9810822360  MEMB      175             0.0000000000
     20449       175  SLPC      H7R            31.3965739658      -22.1925121918       -6.1794207917  MEMB      175             0.0000000000
     20450       175  SLPC      H7S            30.1975453785      -21.0991722332       -6.5955833778  MEMB      175             0.0000000000
     20451       175  SLPC      C28            31.9039506612      -20.1790128019       -7.3028932318  MEMB      175             0.0000000000
     20452       175  SLPC      H8R            32.1200768105      -19.5526387589       -6.4681089020  MEMB      175             0.0000000000
     20453       175  SLPC      H8S            31.5467296757      -19.5418298691       -8.1438037720  MEMB      175             0.0000000000
     20454       175  SLPC      C29            32.8646958095      -21.0754347484       -7.8086416417  MEMB      175             0.0000000000
     20455       175  SLPC      H9R            33.2334782237      -20.3965120023       -8.6002501744  MEMB      175             0.0000000000
     20456       175  SLPC      C210           33.6465621645      -21.8981251172       -7.1865729704  MEMB      175             0.0000000000
     20457       175  SLPC      H10R           34.3117331794      -22.5625960050       -7.8058435845  MEMB      175             0.0000000000
     20458       175  SLPC      C211           33.7437512946      -21.9275684782       -5.7142340749  MEMB      175             0.0000000000
     20459       175  SLPC      H11R           33.9646467679      -22.9694191747       -5.6697228123  MEMB      175             0.0000000000
     20460       175  SLPC      H11S           32.8443926909      -21.4756397881       -5.3087216792  MEMB      175             0.0000000000
     20461       175  SLPC      C212           34.7221832608      -21.3623475832       -4.7241806506  MEMB      175             0.0000000000
     20462       175  SLPC      H12R           35.4922355508      -22.0519132031       -4.3871048961  MEMB      175             0.0000000000
     20463       175  SLPC      C213           34.8240952067      -20.2403608101       -4.0326864283  MEMB      175             0.0000000000
     20464       175  SLPC      H13R           35.7714719737      -19.9194158329       -3.4916080028  MEMB      175             0.0000000000
     20465       175  SLPC      C214           33.7996835628      -19.2401947733       -4.2302567129  MEMB      175             0.0000000000
     20466       175  SLPC      H14R           33.2453930694      -19.1936206162       -5.1337607841  MEMB      175             0.0000000000
     20467       175  SLPC      H14S           34.6126124937      -18.5365017332       -4.4382591793  MEMB      175             0.0000000000
     20468       175  SLPC      C215           32.7891709648      -19.1851237836       -3.0716800938  MEMB      175             0.0000000000
     20469       175  SLPC      H15R           32.2085587393      -18.3195945412       -2.7472295922  MEMB      175             0.0000000000
     20470       175  SLPC      H15S           33.6183004849      -19.0741185603       -2.4632396646  MEMB      175             0.0000000000
     20471       175  SLPC      C216           31.9191836250      -20.4014327489       -2.8453869220  MEMB      175             0.0000000000
     20472       175  SLPC      H16R           32.5436601776      -21.2074820941       -3.1467969513  MEMB      175             0.0000000000
     20473       175  SLPC      H16S           31.2217982710      -20.2598870768       -3.6836871667  MEMB      175             0.0000000000
     20474       175  SLPC      C217           31.1801754575      -20.6898002560       -1.5050694633  MEMB      175             0.0000000000
     20475       175  SLPC      H17R           30.5890919932      -19.8070263604       -1.2160182545  MEMB      175             0.0000000000
     20476       175  SLPC      H17S           31.7218810513      -20.9954514977       -0.5940979455  MEMB      175             0.0000000000
     20477       175  SLPC      C218           30.4641021494      -22.0088564177       -1.4402527803  MEMB      175             0.0000000000
     20478       175  SLPC      H18R           31.2469063839      -22.7378641283       -1.1265886724  MEMB      175             0.0000000000
     20479       175  SLPC      H18S           30.0127476752      -22.2590795907       -2.4139611525  MEMB      175             0.0000000000
     20480       175  SLPC      H18T           29.7687894222      -22.0977058932       -0.5919163183  MEMB      175             0.0000000000
     20481       175  SLPC      C33            32.0479243047      -22.3615699929      -15.6827485425  MEMB      175             0.0000000000
     20482       175  SLPC      H3X            32.7603686382      -23.1298833983      -16.0351993105  MEMB      175             0.0000000000
     20483       175  SLPC      H3Y            31.1972128797      -22.9705551465      -15.5100238825  MEMB      175             0.0000000000
     20484       175  SLPC      C34            32.4976860016      -21.6278056672      -14.4270787475  MEMB      175             0.0000000000
     20485       175  SLPC      H4X            33.1487008540      -22.3291193650      -13.8457468534  MEMB      175             0.0000000000
     20486       175  SLPC      H4Y            31.7261851712      -21.2857433466      -13.7174853539  MEMB      175             0.0000000000
     20487       175  SLPC      C35            33.0623146443      -20.3010605811      -14.8019646705  MEMB      175             0.0000000000
     20488       175  SLPC      H5X            32.5646972983      -19.6672994468      -15.5297647310  MEMB      175             0.0000000000
     20489       175  SLPC      H5Y            33.9428221393      -20.6099604847      -15.4396797337  MEMB      175             0.0000000000
     20490       175  SLPC      C36            33.2877151643      -19.3167306882      -13.6034978790  MEMB      175             0.0000000000
     20491       175  SLPC      H6X            33.6494635766      -18.4072563571      -14.0452087814  MEMB      175             0.0000000000
     20492       175  SLPC      H6Y            34.0565120186      -19.5520741295      -12.8858137878  MEMB      175             0.0000000000
     20493       175  SLPC      C37            32.6521193624      -19.0195490139      -12.3283627146  MEMB      175             0.0000000000
     20494       175  SLPC      H7X            32.3366731633      -19.9855248876      -11.8776210421  MEMB      175             0.0000000000
     20495       175  SLPC      H7Y            31.9096448624      -18.3743950005      -12.8284188036  MEMB      175             0.0000000000
     20496       175  SLPC      C38            33.5955280068      -18.2166410566      -11.3670273411  MEMB      175             0.0000000000
     20497       175  SLPC      H8X            34.3607424187      -17.5672785221      -11.8723429927  MEMB      175             0.0000000000
     20498       175  SLPC      H8Y            34.1900217097      -18.9002644945      -10.7340567996  MEMB      175             0.0000000000
     20499       175  SLPC      C39            32.5895695676      -17.4699462580      -10.5436496226  MEMB      175             0.0000000000
     20500       175  SLPC      H9X            31.9052417293      -18.2622352640      -10.1902606376  MEMB      175             0.0000000000
     20501       175  SLPC      H9Y            32.0640156872      -16.8013606689      -11.2741363167  MEMB      175             0.0000000000
     20502       175  SLPC      C310           33.0780485582      -16.7691806492       -9.2952001759  MEMB      175             0.0000000000
     20503       175  SLPC      H10X           34.0169687932      -16.3713017298       -9.6421620187  MEMB      175             0.0000000000
     20504       175  SLPC      H10Y           33.5106759480      -17.3781211425       -8.4947036359  MEMB      175             0.0000000000
     20505       175  SLPC      C311           32.0186045844      -15.8024914262       -8.7317424489  MEMB      175             0.0000000000
     20506       175  SLPC      H11X           31.5977000374      -15.1443132108       -9.5307258806  MEMB      175             0.0000000000
     20507       175  SLPC      H11Y           32.4469741638      -15.1659140771       -7.9272323867  MEMB      175             0.0000000000
     20508       175  SLPC      C312           30.9044118884      -16.5868645246       -8.0672620657  MEMB      175             0.0000000000
     20509       175  SLPC      H12X           31.4160033888      -17.3102034844       -7.3924490154  MEMB      175             0.0000000000
     20510       175  SLPC      H12Y           30.3325973633      -17.1279913724       -8.8418640894  MEMB      175             0.0000000000
     20511       175  SLPC      C313           29.9637892624      -15.7368423461       -7.2110516264  MEMB      175             0.0000000000
     20512       175  SLPC      H13X           29.4526962902      -15.0155285147       -7.8702635797  MEMB      175             0.0000000000
     20513       175  SLPC      H13Y           30.5490567993      -15.2666665030       -6.3956708521  MEMB      175             0.0000000000
     20514       175  SLPC      C314           28.8829205186      -16.5041987907       -6.5265722770  MEMB      175             0.0000000000
     20515       175  SLPC      H14X           28.2070891696      -16.8012457577       -7.3524977215  MEMB      175             0.0000000000
     20516       175  SLPC      H14Y           28.2060869049      -16.0314569439       -5.7932817305  MEMB      175             0.0000000000
     20517       175  SLPC      C315           29.5266409438      -17.6656572929       -5.8477088504  MEMB      175             0.0000000000
     20518       175  SLPC      H15X           30.1105992684      -17.6846200769       -4.9149301759  MEMB      175             0.0000000000
     20519       175  SLPC      H15Y           29.9663385768      -18.2931940107       -6.6682686794  MEMB      175             0.0000000000
     20520       175  SLPC      C316           28.4846527467      -18.4797974597       -5.3407002565  MEMB      175             0.0000000000
     20521       175  SLPC      H16X           29.0033027698      -19.4878631441       -5.2233535735  MEMB      175             0.0000000000
     20522       175  SLPC      H16Y           27.8931252867      -18.3402608631       -6.2686352449  MEMB      175             0.0000000000
     20523       175  SLPC      C317           27.2657043689      -18.1505049513       -4.5467247137  MEMB      175             0.0000000000
     20524       175  SLPC      H17X           26.4318097765      -18.8095536728       -4.7562223723  MEMB      175             0.0000000000
     20525       175  SLPC      H17Y           26.6024338687      -17.3646126011       -4.9148136930  MEMB      175             0.0000000000
     20526       175  SLPC      C318           27.7075568985      -18.4062501845       -3.1577934732  MEMB      175             0.0000000000
     20527       175  SLPC      H18X           26.8474112428      -18.5338071017       -2.4769047459  MEMB      175             0.0000000000
     20528       175  SLPC      H18Y           28.3370039998      -17.5362702955       -2.9580258794  MEMB      175             0.0000000000
     20529       175  SLPC      H18Z           28.3034967185      -19.3682616504       -3.1419492032  MEMB      175             0.0000000000
     20530       176  CHL1      C3            -30.3836075034       21.9547198681      -17.3161048121  MEMB      176             0.0000000000
     20531       176  CHL1      H3            -29.4390258573       22.4079323779      -16.9485976890  MEMB      176             0.0000000000
     20532       176  CHL1      O3            -30.2679039559       21.5259018575      -18.6468610803  MEMB      176             0.0000000000
     20533       176  CHL1      H3'           -29.4651472734       20.9905403411      -18.7015494015  MEMB      176             0.0000000000
     20534       176  CHL1      C4            -30.6789275655       20.7754614855      -16.4019446443  MEMB      176             0.0000000000
     20535       176  CHL1      H4A           -31.5593483127       20.2853696950      -16.8410150195  MEMB      176             0.0000000000
     20536       176  CHL1      H4B           -29.9213226462       19.9773901620      -16.4352518263  MEMB      176             0.0000000000
     20537       176  CHL1      C5            -30.7558602964       21.3899128272      -15.0191789646  MEMB      176             0.0000000000
     20538       176  CHL1      C6            -30.0797645193       20.9811075910      -13.9558670747  MEMB      176             0.0000000000
     20539       176  CHL1      H6            -29.5820893279       19.9993382704      -14.0190701304  MEMB      176             0.0000000000
     20540       176  CHL1      C7            -30.4282784048       21.5940158090      -12.6234386004  MEMB      176             0.0000000000
     20541       176  CHL1      H7A           -30.9574584815       20.9789566764      -11.9865425161  MEMB      176             0.0000000000
     20542       176  CHL1      H7B           -29.5575675081       21.8409576754      -12.0129314619  MEMB      176             0.0000000000
     20543       176  CHL1      C8            -31.7505661539       22.2950255667      -12.3645996050  MEMB      176             0.0000000000
     20544       176  CHL1      H8            -32.6304766117       21.5712631042      -12.4237514085  MEMB      176             0.0000000000
     20545       176  CHL1      C14           -31.6449346428       23.0887694996      -11.0475929220  MEMB      176             0.0000000000
     20546       176  CHL1      H14           -30.6965718581       23.6638516473      -11.0711688033  MEMB      176             0.0000000000
     20547       176  CHL1      C15           -31.4267899478       22.4455797233       -9.8175697047  MEMB      176             0.0000000000
     20548       176  CHL1      H15A          -32.0236835555       21.6031455734      -10.1378964130  MEMB      176             0.0000000000
     20549       176  CHL1      H15B          -30.4024628930       22.1838165222       -9.6076935271  MEMB      176             0.0000000000
     20550       176  CHL1      C16           -31.9107043112       23.1920444815       -8.5889845244  MEMB      176             0.0000000000
     20551       176  CHL1      H16A          -32.5272160064       22.7186690480       -7.8008518792  MEMB      176             0.0000000000
     20552       176  CHL1      H16B          -30.9715985311       23.4647730871       -8.0655990635  MEMB      176             0.0000000000
     20553       176  CHL1      C17           -32.7871877080       24.1976940851       -9.1423343737  MEMB      176             0.0000000000
     20554       176  CHL1      H17           -31.9695355117       24.8704944315       -9.0041915803  MEMB      176             0.0000000000
     20555       176  CHL1      C13           -32.8869380396       23.7493970001      -10.6152060186  MEMB      176             0.0000000000
     20556       176  CHL1      C18           -33.9686828490       22.6081856072      -10.4877681927  MEMB      176             0.0000000000
     20557       176  CHL1      H18A          -34.9016757513       22.9611096549      -10.2138785002  MEMB      176             0.0000000000
     20558       176  CHL1      H18B          -34.0985303177       22.1263703749      -11.4542214138  MEMB      176             0.0000000000
     20559       176  CHL1      H18C          -34.0854970721       21.9054501898       -9.6689471991  MEMB      176             0.0000000000
     20560       176  CHL1      C12           -32.7019154562       24.7906537542      -11.7434823594  MEMB      176             0.0000000000
     20561       176  CHL1      H12A          -33.5511277915       25.4505239536      -11.6714213101  MEMB      176             0.0000000000
     20562       176  CHL1      H12B          -31.7572494504       25.2997996804      -11.6072391595  MEMB      176             0.0000000000
     20563       176  CHL1      C11           -32.5198859105       24.4033153827      -13.2150317330  MEMB      176             0.0000000000
     20564       176  CHL1      H11A          -33.3807774962       23.9333391148      -13.3971734516  MEMB      176             0.0000000000
     20565       176  CHL1      H11B          -32.6297938457       25.1703173072      -13.9833663052  MEMB      176             0.0000000000
     20566       176  CHL1      C9            -31.6860926309       23.2027651948      -13.4802814500  MEMB      176             0.0000000000
     20567       176  CHL1      H9            -30.6794345146       23.6510468025      -13.3935944272  MEMB      176             0.0000000000
     20568       176  CHL1      C10           -31.7276511058       22.5076323608      -14.8522463782  MEMB      176             0.0000000000
     20569       176  CHL1      C19           -32.9293457152       21.6785247533      -15.1503991277  MEMB      176             0.0000000000
     20570       176  CHL1      H19A          -33.5278998263       22.4046608643      -15.6364353078  MEMB      176             0.0000000000
     20571       176  CHL1      H19B          -33.1265197192       21.2918472530      -16.1374708331  MEMB      176             0.0000000000
     20572       176  CHL1      H19C          -33.4596087548       21.0997124262      -14.3543591656  MEMB      176             0.0000000000
     20573       176  CHL1      C1            -31.5839173017       23.6023309507      -15.9029753613  MEMB      176             0.0000000000
     20574       176  CHL1      H1A           -32.4349324847       24.3159322085      -15.8829415856  MEMB      176             0.0000000000
     20575       176  CHL1      H1B           -30.6598644266       24.1400853751      -15.6130533950  MEMB      176             0.0000000000
     20576       176  CHL1      C2            -31.4303015903       23.0672110175      -17.3137756432  MEMB      176             0.0000000000
     20577       176  CHL1      H2A           -31.0274785197       23.9001895604      -17.9285726228  MEMB      176             0.0000000000
     20578       176  CHL1      H2B           -32.4028437232       22.7573526128      -17.7609957261  MEMB      176             0.0000000000
     20579       176  CHL1      C20           -33.9705373996       24.3953545085       -8.1477188973  MEMB      176             0.0000000000
     20580       176  CHL1      H20           -34.6292158972       23.5176494997       -8.0065825976  MEMB      176             0.0000000000
     20581       176  CHL1      C21           -34.7908621429       25.5508045250       -8.4368619467  MEMB      176             0.0000000000
     20582       176  CHL1      H21A          -35.2354149493       25.6845393250       -9.3463330996  MEMB      176             0.0000000000
     20583       176  CHL1      H21B          -33.9985499506       26.2834390989       -8.5176330052  MEMB      176             0.0000000000
     20584       176  CHL1      H21C          -35.6094786932       25.9152966897       -7.8150621901  MEMB      176             0.0000000000
     20585       176  CHL1      C22           -33.4559190718       24.8754043774       -6.8127080955  MEMB      176             0.0000000000
     20586       176  CHL1      H22A          -32.5362457679       24.3853775463       -6.4677474608  MEMB      176             0.0000000000
     20587       176  CHL1      H22B          -33.2260510324       25.9574399761       -6.8008521366  MEMB      176             0.0000000000
     20588       176  CHL1      C23           -34.5159836287       24.9858952850       -5.7924609724  MEMB      176             0.0000000000
     20589       176  CHL1      H23A          -35.0327157151       25.9645350789       -5.9579788679  MEMB      176             0.0000000000
     20590       176  CHL1      H23B          -35.3592618586       24.2961570833       -5.8648932739  MEMB      176             0.0000000000
     20591       176  CHL1      C24           -33.6936284576       24.8386268332       -4.5465318119  MEMB      176             0.0000000000
     20592       176  CHL1      H24A          -33.0598976268       23.9465015727       -4.4910131867  MEMB      176             0.0000000000
     20593       176  CHL1      H24B          -32.9981914555       25.7313369842       -4.4529272032  MEMB      176             0.0000000000
     20594       176  CHL1      C25           -34.6125222089       24.8336594189       -3.3984095148  MEMB      176             0.0000000000
     20595       176  CHL1      H25           -35.0785821125       25.7869349508       -3.5853134831  MEMB      176             0.0000000000
     20596       176  CHL1      C26           -35.7158370716       23.8843465613       -3.1482033323  MEMB      176             0.0000000000
     20597       176  CHL1      H26A          -35.1835827333       22.9539183380       -2.8673190082  MEMB      176             0.0000000000
     20598       176  CHL1      H26B          -36.3304466037       24.2408216713       -2.2775500462  MEMB      176             0.0000000000
     20599       176  CHL1      H26C          -36.3087696648       23.8743955600       -4.0731651629  MEMB      176             0.0000000000
     20600       176  CHL1      C27           -33.8493813910       24.8161137282       -2.1927747781  MEMB      176             0.0000000000
     20601       176  CHL1      H27A          -33.4109174168       23.9184109799       -1.7670419265  MEMB      176             0.0000000000
     20602       176  CHL1      H27B          -32.9937193723       25.5223806348       -2.3956727519  MEMB      176             0.0000000000
     20603       176  CHL1      H27C          -34.5783966060       25.2514784972       -1.4423670775  MEMB      176             0.0000000000
     20604       177  CHL1      C3             17.3992509026       35.7081298703      -17.3167451541  MEMB      177             0.0000000000
     20605       177  CHL1      H3             16.3687893863       36.1264810466      -17.2237853989  MEMB      177             0.0000000000
     20606       177  CHL1      O3             17.7294929972       35.6115394536      -18.6803096348  MEMB      177             0.0000000000
     20607       177  CHL1      H3'            17.8634307973       36.5131386804      -18.9999211899  MEMB      177             0.0000000000
     20608       177  CHL1      C4             18.4077702916       36.6274614546      -16.6325947302  MEMB      177             0.0000000000
     20609       177  CHL1      H4A            19.4325154789       36.2278062175      -16.7935298827  MEMB      177             0.0000000000
     20610       177  CHL1      H4B            18.4044447530       37.6313689084      -17.1179308061  MEMB      177             0.0000000000
     20611       177  CHL1      C5             18.0596939663       36.6796028629      -15.1652026185  MEMB      177             0.0000000000
     20612       177  CHL1      C6             17.7811087591       37.8481055568      -14.5800058509  MEMB      177             0.0000000000
     20613       177  CHL1      H6             17.7672679975       38.7922377545      -15.1472725036  MEMB      177             0.0000000000
     20614       177  CHL1      C7             17.4946717794       37.9467667398      -13.1331971978  MEMB      177             0.0000000000
     20615       177  CHL1      H7A            18.0476999387       38.8144640619      -12.7213229968  MEMB      177             0.0000000000
     20616       177  CHL1      H7B            16.4743441225       38.2710293002      -12.9747709022  MEMB      177             0.0000000000
     20617       177  CHL1      C8             17.8020483638       36.6027023564      -12.3842383647  MEMB      177             0.0000000000
     20618       177  CHL1      H8             18.8966217118       36.4767080742      -12.4277373304  MEMB      177             0.0000000000
     20619       177  CHL1      C14            17.2379284587       36.6037686784      -10.9899349174  MEMB      177             0.0000000000
     20620       177  CHL1      H14            16.1889830580       36.5456692445      -11.2087201227  MEMB      177             0.0000000000
     20621       177  CHL1      C15            17.1593826029       37.8779419084      -10.2657835726  MEMB      177             0.0000000000
     20622       177  CHL1      H15A           17.7172337162       38.6946407252      -10.5130060278  MEMB      177             0.0000000000
     20623       177  CHL1      H15B           16.4844799485       38.6469806558      -10.7040426331  MEMB      177             0.0000000000
     20624       177  CHL1      C16            17.2026001648       37.4239791337       -8.8019878604  MEMB      177             0.0000000000
     20625       177  CHL1      H16A           17.4840932528       37.8649234455       -7.8460637357  MEMB      177             0.0000000000
     20626       177  CHL1      H16B           16.6870822638       38.3065063869       -8.8373031968  MEMB      177             0.0000000000
     20627       177  CHL1      C17            16.8131530546       35.9233375104       -8.6758594942  MEMB      177             0.0000000000
     20628       177  CHL1      H17            15.8237868246       35.4667423327       -8.8105270282  MEMB      177             0.0000000000
     20629       177  CHL1      C13            17.5161801140       35.4712709711       -9.9661994796  MEMB      177             0.0000000000
     20630       177  CHL1      C18            18.9458389415       35.4859640018       -9.5923059304  MEMB      177             0.0000000000
     20631       177  CHL1      H18A           19.2410410493       34.8475997089       -8.7434144819  MEMB      177             0.0000000000
     20632       177  CHL1      H18B           19.6264361265       35.4554791190      -10.4293160569  MEMB      177             0.0000000000
     20633       177  CHL1      H18C           19.1128309257       36.4892458344       -9.3229708303  MEMB      177             0.0000000000
     20634       177  CHL1      C12            17.2104314461       34.1851932089      -10.6481452646  MEMB      177             0.0000000000
     20635       177  CHL1      H12A           17.6139177011       33.3881603122      -10.0017404410  MEMB      177             0.0000000000
     20636       177  CHL1      H12B           16.1187920056       34.0900282477      -10.7650030420  MEMB      177             0.0000000000
     20637       177  CHL1      C11            17.9155673215       34.1707314614      -12.0208362441  MEMB      177             0.0000000000
     20638       177  CHL1      H11A           19.0050060472       34.2744668446      -11.8332607446  MEMB      177             0.0000000000
     20639       177  CHL1      H11B           17.7325495693       33.2016260676      -12.4987600682  MEMB      177             0.0000000000
     20640       177  CHL1      C9             17.4333210579       35.3019349890      -12.9919684590  MEMB      177             0.0000000000
     20641       177  CHL1      H9             16.3584802212       35.1140137318      -12.9665175657  MEMB      177             0.0000000000
     20642       177  CHL1      C10            17.9167118273       35.2934497635      -14.4540750962  MEMB      177             0.0000000000
     20643       177  CHL1      C19            19.2127727680       34.5530668003      -14.4043489122  MEMB      177             0.0000000000
     20644       177  CHL1      H19A           19.1499782523       33.4835279430      -14.1608971091  MEMB      177             0.0000000000
     20645       177  CHL1      H19B           19.8685289465       34.6839994748      -15.2968829451  MEMB      177             0.0000000000
     20646       177  CHL1      H19C           19.6647273668       34.9951385584      -13.5096326231  MEMB      177             0.0000000000
     20647       177  CHL1      C1             16.9930613304       34.3865688508      -15.2344362528  MEMB      177             0.0000000000
     20648       177  CHL1      H1A            17.0615212259       33.3885294463      -14.7447105438  MEMB      177             0.0000000000
     20649       177  CHL1      H1B            15.9647449776       34.7865216174      -15.1378476623  MEMB      177             0.0000000000
     20650       177  CHL1      C2             17.3828613655       34.3010696435      -16.7059948556  MEMB      177             0.0000000000
     20651       177  CHL1      H2A            16.6338207634       33.6683439741      -17.2170262669  MEMB      177             0.0000000000
     20652       177  CHL1      H2B            18.3833947587       33.8275953802      -16.8223182513  MEMB      177             0.0000000000
     20653       177  CHL1      C20            16.8486881535       35.4131651184       -7.2331729646  MEMB      177             0.0000000000
     20654       177  CHL1      H20            17.7720588848       35.7076991926       -6.8470313057  MEMB      177             0.0000000000
     20655       177  CHL1      C21            16.9027920853       33.9174204353       -7.2335256855  MEMB      177             0.0000000000
     20656       177  CHL1      H21A           17.8961429695       33.6238485749       -7.6275350813  MEMB      177             0.0000000000
     20657       177  CHL1      H21B           16.0864841095       33.5434696118       -7.8789786472  MEMB      177             0.0000000000
     20658       177  CHL1      H21C           16.7820537422       33.5772193000       -6.1855820541  MEMB      177             0.0000000000
     20659       177  CHL1      C22            15.6477668274       35.8935239718       -6.3628340780  MEMB      177             0.0000000000
     20660       177  CHL1      H22A           15.5637426398       36.9652677970       -6.2081022552  MEMB      177             0.0000000000
     20661       177  CHL1      H22B           14.7632034114       35.6767229269       -6.8992247152  MEMB      177             0.0000000000
     20662       177  CHL1      C23            15.4985081576       35.7694006785       -4.9103364165  MEMB      177             0.0000000000
     20663       177  CHL1      H23A           14.4921175175       35.9308788607       -4.5145091186  MEMB      177             0.0000000000
     20664       177  CHL1      H23B           15.8386762805       34.7467757579       -4.7102453642  MEMB      177             0.0000000000
     20665       177  CHL1      C24            16.1502326567       36.9939253402       -4.3245235417  MEMB      177             0.0000000000
     20666       177  CHL1      H24A           17.0548172037       36.8906591541       -4.8702854159  MEMB      177             0.0000000000
     20667       177  CHL1      H24B           16.0025746430       38.0461893694       -4.6120636809  MEMB      177             0.0000000000
     20668       177  CHL1      C25            16.1959809883       36.7517497630       -2.8990535233  MEMB      177             0.0000000000
     20669       177  CHL1      H25            15.3603717554       36.3416476904       -2.3614341231  MEMB      177             0.0000000000
     20670       177  CHL1      C26            16.7387437246       35.3836491515       -2.7105783283  MEMB      177             0.0000000000
     20671       177  CHL1      H26A           17.0826521304       34.5881766358       -3.3786362437  MEMB      177             0.0000000000
     20672       177  CHL1      H26B           17.4989174942       35.9739822099       -3.2319215705  MEMB      177             0.0000000000
     20673       177  CHL1      H26C           16.9961503219       35.0714631700       -1.6941948986  MEMB      177             0.0000000000
     20674       177  CHL1      C27            16.6209789666       38.0624608018       -2.2952806603  MEMB      177             0.0000000000
     20675       177  CHL1      H27A           17.2344788143       38.6629473486       -2.9665785378  MEMB      177             0.0000000000
     20676       177  CHL1      H27B           15.9364714852       38.8933551253       -2.3080711719  MEMB      177             0.0000000000
     20677       177  CHL1      H27C           16.7055171788       38.0370151288       -1.2165940158  MEMB      177             0.0000000000
     20678       178  SAPC      N              20.7878123136      -30.9652750013      -21.2498927467  MEMB      178             0.0000000000
     20679       178  SAPC      C12            22.2653011652      -30.8330787312      -20.8697893747  MEMB      178             0.0000000000
     20680       178  SAPC      H12A           22.3973325474      -29.9828499359      -20.2175272699  MEMB      178             0.0000000000
     20681       178  SAPC      H12B           22.8545426844      -30.6302993913      -21.7653161349  MEMB      178             0.0000000000
     20682       178  SAPC      C13            20.5846176991      -32.2735100515      -21.9468161860  MEMB      178             0.0000000000
     20683       178  SAPC      H13A           20.4502717620      -33.0925880214      -21.2438754571  MEMB      178             0.0000000000
     20684       178  SAPC      H13B           19.7539117210      -32.2054097391      -22.6309146110  MEMB      178             0.0000000000
     20685       178  SAPC      H13C           21.4904011666      -32.5151615434      -22.4952423478  MEMB      178             0.0000000000
     20686       178  SAPC      C14            19.8838887921      -30.8273900078      -20.0502551148  MEMB      178             0.0000000000
     20687       178  SAPC      H14A           20.3299179865      -31.3328781345      -19.1862166724  MEMB      178             0.0000000000
     20688       178  SAPC      H14B           19.7630886727      -29.7855379151      -19.7912745767  MEMB      178             0.0000000000
     20689       178  SAPC      H14C           18.8875752179      -31.2272641098      -20.2109988769  MEMB      178             0.0000000000
     20690       178  SAPC      C15            20.4470805755      -29.8980637278      -22.2115493109  MEMB      178             0.0000000000
     20691       178  SAPC      H15A           21.0839036941      -29.0487100347      -22.0368616639  MEMB      178             0.0000000000
     20692       178  SAPC      H15B           20.5563857735      -30.2551778864      -23.2288573437  MEMB      178             0.0000000000
     20693       178  SAPC      H15C           19.4133755723      -29.6229932508      -22.0724492093  MEMB      178             0.0000000000
     20694       178  SAPC      C11            22.9624505839      -32.0231731393      -20.1801681003  MEMB      178             0.0000000000
     20695       178  SAPC      H11A           23.9860879339      -31.7452710818      -19.8369023213  MEMB      178             0.0000000000
     20696       178  SAPC      H11B           23.1095110388      -32.7769277015      -20.9472829729  MEMB      178             0.0000000000
     20697       178  SAPC      P              22.5048616155      -34.0243317511      -18.6019862354  MEMB      178             0.0000000000
     20698       178  SAPC      O13            22.2827378245      -34.0819449665      -17.1441320932  MEMB      178             0.0000000000
     20699       178  SAPC      O14            21.7644511839      -34.9814671715      -19.4568605188  MEMB      178             0.0000000000
     20700       178  SAPC      O12            22.1880515119      -32.5613466678      -19.1214711972  MEMB      178             0.0000000000
     20701       178  SAPC      O11            24.0283188716      -34.1919407837      -19.0113669381  MEMB      178             0.0000000000
     20702       178  SAPC      C1             24.9533322583      -35.1233282005      -18.4847766467  MEMB      178             0.0000000000
     20703       178  SAPC      HA             24.4895094621      -36.0706442379      -18.1146735511  MEMB      178             0.0000000000
     20704       178  SAPC      HB             25.6587550176      -35.3876030815      -19.3013612086  MEMB      178             0.0000000000
     20705       178  SAPC      C2             25.8878155462      -34.5022368706      -17.4461973198  MEMB      178             0.0000000000
     20706       178  SAPC      HS             26.7888268381      -35.1769012983      -17.3926075488  MEMB      178             0.0000000000
     20707       178  SAPC      O21            25.2784626138      -34.3683841684      -16.2071183300  MEMB      178             0.0000000000
     20708       178  SAPC      C21            25.6318458303      -35.3292256288      -15.4675611603  MEMB      178             0.0000000000
     20709       178  SAPC      O22            25.8326512784      -36.4868175527      -15.8152234178  MEMB      178             0.0000000000
     20710       178  SAPC      C22            25.5523614655      -34.7997730760      -14.1093964713  MEMB      178             0.0000000000
     20711       178  SAPC      H2R            26.0663161572      -35.2965036199      -13.2420622119  MEMB      178             0.0000000000
     20712       178  SAPC      H2S            25.0619106139      -33.7935914731      -13.9998619430  MEMB      178             0.0000000000
     20713       178  SAPC      C3             26.3970988465      -33.0866797902      -17.7772455493  MEMB      178             0.0000000000
     20714       178  SAPC      HX             26.7021317561      -33.2172638071      -18.8318174300  MEMB      178             0.0000000000
     20715       178  SAPC      HY             27.2763445584      -32.8739508442      -17.1254039313  MEMB      178             0.0000000000
     20716       178  SAPC      O31            25.4056076204      -32.0360749892      -17.7275313205  MEMB      178             0.0000000000
     20717       178  SAPC      C31            25.0584633805      -31.5095409493      -16.5455285392  MEMB      178             0.0000000000
     20718       178  SAPC      O32            25.7006410665      -31.6179399753      -15.5165526785  MEMB      178             0.0000000000
     20719       178  SAPC      C32            23.7900388135      -30.6502390712      -16.7217171743  MEMB      178             0.0000000000
     20720       178  SAPC      H2X            23.0023560800      -31.3057812244      -17.1449918118  MEMB      178             0.0000000000
     20721       178  SAPC      H2Y            24.0143412889      -29.8643323495      -17.4693845113  MEMB      178             0.0000000000
     20722       178  SAPC      C23            24.3423899385      -35.4532378069      -13.8798138115  MEMB      178             0.0000000000
     20723       178  SAPC      H3R            24.7497577842      -36.5706899676      -13.8036132008  MEMB      178             0.0000000000
     20724       178  SAPC      H3S            23.5497220266      -35.4198710693      -14.6779706023  MEMB      178             0.0000000000
     20725       178  SAPC      C24            23.8178614122      -34.6079345944      -12.6264591348  MEMB      178             0.0000000000
     20726       178  SAPC      H4R            24.5507139651      -34.5681669021      -11.7773132350  MEMB      178             0.0000000000
     20727       178  SAPC      H4S            24.1064632757      -35.7288368012      -12.4039484745  MEMB      178             0.0000000000
     20728       178  SAPC      C25            22.2533077846      -33.8429472145      -12.4041184395  MEMB      178             0.0000000000
     20729       178  SAPC      H5R            21.9409781507      -33.2438618005      -13.2310796916  MEMB      178             0.0000000000
     20730       178  SAPC      C26            20.9298212739      -34.0702901108      -11.7944926955  MEMB      178             0.0000000000
     20731       178  SAPC      H6R            20.0110672615      -33.7009638617      -12.2961909825  MEMB      178             0.0000000000
     20732       178  SAPC      C27            20.1498990329      -35.1261367595      -10.9754762517  MEMB      178             0.0000000000
     20733       178  SAPC      H7R            20.3091488714      -36.2539828290      -11.0067696364  MEMB      178             0.0000000000
     20734       178  SAPC      H7S            19.2175131823      -35.3776371283      -11.4167184861  MEMB      178             0.0000000000
     20735       178  SAPC      C28            19.7453200372      -34.3788476500       -9.7692169021  MEMB      178             0.0000000000
     20736       178  SAPC      H8R            19.0607707517      -33.6052947185      -10.0515805583  MEMB      178             0.0000000000
     20737       178  SAPC      C29            19.7390627126      -34.5971695501       -8.4861625732  MEMB      178             0.0000000000
     20738       178  SAPC      H9R            18.8762527885      -34.3158547477       -7.8950827836  MEMB      178             0.0000000000
     20739       178  SAPC      C210           20.2009428913      -35.7434826911       -7.8236377290  MEMB      178             0.0000000000
     20740       178  SAPC      H10R           20.9695698788      -35.9164041101       -8.3941658868  MEMB      178             0.0000000000
     20741       178  SAPC      H10S           19.7956795947      -36.7754144001       -7.6756938459  MEMB      178             0.0000000000
     20742       178  SAPC      C211           20.7910366567      -35.1310305277       -6.7489274236  MEMB      178             0.0000000000
     20743       178  SAPC      H11R           21.8285487667      -34.7818847007       -6.8088051161  MEMB      178             0.0000000000
     20744       178  SAPC      C212           20.3475978582      -35.6008415209       -5.6792664910  MEMB      178             0.0000000000
     20745       178  SAPC      H12R           21.1534411680      -35.2855403599       -5.0549358976  MEMB      178             0.0000000000
     20746       178  SAPC      C213           19.3013666896      -36.6513546599       -5.2927370155  MEMB      178             0.0000000000
     20747       178  SAPC      H13R           18.5728165939      -36.4906940899       -6.0678747769  MEMB      178             0.0000000000
     20748       178  SAPC      H13S           18.6619646202      -35.8546556221       -4.8290095233  MEMB      178             0.0000000000
     20749       178  SAPC      C214           19.4435543547      -38.0594961750       -4.4199362288  MEMB      178             0.0000000000
     20750       178  SAPC      H14R           19.3402215903      -38.9617978899       -5.0377461318  MEMB      178             0.0000000000
     20751       178  SAPC      C215           19.4681050254      -38.3982876937       -3.0174100779  MEMB      178             0.0000000000
     20752       178  SAPC      H15R           19.0317177584      -39.2765408204       -2.4644355533  MEMB      178             0.0000000000
     20753       178  SAPC      C216           19.3237565443      -37.4754014375       -1.8453062360  MEMB      178             0.0000000000
     20754       178  SAPC      H16R           18.3901980336      -37.3419971970       -1.3759852861  MEMB      178             0.0000000000
     20755       178  SAPC      H16S           18.7549221315      -36.6962218601       -2.2644260497  MEMB      178             0.0000000000
     20756       178  SAPC      C217           20.4216501790      -36.8752150641       -1.0991999663  MEMB      178             0.0000000000
     20757       178  SAPC      H17R           20.4255052279      -35.9022820882       -0.5246655792  MEMB      178             0.0000000000
     20758       178  SAPC      H17S           20.7309364440      -35.8042241080       -1.0829090810  MEMB      178             0.0000000000
     20759       178  SAPC      C218           21.0905132633      -37.7190656541       -0.5702849831  MEMB      178             0.0000000000
     20760       178  SAPC      H18R           21.1375429520      -38.4676820831       -1.3683878955  MEMB      178             0.0000000000
     20761       178  SAPC      H18S           20.6794007703      -37.8596767073        0.4895261148  MEMB      178             0.0000000000
     20762       178  SAPC      C219           22.2183481235      -36.8450355553       -0.8160256605  MEMB      178             0.0000000000
     20763       178  SAPC      H19R           22.5226541195      -37.7728059917       -0.4598044005  MEMB      178             0.0000000000
     20764       178  SAPC      H19S           21.8285501662      -36.2878689383        0.1017288905  MEMB      178             0.0000000000
     20765       178  SAPC      C220           22.7846392357      -35.6748538515       -1.8474777320  MEMB      178             0.0000000000
     20766       178  SAPC      H20R           22.3312613771      -34.6417891761       -1.6395295985  MEMB      178             0.0000000000
     20767       178  SAPC      H20S           23.7368722965      -36.0093694906       -2.1414224680  MEMB      178             0.0000000000
     20768       178  SAPC      H20T           23.4646752472      -34.8561374168       -1.5774553386  MEMB      178             0.0000000000
     20769       178  SAPC      C33            23.2495929376      -29.9808923539      -15.4297597268  MEMB      178             0.0000000000
     20770       178  SAPC      H3X            22.6420211938      -29.0902262226      -15.7115947269  MEMB      178             0.0000000000
     20771       178  SAPC      H3Y            24.0904334974      -29.5980287997      -14.8117845775  MEMB      178             0.0000000000
     20772       178  SAPC      C34            22.3595902428      -30.9148210415      -14.5862333548  MEMB      178             0.0000000000
     20773       178  SAPC      H4X            23.0213244020      -31.6798041883      -14.1244408071  MEMB      178             0.0000000000
     20774       178  SAPC      H4Y            21.6451697586      -31.4625359091      -15.2410219948  MEMB      178             0.0000000000
     20775       178  SAPC      C35            21.5712765305      -30.1875406654      -13.4772700141  MEMB      178             0.0000000000
     20776       178  SAPC      H5X            21.0175101803      -30.9291683008      -12.8559920377  MEMB      178             0.0000000000
     20777       178  SAPC      H5Y            20.7867820169      -29.5588574929      -13.9543674520  MEMB      178             0.0000000000
     20778       178  SAPC      C36            22.4715366013      -29.2983337133      -12.5956740683  MEMB      178             0.0000000000
     20779       178  SAPC      H6X            21.8509481999      -28.7059405648      -11.8907765204  MEMB      178             0.0000000000
     20780       178  SAPC      H6Y            22.9982568341      -28.5542412924      -13.2337754728  MEMB      178             0.0000000000
     20781       178  SAPC      C37            23.5483657990      -30.0546831015      -11.7972261628  MEMB      178             0.0000000000
     20782       178  SAPC      H7X            24.1597296159      -29.3053848746      -11.2528748525  MEMB      178             0.0000000000
     20783       178  SAPC      H7Y            24.2310478050      -30.6114385462      -12.4796121648  MEMB      178             0.0000000000
     20784       178  SAPC      C38            23.0232418547      -31.0742248671      -10.7904677270  MEMB      178             0.0000000000
     20785       178  SAPC      H8X            23.8801137010      -31.6240616590      -10.3472783007  MEMB      178             0.0000000000
     20786       178  SAPC      H8Y            22.4309595912      -31.8229108988      -11.3078789099  MEMB      178             0.0000000000
     20787       178  SAPC      C39            22.1438365187      -30.5293146240       -9.6751141880  MEMB      178             0.0000000000
     20788       178  SAPC      H9X            21.1315128020      -30.2751200956      -10.0622789886  MEMB      178             0.0000000000
     20789       178  SAPC      H9Y            22.6146762054      -29.5920160913       -9.3154329247  MEMB      178             0.0000000000
     20790       178  SAPC      C310           22.0751918446      -31.5796623312       -8.5579096720  MEMB      178             0.0000000000
     20791       178  SAPC      H10X           22.0575384382      -32.5975451664       -9.0155009378  MEMB      178             0.0000000000
     20792       178  SAPC      H10Y           21.1506623754      -31.4620843311       -7.9568475614  MEMB      178             0.0000000000
     20793       178  SAPC      C311           23.2711935016      -31.4501906413       -7.6126914142  MEMB      178             0.0000000000
     20794       178  SAPC      H11X           23.1755907073      -30.4819345734       -7.0712944254  MEMB      178             0.0000000000
     20795       178  SAPC      H11Y           24.2195302143      -31.4239641758       -8.1967848320  MEMB      178             0.0000000000
     20796       178  SAPC      C312           23.4236164409      -32.5864571666       -6.5974969519  MEMB      178             0.0000000000
     20797       178  SAPC      H12X           23.8692579643      -33.4403991337       -7.1579357686  MEMB      178             0.0000000000
     20798       178  SAPC      H12Y           22.4437710064      -32.9082223666       -6.1880744579  MEMB      178             0.0000000000
     20799       178  SAPC      C313           24.3283236933      -32.0922162496       -5.4630972719  MEMB      178             0.0000000000
     20800       178  SAPC      H13X           23.7703095126      -31.4261660624       -4.7687282190  MEMB      178             0.0000000000
     20801       178  SAPC      H13Y           25.1103924994      -31.4720463112       -5.9574488626  MEMB      178             0.0000000000
     20802       178  SAPC      C314           25.0866036236      -33.1464907827       -4.6750290481  MEMB      178             0.0000000000
     20803       178  SAPC      H14X           25.5417308160      -33.8939984730       -5.3603141068  MEMB      178             0.0000000000
     20804       178  SAPC      H14Y           24.4544302986      -33.6828256557       -3.9319682271  MEMB      178             0.0000000000
     20805       178  SAPC      C315           26.3041587480      -32.5538585085       -3.9849527772  MEMB      178             0.0000000000
     20806       178  SAPC      H15X           25.9716599310      -31.7559866118       -3.2693903445  MEMB      178             0.0000000000
     20807       178  SAPC      H15Y           26.9362753776      -32.0035429549       -4.7120276384  MEMB      178             0.0000000000
     20808       178  SAPC      C316           27.1561896492      -33.7652264550       -3.4717088543  MEMB      178             0.0000000000
     20809       178  SAPC      H16X           27.8897172060      -33.5061045974       -2.7566608812  MEMB      178             0.0000000000
     20810       178  SAPC      H16Y           27.6817850660      -34.3775639973       -4.1732123355  MEMB      178             0.0000000000
     20811       178  SAPC      C317           26.6039406574      -34.6510415122       -2.4391113837  MEMB      178             0.0000000000
     20812       178  SAPC      H17X           25.8043634237      -35.3207966533       -2.7316931833  MEMB      178             0.0000000000
     20813       178  SAPC      H17Y           25.9875670923      -33.7640406780       -2.2687026959  MEMB      178             0.0000000000
     20814       178  SAPC      C318           27.5017405353      -35.1692166564       -1.2255896695  MEMB      178             0.0000000000
     20815       178  SAPC      H18X           28.3501923664      -35.7581909882       -1.5679726620  MEMB      178             0.0000000000
     20816       178  SAPC      H18Y           26.9439266414      -35.8234007332       -0.5408242884  MEMB      178             0.0000000000
     20817       178  SAPC      H18Z           27.8789531159      -34.4859692416       -0.4396309371  MEMB      178             0.0000000000
     20818       179  OSM       N             -36.8908960005       14.3477805233      -21.3057500364  MEMB      179             0.0000000000
     20819       179  OSM       C15           -35.9273464682       13.3432805737      -21.0206301382  MEMB      179             0.0000000000
     20820       179  OSM       H15A          -35.3715975687       12.8003346642      -21.7803970891  MEMB      179             0.0000000000
     20821       179  OSM       H15B          -36.3941049639       12.6077634005      -20.3761269481  MEMB      179             0.0000000000
     20822       179  OSM       H15C          -35.1955535350       13.8257663244      -20.3837862278  MEMB      179             0.0000000000
     20823       179  OSM       C14           -37.9624158631       13.5552756327      -21.8167725600  MEMB      179             0.0000000000
     20824       179  OSM       H14A          -38.5450712562       14.3219820050      -22.3308953439  MEMB      179             0.0000000000
     20825       179  OSM       H14B          -38.6170417406       13.1234445664      -21.0703119225  MEMB      179             0.0000000000
     20826       179  OSM       H14C          -37.7313631919       12.8628050107      -22.6129768468  MEMB      179             0.0000000000
     20827       179  OSM       C13           -37.4557674118       14.9933172650      -20.0600243460  MEMB      179             0.0000000000
     20828       179  OSM       H13A          -36.6600230148       15.4635524049      -19.4803753861  MEMB      179             0.0000000000
     20829       179  OSM       H13B          -37.9079003250       14.2350287347      -19.4332759546  MEMB      179             0.0000000000
     20830       179  OSM       H13C          -38.1873370445       15.7582077095      -20.3026413357  MEMB      179             0.0000000000
     20831       179  OSM       C12           -36.2114838335       15.3539423288      -22.2035864727  MEMB      179             0.0000000000
     20832       179  OSM       H12A          -36.8688043166       16.2065445638      -22.3563286732  MEMB      179             0.0000000000
     20833       179  OSM       H12B          -35.9612760290       14.8742789607      -23.1382808410  MEMB      179             0.0000000000
     20834       179  OSM       C11           -34.8438636590       15.9086215184      -21.7765865370  MEMB      179             0.0000000000
     20835       179  OSM       H11A          -34.5000659540       16.5376069117      -22.6357889389  MEMB      179             0.0000000000
     20836       179  OSM       H11B          -34.0694258815       15.1238415915      -21.6275463199  MEMB      179             0.0000000000
     20837       179  OSM       P             -35.2593910371       18.1612028200      -20.6966040485  MEMB      179             0.0000000000
     20838       179  OSM       O13           -34.0186748928       18.9244808151      -20.9119743849  MEMB      179             0.0000000000
     20839       179  OSM       O14           -36.3832691774       18.4163708473      -21.6158285697  MEMB      179             0.0000000000
     20840       179  OSM       O11           -35.7629285762       18.4917567952      -19.2323499338  MEMB      179             0.0000000000
     20841       179  OSM       O12           -34.9807654440       16.6408408973      -20.5786241357  MEMB      179             0.0000000000
     20842       179  OSM       C1S           -35.0671868650       17.9515951842      -18.0995625136  MEMB      179             0.0000000000
     20843       179  OSM       H1S           -34.0053530355       18.2511337903      -18.1747417125  MEMB      179             0.0000000000
     20844       179  OSM       H1T           -35.0617719701       16.8368634619      -18.0493486810  MEMB      179             0.0000000000
     20845       179  OSM       NF            -34.9927927206       18.2416507637      -15.5786401257  MEMB      179             0.0000000000
     20846       179  OSM       HNF           -35.3896005045       17.6646397421      -14.8864764697  MEMB      179             0.0000000000
     20847       179  OSM       C2S           -35.7400843240       18.4655688338      -16.7842442328  MEMB      179             0.0000000000
     20848       179  OSM       H2S           -35.8278966923       19.5810417207      -16.9129936141  MEMB      179             0.0000000000
     20849       179  OSM       C3S           -37.1200543096       17.7905676711      -16.6594642072  MEMB      179             0.0000000000
     20850       179  OSM       H3S           -37.0805533323       16.7110900692      -16.8423323171  MEMB      179             0.0000000000
     20851       179  OSM       O3            -38.0716341389       18.4198068749      -17.5315234019  MEMB      179             0.0000000000
     20852       179  OSM       HO3           -37.5879787179       19.0863439031      -18.0219756658  MEMB      179             0.0000000000
     20853       179  OSM       C4S           -37.6646425811       17.9670170804      -15.2884931442  MEMB      179             0.0000000000
     20854       179  OSM       H4S           -38.0729600797       18.8846983370      -15.3785774043  MEMB      179             0.0000000000
     20855       179  OSM       C5S           -37.8790714511       17.3424643239      -14.1289289560  MEMB      179             0.0000000000
     20856       179  OSM       H5S           -37.6121056903       16.2955362926      -14.1305231164  MEMB      179             0.0000000000
     20857       179  OSM       C6S           -38.5115082151       17.8703450909      -12.8340691144  MEMB      179             0.0000000000
     20858       179  OSM       H6S           -39.5866740853       17.5989950676      -12.7582139523  MEMB      179             0.0000000000
     20859       179  OSM       H6T           -38.5163994901       18.9651566492      -12.6395630019  MEMB      179             0.0000000000
     20860       179  OSM       C7S           -37.7600931755       17.2621761411      -11.6614469516  MEMB      179             0.0000000000
     20861       179  OSM       H7S           -38.1945946190       17.6298905970      -10.6953893610  MEMB      179             0.0000000000
     20862       179  OSM       H7T           -36.6708991892       17.4709733556      -11.6331986265  MEMB      179             0.0000000000
     20863       179  OSM       C8S           -37.9302664979       15.7891648739      -11.6493731799  MEMB      179             0.0000000000
     20864       179  OSM       H8S           -37.2961204440       15.1680212167      -12.3340834975  MEMB      179             0.0000000000
     20865       179  OSM       H8T           -39.0023595387       15.5108237681      -11.7822183795  MEMB      179             0.0000000000
     20866       179  OSM       C9S           -37.7000476984       15.4098299341      -10.2726806645  MEMB      179             0.0000000000
     20867       179  OSM       H9S           -38.1973454283       14.4210686173      -10.4316576936  MEMB      179             0.0000000000
     20868       179  OSM       H9T           -38.3771444033       15.8210185796       -9.5255906317  MEMB      179             0.0000000000
     20869       179  OSM       C10S          -36.2447848149       15.6927244841       -9.7674255899  MEMB      179             0.0000000000
     20870       179  OSM       H10S          -36.3245571517       16.4688455869       -9.0013233627  MEMB      179             0.0000000000
     20871       179  OSM       H10T          -35.5628205750       15.8554583824      -10.6392866078  MEMB      179             0.0000000000
     20872       179  OSM       C11S          -35.4417465692       14.7876148516       -8.8696203982  MEMB      179             0.0000000000
     20873       179  OSM       H11S          -35.2419746836       14.0713250433       -9.6796402241  MEMB      179             0.0000000000
     20874       179  OSM       H11T          -35.8731522777       14.1443918088       -8.0521286314  MEMB      179             0.0000000000
     20875       179  OSM       C12S          -34.2020207771       15.2255943872       -8.3119153213  MEMB      179             0.0000000000
     20876       179  OSM       H12S          -33.4160548816       15.7123428930       -8.8787160583  MEMB      179             0.0000000000
     20877       179  OSM       H12T          -34.0056077820       14.1750527894       -8.3566407129  MEMB      179             0.0000000000
     20878       179  OSM       C13S          -34.3144673463       15.4860651752       -6.9165303945  MEMB      179             0.0000000000
     20879       179  OSM       H13S          -35.0298780997       14.7376477603       -6.4951059688  MEMB      179             0.0000000000
     20880       179  OSM       H13T          -35.0152331884       16.3284724562       -6.9627345618  MEMB      179             0.0000000000
     20881       179  OSM       C14S          -32.8547987080       15.6725194945       -6.2790516797  MEMB      179             0.0000000000
     20882       179  OSM       H14S          -33.2983777578       16.2034596139       -5.4175489291  MEMB      179             0.0000000000
     20883       179  OSM       H14T          -32.4359415127       16.4896370641       -6.8328543808  MEMB      179             0.0000000000
     20884       179  OSM       C15S          -31.6105577634       14.5768599880       -5.9223512752  MEMB      179             0.0000000000
     20885       179  OSM       H15S          -31.3716844631       13.5365221099       -6.0982746738  MEMB      179             0.0000000000
     20886       179  OSM       H15T          -31.7698790224       13.5667898027       -5.4876329040  MEMB      179             0.0000000000
     20887       179  OSM       C16S          -30.7253135988       14.4352283546       -4.8925028839  MEMB      179             0.0000000000
     20888       179  OSM       H16S          -29.9346282063       14.4891965291       -5.5958176185  MEMB      179             0.0000000000
     20889       179  OSM       H16T          -30.3226856730       13.3987312256       -4.5758206705  MEMB      179             0.0000000000
     20890       179  OSM       C17S          -31.3767913392       15.3492240453       -4.0537017936  MEMB      179             0.0000000000
     20891       179  OSM       H17S          -32.3796828689       15.4380944741       -3.5792624929  MEMB      179             0.0000000000
     20892       179  OSM       H17T          -31.3593394199       16.2526487717       -4.6528339992  MEMB      179             0.0000000000
     20893       179  OSM       C18S          -30.3409573872       15.0173650382       -3.1896191906  MEMB      179             0.0000000000
     20894       179  OSM       H18S          -30.1840325043       13.9656395371       -2.9971863977  MEMB      179             0.0000000000
     20895       179  OSM       H18T          -30.6761960951       15.4744437195       -2.2567788688  MEMB      179             0.0000000000
     20896       179  OSM       H18U          -29.2932354031       15.3266380569       -3.3392587116  MEMB      179             0.0000000000
     20897       179  OSM       C1F           -33.7810032512       18.6072273268      -15.5151794450  MEMB      179             0.0000000000
     20898       179  OSM       OF            -33.3754109672       19.2735917355      -16.4161731901  MEMB      179             0.0000000000
     20899       179  OSM       C2F           -32.9328714919       18.0019609197      -14.4921983904  MEMB      179             0.0000000000
     20900       179  OSM       H2F           -32.0645625076       17.7220059806      -15.1236335983  MEMB      179             0.0000000000
     20901       179  OSM       H2G           -33.4205643665       17.1155711671      -14.0550902232  MEMB      179             0.0000000000
     20902       179  OSM       C3F           -32.4560975780       18.9761008181      -13.4128426993  MEMB      179             0.0000000000
     20903       179  OSM       H3F           -33.2197163166       19.4813013633      -12.8184288424  MEMB      179             0.0000000000
     20904       179  OSM       H3G           -31.9495741176       19.6488756658      -14.0495996684  MEMB      179             0.0000000000
     20905       179  OSM       C4F           -31.3416814143       18.4556929196      -12.5739836972  MEMB      179             0.0000000000
     20906       179  OSM       H4F           -30.5100384660       18.2355974319      -13.2656658998  MEMB      179             0.0000000000
     20907       179  OSM       H4G           -31.9587185604       17.6356209601      -12.1626174683  MEMB      179             0.0000000000
     20908       179  OSM       C5F           -30.6818201427       19.0140997605      -11.3669088578  MEMB      179             0.0000000000
     20909       179  OSM       H5F           -29.7908523376       19.6477184028      -11.5519226165  MEMB      179             0.0000000000
     20910       179  OSM       H5G           -30.0279041323       18.3234030544      -10.9344237473  MEMB      179             0.0000000000
     20911       179  OSM       C6F           -31.7756057798       19.3482159415      -10.3489870751  MEMB      179             0.0000000000
     20912       179  OSM       H6F           -32.4693726472       18.5721682204       -9.9872922155  MEMB      179             0.0000000000
     20913       179  OSM       H6G           -32.5114508728       19.9706561155      -10.8952237794  MEMB      179             0.0000000000
     20914       179  OSM       C7F           -31.0451690152       19.8337492364       -9.1237235314  MEMB      179             0.0000000000
     20915       179  OSM       H7F           -30.2766960717       20.3962311331       -9.6895241143  MEMB      179             0.0000000000
     20916       179  OSM       H7G           -30.2988888846       19.3518665936       -8.5060284448  MEMB      179             0.0000000000
     20917       179  OSM       C8F           -31.9823459311       20.4794303059       -8.1267021133  MEMB      179             0.0000000000
     20918       179  OSM       H8F           -32.8832398950       20.9722857265       -8.5726749272  MEMB      179             0.0000000000
     20919       179  OSM       H8G           -31.2891195172       21.2162928135       -7.6659081092  MEMB      179             0.0000000000
     20920       179  OSM       C9F           -32.5260516851       19.9192687186       -6.9589128241  MEMB      179             0.0000000000
     20921       179  OSM       H9F           -32.0432837421       20.3277804220       -6.0681711033  MEMB      179             0.0000000000
     20922       179  OSM       C10F          -33.6697976620       19.2815029297       -6.9642976532  MEMB      179             0.0000000000
     20923       179  OSM       H10F          -33.9016655605       18.8763133598       -5.9936832574  MEMB      179             0.0000000000
     20924       179  OSM       C11F          -34.6026010675       19.0077166326       -8.1332490136  MEMB      179             0.0000000000
     20925       179  OSM       H11F          -34.6151600791       17.9234146922       -8.3575666056  MEMB      179             0.0000000000
     20926       179  OSM       H11G          -34.3814911613       19.5380164141       -9.0924305202  MEMB      179             0.0000000000
     20927       179  OSM       C12F          -35.9923648018       19.4606853071       -7.7288310728  MEMB      179             0.0000000000
     20928       179  OSM       H12F          -36.6630411401       19.4834825465       -8.6154487645  MEMB      179             0.0000000000
     20929       179  OSM       H12G          -35.9268889597       20.5121008793       -7.3696606139  MEMB      179             0.0000000000
     20930       179  OSM       C13F          -36.5969605001       18.5133603985       -6.6946830082  MEMB      179             0.0000000000
     20931       179  OSM       H13F          -35.9484394999       18.3941759515       -5.7947854788  MEMB      179             0.0000000000
     20932       179  OSM       H13G          -36.8281041360       17.5277449366       -7.1416161109  MEMB      179             0.0000000000
     20933       179  OSM       C14F          -37.8751055388       19.0953843248       -6.2077941749  MEMB      179             0.0000000000
     20934       179  OSM       H14F          -38.4673879839       18.3362390007       -5.6454033342  MEMB      179             0.0000000000
     20935       179  OSM       H14G          -38.4706349355       19.3451456040       -7.1168126265  MEMB      179             0.0000000000
     20936       179  OSM       C15F          -37.4641946796       20.3279674375       -5.4049968243  MEMB      179             0.0000000000
     20937       179  OSM       H15F          -38.1601673384       21.1192364934       -5.3713285664  MEMB      179             0.0000000000
     20938       179  OSM       H15G          -36.9893322922       21.1295420698       -5.9786552623  MEMB      179             0.0000000000
     20939       179  OSM       C16F          -37.0061545578       20.0689245154       -3.9532645616  MEMB      179             0.0000000000
     20940       179  OSM       H16F          -37.0687204330       21.0360021392       -3.3938776692  MEMB      179             0.0000000000
     20941       179  OSM       H16G          -35.9469836439       19.7886581923       -4.0374307523  MEMB      179             0.0000000000
     20942       179  OSM       C17F          -37.6204485117       18.9105509122       -3.1031847460  MEMB      179             0.0000000000
     20943       179  OSM       H17F          -37.0401547480       19.0148389233       -2.1427333972  MEMB      179             0.0000000000
     20944       179  OSM       H17G          -37.6321043603       17.9403909251       -3.6102191101  MEMB      179             0.0000000000
     20945       179  OSM       C18F          -38.9509617033       18.9497812847       -2.4809476880  MEMB      179             0.0000000000
     20946       179  OSM       H18F          -38.9211041177       19.9451928225       -2.0814377934  MEMB      179             0.0000000000
     20947       179  OSM       H18G          -39.2924020168       18.2743446480       -1.7723078075  MEMB      179             0.0000000000
     20948       179  OSM       H18H          -39.9109434025       18.7965778301       -2.9694848639  MEMB      179             0.0000000000
     20949       180  SAPS      N             -28.3652645971      -27.0267774325      -22.3847826751  MEMB      180             0.0000000000
     20950       180  SAPS      HN1           -29.0155675039      -27.1695593673      -23.1861990842  MEMB      180             0.0000000000
     20951       180  SAPS      HN2           -27.5896711676      -26.4237752368      -22.7381042259  MEMB      180             0.0000000000
     20952       180  SAPS      HN3           -28.0245195598      -27.9250567762      -21.9976474540  MEMB      180             0.0000000000
     20953       180  SAPS      C12           -29.0573718190      -26.3412361076      -21.2479975940  MEMB      180             0.0000000000
     20954       180  SAPS      H12A          -28.3134003554      -26.2211280871      -20.4770992706  MEMB      180             0.0000000000
     20955       180  SAPS      C13           -29.6575290154      -24.9617498522      -21.6242014458  MEMB      180             0.0000000000
     20956       180  SAPS      O13A          -29.5411902454      -24.6095628373      -22.8284281136  MEMB      180             0.0000000000
     20957       180  SAPS      O13B          -30.2931970505      -24.2831072285      -20.7822777618  MEMB      180             0.0000000000
     20958       180  SAPS      C11           -30.1201543814      -27.2637242696      -20.6230533852  MEMB      180             0.0000000000
     20959       180  SAPS      H11A          -29.7590075729      -28.3197098745      -20.6343189704  MEMB      180             0.0000000000
     20960       180  SAPS      H11B          -31.0632307466      -27.2334045748      -21.2132473547  MEMB      180             0.0000000000
     20961       180  SAPS      P             -29.7581754436      -27.4716048244      -18.0168604534  MEMB      180             0.0000000000
     20962       180  SAPS      O13           -29.6118030316      -26.4761295567      -16.9372753704  MEMB      180             0.0000000000
     20963       180  SAPS      O14           -30.5230348430      -28.7052936585      -17.7643350197  MEMB      180             0.0000000000
     20964       180  SAPS      O12           -30.3900356463      -26.8180000027      -19.2967847464  MEMB      180             0.0000000000
     20965       180  SAPS      O11           -28.3235820441      -27.8572400864      -18.6074314851  MEMB      180             0.0000000000
     20966       180  SAPS      C1            -27.8465099398      -29.2054066518      -18.6133886255  MEMB      180             0.0000000000
     20967       180  SAPS      HA            -28.6720047909      -29.9480396977      -18.7935719490  MEMB      180             0.0000000000
     20968       180  SAPS      HB            -27.1078569889      -29.3264429547      -19.4155270705  MEMB      180             0.0000000000
     20969       180  SAPS      C2            -27.1253946288      -29.5984199813      -17.3218147255  MEMB      180             0.0000000000
     20970       180  SAPS      HS            -26.6350018539      -30.5706513551      -17.4335608528  MEMB      180             0.0000000000
     20971       180  SAPS      O21           -28.2117358546      -29.7974975940      -16.4928881599  MEMB      180             0.0000000000
     20972       180  SAPS      C21           -27.8609068322      -30.0219726975      -15.3401716140  MEMB      180             0.0000000000
     20973       180  SAPS      O22           -26.8231159722      -30.5744102576      -14.9585416912  MEMB      180             0.0000000000
     20974       180  SAPS      C22           -29.1144703297      -29.7638686735      -14.5787194724  MEMB      180             0.0000000000
     20975       180  SAPS      H2R           -30.1078720047      -30.0157735461      -14.9725860975  MEMB      180             0.0000000000
     20976       180  SAPS      H2S           -28.8486852102      -30.7042359085      -14.2154320340  MEMB      180             0.0000000000
     20977       180  SAPS      C3            -26.0815660681      -28.6128040731      -16.7078910572  MEMB      180             0.0000000000
     20978       180  SAPS      HX            -25.2979335769      -28.4377953157      -17.4608751820  MEMB      180             0.0000000000
     20979       180  SAPS      HY            -25.5629734987      -29.0158298981      -15.8131162190  MEMB      180             0.0000000000
     20980       180  SAPS      O31           -26.7626807509      -27.4585571400      -16.2540048512  MEMB      180             0.0000000000
     20981       180  SAPS      C31           -26.1281136627      -26.3393774942      -16.2509185043  MEMB      180             0.0000000000
     20982       180  SAPS      O32           -24.9833743096      -26.1504366191      -16.6519290288  MEMB      180             0.0000000000
     20983       180  SAPS      C32           -27.0453499841      -25.3403632705      -15.5576253678  MEMB      180             0.0000000000
     20984       180  SAPS      H2X           -27.8700229811      -25.8729015292      -15.0418488752  MEMB      180             0.0000000000
     20985       180  SAPS      H2Y           -27.4815472527      -24.6748017228      -16.3314789057  MEMB      180             0.0000000000
     20986       180  SAPS      C23           -29.0355389087      -28.8644146389      -13.3832614471  MEMB      180             0.0000000000
     20987       180  SAPS      H3R           -28.6669121358      -27.9239025415      -13.7855211475  MEMB      180             0.0000000000
     20988       180  SAPS      H3S           -28.1210582053      -29.1663768983      -12.9082480546  MEMB      180             0.0000000000
     20989       180  SAPS      C24           -30.3105408025      -28.7840477327      -12.4992471433  MEMB      180             0.0000000000
     20990       180  SAPS      H4R           -30.8192900039      -29.7082066400      -12.1821672417  MEMB      180             0.0000000000
     20991       180  SAPS      H4S           -31.0542417174      -28.3024086197      -13.1651435200  MEMB      180             0.0000000000
     20992       180  SAPS      C25           -30.1006778400      -28.0031277867      -11.2416774553  MEMB      180             0.0000000000
     20993       180  SAPS      H5R           -29.6937161809      -27.0107066076      -11.4366254891  MEMB      180             0.0000000000
     20994       180  SAPS      C26           -30.2577992322      -28.4175905097       -9.9634930982  MEMB      180             0.0000000000
     20995       180  SAPS      H6R           -30.1377191692      -27.7024195451       -9.1489339096  MEMB      180             0.0000000000
     20996       180  SAPS      C27           -30.6745400051      -29.7583658434       -9.4507388927  MEMB      180             0.0000000000
     20997       180  SAPS      H7R           -29.9540773679      -30.0187296704       -8.6304880905  MEMB      180             0.0000000000
     20998       180  SAPS      H7S           -30.5570180096      -30.3949326784      -10.3450278740  MEMB      180             0.0000000000
     20999       180  SAPS      C28           -31.9684425577      -30.4128497695       -9.2588021026  MEMB      180             0.0000000000
     21000       180  SAPS      H8R           -32.6345649207      -30.2135406590      -10.1022702075  MEMB      180             0.0000000000
     21001       180  SAPS      C29           -32.3264128515      -31.2187057891       -8.2577597929  MEMB      180             0.0000000000
     21002       180  SAPS      H9R           -33.3488920213      -31.6106759573       -8.2867362080  MEMB      180             0.0000000000
     21003       180  SAPS      C210          -31.4862317443      -31.6368279179       -7.0802006103  MEMB      180             0.0000000000
     21004       180  SAPS      H10R          -31.9367903371      -31.0754999301       -6.2270886949  MEMB      180             0.0000000000
     21005       180  SAPS      H10S          -30.4374893362      -31.2808520967       -7.0949534663  MEMB      180             0.0000000000
     21006       180  SAPS      C211          -31.4017219385      -33.1377441803       -6.9098273858  MEMB      180             0.0000000000
     21007       180  SAPS      H11R          -30.8586628935      -33.7652831327       -7.6030575178  MEMB      180             0.0000000000
     21008       180  SAPS      C212          -31.4984288473      -33.7032524385       -5.7361785737  MEMB      180             0.0000000000
     21009       180  SAPS      H12R          -31.7877578287      -34.7533081443       -5.5743692297  MEMB      180             0.0000000000
     21010       180  SAPS      C213          -31.7063496111      -32.9077196421       -4.5770603314  MEMB      180             0.0000000000
     21011       180  SAPS      H13R          -32.6708197655      -33.1963150859       -4.8749568472  MEMB      180             0.0000000000
     21012       180  SAPS      H13S          -31.9371706041      -31.8432571746       -4.5027757378  MEMB      180             0.0000000000
     21013       180  SAPS      C214          -31.2753663863      -33.4361306907       -3.3146917524  MEMB      180             0.0000000000
     21014       180  SAPS      H14R          -31.6777513751      -34.4683940243       -3.1743130576  MEMB      180             0.0000000000
     21015       180  SAPS      C215          -31.7378906271      -32.8862700644       -2.2554995377  MEMB      180             0.0000000000
     21016       180  SAPS      H15R          -31.4851673790      -33.7036617747       -1.5959629765  MEMB      180             0.0000000000
     21017       180  SAPS      C216          -32.7322795280      -31.7475511558       -1.7388422999  MEMB      180             0.0000000000
     21018       180  SAPS      H16R          -33.4571782981      -31.9302193313       -0.8814738450  MEMB      180             0.0000000000
     21019       180  SAPS      H16S          -33.5971666681      -31.4224597801       -2.3521092697  MEMB      180             0.0000000000
     21020       180  SAPS      C217          -32.0133705586      -30.7595506438       -0.9808393304  MEMB      180             0.0000000000
     21021       180  SAPS      H17R          -31.1774214156      -30.6926059371       -1.6914266189  MEMB      180             0.0000000000
     21022       180  SAPS      H17S          -31.7693459877      -31.0725483324        0.0562877502  MEMB      180             0.0000000000
     21023       180  SAPS      C218          -32.7159799382      -29.4948557690       -0.8105484271  MEMB      180             0.0000000000
     21024       180  SAPS      H18R          -31.9676363952      -28.8298006876       -0.3249469181  MEMB      180             0.0000000000
     21025       180  SAPS      H18S          -33.5927393588      -29.5747951757       -0.1346990775  MEMB      180             0.0000000000
     21026       180  SAPS      C219          -33.1030247412      -29.0721011081       -2.1724154317  MEMB      180             0.0000000000
     21027       180  SAPS      H19R          -33.9631208160      -29.6137268697       -2.6251231961  MEMB      180             0.0000000000
     21028       180  SAPS      H19S          -32.2728278258      -29.0771447217       -2.9246728165  MEMB      180             0.0000000000
     21029       180  SAPS      C220          -33.5114374271      -27.7133306590       -2.0423403386  MEMB      180             0.0000000000
     21030       180  SAPS      H20R          -32.6042105675      -27.0709674722       -2.0184466342  MEMB      180             0.0000000000
     21031       180  SAPS      H20S          -34.2078927063      -27.4109579832       -1.2262819113  MEMB      180             0.0000000000
     21032       180  SAPS      H20T          -34.0181117856      -27.6538738327       -3.0277976739  MEMB      180             0.0000000000
     21033       180  SAPS      C33           -26.2419332531      -24.5815793470      -14.5171816741  MEMB      180             0.0000000000
     21034       180  SAPS      H3X           -25.5686107534      -24.0014660229      -15.1433184208  MEMB      180             0.0000000000
     21035       180  SAPS      H3Y           -25.7047343432      -25.2341248493      -13.8036171357  MEMB      180             0.0000000000
     21036       180  SAPS      C34           -26.9953181071      -23.5496272928      -13.7388880729  MEMB      180             0.0000000000
     21037       180  SAPS      H4X           -27.8206451544      -23.2234714375      -14.3680129429  MEMB      180             0.0000000000
     21038       180  SAPS      H4Y           -26.3138553978      -22.7264836238      -13.4368465835  MEMB      180             0.0000000000
     21039       180  SAPS      C35           -27.8036689219      -24.0551596774      -12.6038626113  MEMB      180             0.0000000000
     21040       180  SAPS      H5X           -27.0980811415      -24.3358121224      -11.8067977499  MEMB      180             0.0000000000
     21041       180  SAPS      H5Y           -28.3796777131      -24.9227468273      -13.0048219539  MEMB      180             0.0000000000
     21042       180  SAPS      C36           -28.7863591150      -22.9757326826      -12.1856656787  MEMB      180             0.0000000000
     21043       180  SAPS      H6X           -29.2692634413      -22.6297022584      -13.1287361100  MEMB      180             0.0000000000
     21044       180  SAPS      H6Y           -28.2393564594      -22.1439532590      -11.6863687329  MEMB      180             0.0000000000
     21045       180  SAPS      C37           -29.9211755549      -23.5200050248      -11.3429223851  MEMB      180             0.0000000000
     21046       180  SAPS      H7X           -30.4608293358      -24.1904437717      -12.0457510133  MEMB      180             0.0000000000
     21047       180  SAPS      H7Y           -30.6221483091      -22.7120224089      -11.0388826220  MEMB      180             0.0000000000
     21048       180  SAPS      C38           -29.4540033979      -24.3623915757      -10.1522438716  MEMB      180             0.0000000000
     21049       180  SAPS      H8X           -28.9294243682      -25.2580117479      -10.5582770034  MEMB      180             0.0000000000
     21050       180  SAPS      H8Y           -30.3424367797      -24.7146741790       -9.5929995547  MEMB      180             0.0000000000
     21051       180  SAPS      C39           -28.4765377146      -23.6566117236       -9.2032242426  MEMB      180             0.0000000000
     21052       180  SAPS      H9X           -28.9402215489      -22.7809435917       -8.6982012614  MEMB      180             0.0000000000
     21053       180  SAPS      H9Y           -27.6408175543      -23.2896068255       -9.8379447202  MEMB      180             0.0000000000
     21054       180  SAPS      C310          -27.8869518913      -24.6024863813       -8.1478863253  MEMB      180             0.0000000000
     21055       180  SAPS      H10X          -27.0138967184      -24.1060852241       -7.6630163604  MEMB      180             0.0000000000
     21056       180  SAPS      H10Y          -27.5125934075      -25.5157543452       -8.6636732503  MEMB      180             0.0000000000
     21057       180  SAPS      C311          -28.8697595875      -24.9274871969       -7.0201218189  MEMB      180             0.0000000000
     21058       180  SAPS      H11X          -29.7778185555      -25.4703947781       -7.3710983683  MEMB      180             0.0000000000
     21059       180  SAPS      H11Y          -29.1750872378      -23.9959104245       -6.5038357601  MEMB      180             0.0000000000
     21060       180  SAPS      C312          -28.2888795756      -25.8364260813       -5.9693876160  MEMB      180             0.0000000000
     21061       180  SAPS      H12X          -27.2472093488      -25.5354102450       -5.6932085945  MEMB      180             0.0000000000
     21062       180  SAPS      H12Y          -28.2151705180      -26.7699158446       -6.5665100662  MEMB      180             0.0000000000
     21063       180  SAPS      C313          -29.2961542567      -25.9923741849       -4.7975837605  MEMB      180             0.0000000000
     21064       180  SAPS      H13X          -30.0550573540      -26.7523859651       -5.0856430656  MEMB      180             0.0000000000
     21065       180  SAPS      H13Y          -29.7500453116      -25.0417102785       -4.4748846259  MEMB      180             0.0000000000
     21066       180  SAPS      C314          -28.6705671454      -26.4991973023       -3.5480741397  MEMB      180             0.0000000000
     21067       180  SAPS      H14X          -27.7523203419      -25.8709283967       -3.3853272788  MEMB      180             0.0000000000
     21068       180  SAPS      H14Y          -28.4542414832      -27.5383048962       -3.9087830120  MEMB      180             0.0000000000
     21069       180  SAPS      C315          -29.3343125481      -26.6798677618       -2.1459929772  MEMB      180             0.0000000000
     21070       180  SAPS      H15X          -30.3524948605      -27.0510794238       -2.3625316606  MEMB      180             0.0000000000
     21071       180  SAPS      H15Y          -29.2952870429      -25.7090943314       -1.6233585936  MEMB      180             0.0000000000
     21072       180  SAPS      C316          -28.7512985076      -27.6860861629       -1.1024719664  MEMB      180             0.0000000000
     21073       180  SAPS      H16X          -29.0787105762      -27.5114941902       -0.0617455015  MEMB      180             0.0000000000
     21074       180  SAPS      H16Y          -27.6664399023      -27.4990194169       -0.9425498714  MEMB      180             0.0000000000
     21075       180  SAPS      C317          -29.1967379582      -29.0824504352       -1.5717800810  MEMB      180             0.0000000000
     21076       180  SAPS      H17X          -28.5974768496      -29.3232991676       -2.4830316318  MEMB      180             0.0000000000
     21077       180  SAPS      H17Y          -30.2010414058      -29.1240991869       -1.9375779431  MEMB      180             0.0000000000
     21078       180  SAPS      C318          -29.2362723321      -30.2044961023       -0.5678075926  MEMB      180             0.0000000000
     21079       180  SAPS      H18X          -29.2392640827      -29.9716506059        0.4998727005  MEMB      180             0.0000000000
     21080       180  SAPS      H18Y          -28.2426770837      -30.1905721816       -0.9016483219  MEMB      180             0.0000000000
     21081       180  SAPS      H18Z          -29.2090769708      -31.2946870222       -0.7460276466  MEMB      180             0.0000000000
     21082       181  CHL1      C3            -25.3235542437       31.1433893892      -17.4803204581  MEMB      181             0.0000000000
     21083       181  CHL1      H3            -25.8893368195       31.9375164594      -17.9816634615  MEMB      181             0.0000000000
     21084       181  CHL1      O3            -25.0311170932       30.4171557350      -18.6466198406  MEMB      181             0.0000000000
     21085       181  CHL1      H3'           -25.8920224926       30.3544574022      -19.0716948695  MEMB      181             0.0000000000
     21086       181  CHL1      C4            -23.9864169834       31.5491391349      -16.7573555098  MEMB      181             0.0000000000
     21087       181  CHL1      H4A           -23.4613811441       30.5812685273      -16.8019778720  MEMB      181             0.0000000000
     21088       181  CHL1      H4B           -23.4647278066       32.2610661036      -17.4368548602  MEMB      181             0.0000000000
     21089       181  CHL1      C5            -23.7977876778       31.9249651017      -15.2842706433  MEMB      181             0.0000000000
     21090       181  CHL1      C6            -23.0813215985       33.0713541006      -14.8744903113  MEMB      181             0.0000000000
     21091       181  CHL1      H6            -22.8957667702       33.8554335934      -15.6527314184  MEMB      181             0.0000000000
     21092       181  CHL1      C7            -23.2826147514       33.6961790110      -13.4772406890  MEMB      181             0.0000000000
     21093       181  CHL1      H7A           -22.4455989247       34.3129886343      -13.1268784553  MEMB      181             0.0000000000
     21094       181  CHL1      H7B           -23.7526565431       34.6753252406      -13.4387735994  MEMB      181             0.0000000000
     21095       181  CHL1      C8            -24.1021961366       32.7669465814      -12.4800052963  MEMB      181             0.0000000000
     21096       181  CHL1      H8            -23.3077057722       32.0354026047      -12.3024401785  MEMB      181             0.0000000000
     21097       181  CHL1      C14           -24.5458208438       33.4616366140      -11.1822507775  MEMB      181             0.0000000000
     21098       181  CHL1      H14           -25.4803746117       33.9924801139      -11.3620022302  MEMB      181             0.0000000000
     21099       181  CHL1      C15           -23.5780148346       34.4866491395      -10.5808947509  MEMB      181             0.0000000000
     21100       181  CHL1      H15A          -22.5488022114       34.1241763745      -10.7706471663  MEMB      181             0.0000000000
     21101       181  CHL1      H15B          -23.6912764332       35.4945699911      -11.0412764952  MEMB      181             0.0000000000
     21102       181  CHL1      C16           -23.9262578372       34.4941530114       -9.0870329091  MEMB      181             0.0000000000
     21103       181  CHL1      H16A          -23.0397416201       34.0997432938       -8.5426818555  MEMB      181             0.0000000000
     21104       181  CHL1      H16B          -24.1447213400       35.5100297869       -8.7161764889  MEMB      181             0.0000000000
     21105       181  CHL1      C17           -25.1315111515       33.5162519549       -8.8411388061  MEMB      181             0.0000000000
     21106       181  CHL1      H17           -26.0762461893       34.0942958346       -8.8912034157  MEMB      181             0.0000000000
     21107       181  CHL1      C13           -25.1313013556       32.5877210381      -10.0849865175  MEMB      181             0.0000000000
     21108       181  CHL1      C18           -24.1462085052       31.5298861162       -9.8384466692  MEMB      181             0.0000000000
     21109       181  CHL1      H18A          -24.4422800783       30.6956737886       -9.1891461283  MEMB      181             0.0000000000
     21110       181  CHL1      H18B          -23.8259922767       31.0474942615      -10.7808904658  MEMB      181             0.0000000000
     21111       181  CHL1      H18C          -23.2892043526       32.0534476050       -9.3705164431  MEMB      181             0.0000000000
     21112       181  CHL1      C12           -26.4312572161       31.9677504286      -10.6067377169  MEMB      181             0.0000000000
     21113       181  CHL1      H12A          -26.8446444250       31.2378301732       -9.8889107388  MEMB      181             0.0000000000
     21114       181  CHL1      H12B          -27.1628581437       32.7981240574      -10.7141097348  MEMB      181             0.0000000000
     21115       181  CHL1      C11           -26.2065385451       31.1884431972      -11.9389475430  MEMB      181             0.0000000000
     21116       181  CHL1      H11A          -25.7550318244       30.2062097756      -11.7421333664  MEMB      181             0.0000000000
     21117       181  CHL1      H11B          -27.2500643737       31.0432971515      -12.3240588711  MEMB      181             0.0000000000
     21118       181  CHL1      C9            -25.3278204710       31.9449387105      -13.0096015284  MEMB      181             0.0000000000
     21119       181  CHL1      H9            -26.1650939116       32.6557420432      -13.0670025159  MEMB      181             0.0000000000
     21120       181  CHL1      C10           -25.0030187809       31.2365925313      -14.4107342391  MEMB      181             0.0000000000
     21121       181  CHL1      C19           -24.3684293504       29.8938776493      -14.0720130750  MEMB      181             0.0000000000
     21122       181  CHL1      H19A          -23.9332689935       29.4369542167      -14.9883244606  MEMB      181             0.0000000000
     21123       181  CHL1      H19B          -23.5948970480       30.0602941750      -13.2971262531  MEMB      181             0.0000000000
     21124       181  CHL1      H19C          -25.1326594670       29.1967730711      -13.6739874017  MEMB      181             0.0000000000
     21125       181  CHL1      C1            -26.3800339742       30.8743208036      -15.1847656319  MEMB      181             0.0000000000
     21126       181  CHL1      H1A           -27.0070124441       30.2684438658      -14.5041087831  MEMB      181             0.0000000000
     21127       181  CHL1      H1B           -27.0968046183       31.6683759275      -15.4280888240  MEMB      181             0.0000000000
     21128       181  CHL1      C2            -26.2587852522       30.3033998237      -16.6093256416  MEMB      181             0.0000000000
     21129       181  CHL1      H2A           -27.2573235664       30.2580376142      -17.1201596251  MEMB      181             0.0000000000
     21130       181  CHL1      H2B           -25.8559750151       29.2811992887      -16.5226058278  MEMB      181             0.0000000000
     21131       181  CHL1      C20           -25.0291019026       32.8590835850       -7.4366441791  MEMB      181             0.0000000000
     21132       181  CHL1      H20           -24.0461331206       32.3349612768       -7.3948559455  MEMB      181             0.0000000000
     21133       181  CHL1      C21           -26.1670021910       31.8286198486       -7.2450250059  MEMB      181             0.0000000000
     21134       181  CHL1      H21A          -26.1417465438       31.3207855167       -6.2606842989  MEMB      181             0.0000000000
     21135       181  CHL1      H21B          -26.0991760415       31.0312771390       -8.0071786579  MEMB      181             0.0000000000
     21136       181  CHL1      H21C          -27.1465348302       32.3408927260       -7.3305907797  MEMB      181             0.0000000000
     21137       181  CHL1      C22           -25.0406478995       33.8687718130       -6.2477071961  MEMB      181             0.0000000000
     21138       181  CHL1      H22A          -24.5298494539       34.8191579405       -6.5112577688  MEMB      181             0.0000000000
     21139       181  CHL1      H22B          -26.1051063453       34.0883853268       -6.0228419469  MEMB      181             0.0000000000
     21140       181  CHL1      C23           -24.3755082335       33.3682095024       -4.9472154590  MEMB      181             0.0000000000
     21141       181  CHL1      H23A          -24.8446807024       32.4147092596       -4.6301125864  MEMB      181             0.0000000000
     21142       181  CHL1      H23B          -23.2923236678       33.1979375535       -5.1582308296  MEMB      181             0.0000000000
     21143       181  CHL1      C24           -24.4484072615       34.3658026737       -3.7757327276  MEMB      181             0.0000000000
     21144       181  CHL1      H24A          -23.8133377259       34.0084021159       -2.9357295277  MEMB      181             0.0000000000
     21145       181  CHL1      H24B          -24.0203528240       35.3315189564       -4.1345077510  MEMB      181             0.0000000000
     21146       181  CHL1      C25           -25.8452074899       34.6395892258       -3.1781585514  MEMB      181             0.0000000000
     21147       181  CHL1      H25           -26.5254727858       34.9047200072       -4.0178536084  MEMB      181             0.0000000000
     21148       181  CHL1      C26           -26.4722090590       33.4753146591       -2.3829279217  MEMB      181             0.0000000000
     21149       181  CHL1      H26A          -25.8219371135       33.1905823383       -1.5334972095  MEMB      181             0.0000000000
     21150       181  CHL1      H26B          -27.4357039105       33.8135889480       -1.9382886788  MEMB      181             0.0000000000
     21151       181  CHL1      H26C          -26.6601822426       32.5665388728       -2.9871336466  MEMB      181             0.0000000000
     21152       181  CHL1      C27           -25.7245340409       35.8378162273       -2.2282812011  MEMB      181             0.0000000000
     21153       181  CHL1      H27A          -26.6758054180       35.9840216868       -1.6752443717  MEMB      181             0.0000000000
     21154       181  CHL1      H27B          -24.9175758518       35.6573193863       -1.4872250085  MEMB      181             0.0000000000
     21155       181  CHL1      H27C          -25.4662509100       36.7581459693       -2.7917473744  MEMB      181             0.0000000000
     21156       182  CHL1      C3             29.2427418771      -28.3571567163      -17.3276317535  MEMB      182             0.0000000000
     21157       182  CHL1      H3             29.4128265410      -27.2620030593      -17.2036966874  MEMB      182             0.0000000000
     21158       182  CHL1      O3             29.1469875130      -28.6524330686      -18.7059508078  MEMB      182             0.0000000000
     21159       182  CHL1      H3'            28.5674906747      -27.9744450909      -19.0643343745  MEMB      182             0.0000000000
     21160       182  CHL1      C4             30.3813293888      -29.1495877295      -16.7062101165  MEMB      182             0.0000000000
     21161       182  CHL1      H4A            30.1533881011      -30.2219578663      -16.8715227465  MEMB      182             0.0000000000
     21162       182  CHL1      H4B            31.3325489725      -28.9225082721      -17.2229631152  MEMB      182             0.0000000000
     21163       182  CHL1      C5             30.4858711022      -28.8800998510      -15.2339142353  MEMB      182             0.0000000000
     21164       182  CHL1      C6             31.5942227646      -28.3411859609      -14.7049411107  MEMB      182             0.0000000000
     21165       182  CHL1      H6             32.4832609774      -28.1326647856      -15.3077149245  MEMB      182             0.0000000000
     21166       182  CHL1      C7             31.7423802689      -28.0237653950      -13.2718221544  MEMB      182             0.0000000000
     21167       182  CHL1      H7A            32.7577912874      -28.2350977048      -12.8800392461  MEMB      182             0.0000000000
     21168       182  CHL1      H7B            31.5339442657      -26.9466271187      -13.1994067892  MEMB      182             0.0000000000
     21169       182  CHL1      C8             30.7060555502      -28.7289049651      -12.4192956701  MEMB      182             0.0000000000
     21170       182  CHL1      H8             30.9602982120      -29.8021239408      -12.2904951158  MEMB      182             0.0000000000
     21171       182  CHL1      C14            30.7296154298      -28.0068085817      -11.0823549825  MEMB      182             0.0000000000
     21172       182  CHL1      H14            30.3952295096      -26.9525623009      -11.3288656276  MEMB      182             0.0000000000
     21173       182  CHL1      C15            32.0095572904      -27.7992762737      -10.3388011618  MEMB      182             0.0000000000
     21174       182  CHL1      H15A           32.4369357065      -28.7911634417      -10.3359211895  MEMB      182             0.0000000000
     21175       182  CHL1      H15B           32.5692121837      -27.0068883189      -10.8722854897  MEMB      182             0.0000000000
     21176       182  CHL1      C16            31.7781299161      -27.6227961871       -8.8362822040  MEMB      182             0.0000000000
     21177       182  CHL1      H16A           32.1290013644      -28.4367141926       -8.1849461893  MEMB      182             0.0000000000
     21178       182  CHL1      H16B           32.0943985617      -26.6096704285       -8.4834426381  MEMB      182             0.0000000000
     21179       182  CHL1      C17            30.2962661293      -27.8963249058       -8.7253081040  MEMB      182             0.0000000000
     21180       182  CHL1      H17            30.1827833043      -26.8184330637       -9.1050234542  MEMB      182             0.0000000000
     21181       182  CHL1      C13            29.8524984179      -28.6622844851      -10.0820559651  MEMB      182             0.0000000000
     21182       182  CHL1      C18            30.0713900022      -30.0554857439       -9.6407569163  MEMB      182             0.0000000000
     21183       182  CHL1      H18A           30.3268607636      -30.6529140635      -10.5228710977  MEMB      182             0.0000000000
     21184       182  CHL1      H18B           30.8643773912      -30.0833444854       -8.8727016925  MEMB      182             0.0000000000
     21185       182  CHL1      H18C           29.1185878561      -30.4082432809       -9.1857065917  MEMB      182             0.0000000000
     21186       182  CHL1      C12            28.5850446942      -28.6627055674      -10.9621722172  MEMB      182             0.0000000000
     21187       182  CHL1      H12A           27.6874442637      -29.1812242999      -10.5717465285  MEMB      182             0.0000000000
     21188       182  CHL1      H12B           28.5505276314      -27.5807020724      -11.1800589328  MEMB      182             0.0000000000
     21189       182  CHL1      C11            28.2345228195      -29.1862481124      -12.2685756391  MEMB      182             0.0000000000
     21190       182  CHL1      H11A           28.1045931831      -30.2711523278      -12.0391381120  MEMB      182             0.0000000000
     21191       182  CHL1      H11B           27.2215063247      -28.7430035836      -12.5482549425  MEMB      182             0.0000000000
     21192       182  CHL1      C9             29.3248137345      -28.6081777672      -13.0919198772  MEMB      182             0.0000000000
     21193       182  CHL1      H9             29.1237682780      -27.5029416966      -13.1446620521  MEMB      182             0.0000000000
     21194       182  CHL1      C10            29.1937195104      -29.1660472958      -14.4577677518  MEMB      182             0.0000000000
     21195       182  CHL1      C19            28.8709069402      -30.6610594930      -14.2576922498  MEMB      182             0.0000000000
     21196       182  CHL1      H19A           28.8246905644      -31.1094371972      -15.2558139336  MEMB      182             0.0000000000
     21197       182  CHL1      H19B           29.6779481811      -31.1155265893      -13.6304475569  MEMB      182             0.0000000000
     21198       182  CHL1      H19C           27.9034969330      -30.9421220329      -13.8072438876  MEMB      182             0.0000000000
     21199       182  CHL1      C1             27.9969244662      -28.4929219651      -15.1564152989  MEMB      182             0.0000000000
     21200       182  CHL1      H1A            27.0382933415      -28.7707537948      -14.6672085840  MEMB      182             0.0000000000
     21201       182  CHL1      H1B            28.1482533054      -27.4069218281      -15.0057923849  MEMB      182             0.0000000000
     21202       182  CHL1      C2             27.9511619514      -28.7907530196      -16.6558147552  MEMB      182             0.0000000000
     21203       182  CHL1      H2A            27.1155085693      -28.3098049222      -17.1249099950  MEMB      182             0.0000000000
     21204       182  CHL1      H2B            27.7362930156      -29.8469286891      -16.8808065257  MEMB      182             0.0000000000
     21205       182  CHL1      C20            29.6537670259      -28.1924018552       -7.0967455059  MEMB      182             0.0000000000
     21206       182  CHL1      H20            30.1097758675      -29.1207552981       -6.8234984972  MEMB      182             0.0000000000
     21207       182  CHL1      C21            28.0248454830      -28.5709192885       -6.6668921528  MEMB      182             0.0000000000
     21208       182  CHL1      H21A           27.5027587136      -29.2726060460       -7.3353822920  MEMB      182             0.0000000000
     21209       182  CHL1      H21B           27.1369288648      -27.9350857556       -6.9190920542  MEMB      182             0.0000000000
     21210       182  CHL1      H21C           27.5092185487      -28.0502910355       -5.8451458454  MEMB      182             0.0000000000
     21211       182  CHL1      C22            30.1185577971      -26.9354737501       -6.2583642981  MEMB      182             0.0000000000
     21212       182  CHL1      H22A           31.1626308254      -26.8195587145       -6.5299538959  MEMB      182             0.0000000000
     21213       182  CHL1      H22B           29.8138821211      -25.8859903810       -6.4364071989  MEMB      182             0.0000000000
     21214       182  CHL1      C23            29.8652347259      -27.0243636123       -4.7709094125  MEMB      182             0.0000000000
     21215       182  CHL1      H23A           28.8238021236      -27.0570925781       -4.4695145038  MEMB      182             0.0000000000
     21216       182  CHL1      H23B           30.2086661198      -28.0179363626       -4.4689687935  MEMB      182             0.0000000000
     21217       182  CHL1      C24            30.4153748134      -25.8315107940       -3.9952598595  MEMB      182             0.0000000000
     21218       182  CHL1      H24A           31.3847214770      -25.7135259411       -4.4344547936  MEMB      182             0.0000000000
     21219       182  CHL1      H24B           30.0351634384      -24.8134001755       -4.2261604377  MEMB      182             0.0000000000
     21220       182  CHL1      C25            30.3454693742      -26.1840888120       -2.4892960913  MEMB      182             0.0000000000
     21221       182  CHL1      H25            30.6812884971      -27.2280172832       -2.3548214045  MEMB      182             0.0000000000
     21222       182  CHL1      C26            31.0199826227      -25.2293198004       -1.5316597443  MEMB      182             0.0000000000
     21223       182  CHL1      H26A           32.0280102131      -25.5655461250       -1.3384778667  MEMB      182             0.0000000000
     21224       182  CHL1      H26B           31.0498038836      -24.2726479920       -2.0926621760  MEMB      182             0.0000000000
     21225       182  CHL1      H26C           30.7193968683      -25.1851197638       -0.4850520863  MEMB      182             0.0000000000
     21226       182  CHL1      C27            28.9550936453      -26.0340783936       -2.0630523988  MEMB      182             0.0000000000
     21227       182  CHL1      H27A           28.7878072709      -26.1765228057       -0.9847980504  MEMB      182             0.0000000000
     21228       182  CHL1      H27B           28.7805286899      -24.9629950001       -2.3458692329  MEMB      182             0.0000000000
     21229       182  CHL1      H27C           28.3216746012      -26.7478199231       -2.6120300525  MEMB      182             0.0000000000
     21230       183  OSM       N              24.7294962666       35.2729922664      -21.4643318655  MEMB      183             0.0000000000
     21231       183  OSM       C15            24.9380004473       35.5233689679      -22.9067422122  MEMB      183             0.0000000000
     21232       183  OSM       H15A           25.7765723472       36.2134534342      -23.0224631826  MEMB      183             0.0000000000
     21233       183  OSM       H15B           24.0577156935       35.9793904409      -23.3172556425  MEMB      183             0.0000000000
     21234       183  OSM       H15C           25.1861594852       34.6241599854      -23.4786132902  MEMB      183             0.0000000000
     21235       183  OSM       C14            26.0645017452       34.7927674763      -20.9578960793  MEMB      183             0.0000000000
     21236       183  OSM       H14A           26.0778210480       34.6151277117      -19.8926376765  MEMB      183             0.0000000000
     21237       183  OSM       H14B           26.8767330665       35.4376051045      -21.2754363789  MEMB      183             0.0000000000
     21238       183  OSM       H14C           26.2693851326       33.8103053906      -21.4102275008  MEMB      183             0.0000000000
     21239       183  OSM       C13            24.3195956500       36.5223358611      -20.7922162152  MEMB      183             0.0000000000
     21240       183  OSM       H13A           25.1479175667       37.2056466062      -20.6450854219  MEMB      183             0.0000000000
     21241       183  OSM       H13B           23.9234478970       36.2913116381      -19.8043227066  MEMB      183             0.0000000000
     21242       183  OSM       H13C           23.5470681202       37.0760459073      -21.3088026343  MEMB      183             0.0000000000
     21243       183  OSM       C12            23.6362199739       34.2649678035      -21.2462905919  MEMB      183             0.0000000000
     21244       183  OSM       H12A           22.6954289636       34.6951675869      -21.5793992659  MEMB      183             0.0000000000
     21245       183  OSM       H12B           23.5346481928       34.0733018058      -20.1766484888  MEMB      183             0.0000000000
     21246       183  OSM       C11            23.8561023382       32.9169677206      -21.9384279337  MEMB      183             0.0000000000
     21247       183  OSM       H11A           23.9332660029       33.0358539696      -23.0393784635  MEMB      183             0.0000000000
     21248       183  OSM       H11B           22.9660069683       32.2874934437      -21.7294093138  MEMB      183             0.0000000000
     21249       183  OSM       P              25.0008240056       31.2505413169      -20.3159046220  MEMB      183             0.0000000000
     21250       183  OSM       O13            24.0862728631       30.2154397406      -20.7044619780  MEMB      183             0.0000000000
     21251       183  OSM       O14            26.3263384410       30.8468465905      -19.8688501972  MEMB      183             0.0000000000
     21252       183  OSM       O11            24.2895686163       32.0576400572      -19.1530866897  MEMB      183             0.0000000000
     21253       183  OSM       O12            25.0529449763       32.3115735205      -21.4827071237  MEMB      183             0.0000000000
     21254       183  OSM       C1S            25.2000100938       32.3243336107      -18.0737641231  MEMB      183             0.0000000000
     21255       183  OSM       H1S            26.1978210957       32.6594254780      -18.4560517038  MEMB      183             0.0000000000
     21256       183  OSM       H1T            25.4047455439       31.3954780474      -17.4882619361  MEMB      183             0.0000000000
     21257       183  OSM       NF             25.4986322704       33.8613141538      -16.1540475903  MEMB      183             0.0000000000
     21258       183  OSM       HNF            25.0638185776       33.9300704073      -15.2682715119  MEMB      183             0.0000000000
     21259       183  OSM       C2S            24.6118159160       33.4506159923      -17.1957176229  MEMB      183             0.0000000000
     21260       183  OSM       H2S            24.4495912061       34.3275641954      -17.8660101641  MEMB      183             0.0000000000
     21261       183  OSM       C3S            23.2674449175       33.0226084740      -16.5718461475  MEMB      183             0.0000000000
     21262       183  OSM       H3S            23.4539438187       32.1599028750      -15.8975726933  MEMB      183             0.0000000000
     21263       183  OSM       O3             22.2520696427       32.6876383690      -17.5043501688  MEMB      183             0.0000000000
     21264       183  OSM       HO3            22.7654722160       32.3930826662      -18.2626100067  MEMB      183             0.0000000000
     21265       183  OSM       C4S            22.6598136532       34.0888639867      -15.7402821755  MEMB      183             0.0000000000
     21266       183  OSM       H4S            22.4433721352       35.0616692653      -16.2370960856  MEMB      183             0.0000000000
     21267       183  OSM       C5S            22.4656630533       33.9243070497      -14.4104523469  MEMB      183             0.0000000000
     21268       183  OSM       H5S            22.9801861322       33.1763404108      -13.8031107976  MEMB      183             0.0000000000
     21269       183  OSM       C6S            21.8552813826       34.9625301648      -13.5799055741  MEMB      183             0.0000000000
     21270       183  OSM       H6S            21.5938198719       34.7986844943      -12.4934434881  MEMB      183             0.0000000000
     21271       183  OSM       H6T            21.2015529058       35.6693337524      -14.1798460711  MEMB      183             0.0000000000
     21272       183  OSM       C7S            22.7606740081       35.9462153008      -13.4475521871  MEMB      183             0.0000000000
     21273       183  OSM       H7S            22.9738287912       36.2468979626      -14.5489925954  MEMB      183             0.0000000000
     21274       183  OSM       H7T            23.6587490989       35.5789590358      -12.9432438222  MEMB      183             0.0000000000
     21275       183  OSM       C8S            22.0449401851       36.9489950994      -12.5492609510  MEMB      183             0.0000000000
     21276       183  OSM       H8S            20.9661247333       36.9836338631      -12.7039222480  MEMB      183             0.0000000000
     21277       183  OSM       H8T            21.9899542254       37.6897030332      -13.4854474962  MEMB      183             0.0000000000
     21278       183  OSM       C9S            22.7069563671       37.3824423123      -10.9149151479  MEMB      183             0.0000000000
     21279       183  OSM       H9S            22.8387396041       38.4698445789      -10.4788734502  MEMB      183             0.0000000000
     21280       183  OSM       H9T            23.7865489098       37.2908461098      -10.7091298498  MEMB      183             0.0000000000
     21281       183  OSM       C10S           22.5378892000       36.6107547855       -9.7976887011  MEMB      183             0.0000000000
     21282       183  OSM       H10S           22.6300285406       35.6119070258      -10.1854600783  MEMB      183             0.0000000000
     21283       183  OSM       H10T           21.5976542244       37.0278756086       -9.8640607611  MEMB      183             0.0000000000
     21284       183  OSM       C11S           23.1950454527       37.1315809839       -8.5326423918  MEMB      183             0.0000000000
     21285       183  OSM       H11S           22.8947523254       38.2116185527       -8.3493393563  MEMB      183             0.0000000000
     21286       183  OSM       H11T           24.2875785123       37.1248166958       -8.6199610200  MEMB      183             0.0000000000
     21287       183  OSM       C12S           22.6396771006       36.0729137189       -7.5953972336  MEMB      183             0.0000000000
     21288       183  OSM       H12S           22.6797883400       35.0924091210       -8.0806678645  MEMB      183             0.0000000000
     21289       183  OSM       H12T           21.5708723628       35.8999330300       -7.6153623100  MEMB      183             0.0000000000
     21290       183  OSM       C13S           22.8410839628       36.3500533098       -6.1456862429  MEMB      183             0.0000000000
     21291       183  OSM       H13S           22.0711200806       35.8153148401       -5.5409335712  MEMB      183             0.0000000000
     21292       183  OSM       H13T           22.7951988092       37.3937125098       -5.7664371587  MEMB      183             0.0000000000
     21293       183  OSM       C14S           24.2598384269       36.2191625738       -5.8995790351  MEMB      183             0.0000000000
     21294       183  OSM       H14S           24.7847418507       37.0910991423       -6.3607639543  MEMB      183             0.0000000000
     21295       183  OSM       H14T           24.5143096340       35.2543790550       -6.3829310016  MEMB      183             0.0000000000
     21296       183  OSM       C15S           24.3994539069       36.2263184725       -4.4367136124  MEMB      183             0.0000000000
     21297       183  OSM       H15S           23.4718751514       35.6664621834       -4.1033533537  MEMB      183             0.0000000000
     21298       183  OSM       H15T           24.3134501412       37.2478602538       -4.0044096684  MEMB      183             0.0000000000
     21299       183  OSM       C16S           25.7251701466       35.5017250861       -4.1790978930  MEMB      183             0.0000000000
     21300       183  OSM       H16S           26.5568309494       36.0111459325       -4.6779911055  MEMB      183             0.0000000000
     21301       183  OSM       H16T           25.5225190217       34.4297407343       -4.4172422267  MEMB      183             0.0000000000
     21302       183  OSM       C17S           26.2189916700       35.3710808797       -2.8241314203  MEMB      183             0.0000000000
     21303       183  OSM       H17S           26.8337252082       36.2426823507       -2.4743102791  MEMB      183             0.0000000000
     21304       183  OSM       H17T           26.7171366255       34.4479579630       -2.4574663150  MEMB      183             0.0000000000
     21305       183  OSM       C18S           24.9109593787       35.1535312734       -2.3037717046  MEMB      183             0.0000000000
     21306       183  OSM       H18S           25.2608235674       35.9735565133       -1.6274615466  MEMB      183             0.0000000000
     21307       183  OSM       H18T           24.7174504749       34.1520828453       -1.8652244755  MEMB      183             0.0000000000
     21308       183  OSM       H18U           23.9337768100       35.6152850025       -2.3331872358  MEMB      183             0.0000000000
     21309       183  OSM       C1F            26.7360203501       34.2858726704      -16.3337095343  MEMB      183             0.0000000000
     21310       183  OSM       OF             27.2091680539       34.4813460311      -17.4502800809  MEMB      183             0.0000000000
     21311       183  OSM       C2F            27.4377312966       34.6494480222      -15.0658490614  MEMB      183             0.0000000000
     21312       183  OSM       H2F            26.6845300033       35.0017116208      -14.3356494482  MEMB      183             0.0000000000
     21313       183  OSM       H2G            28.1235204134       35.4925168285      -15.2986122952  MEMB      183             0.0000000000
     21314       183  OSM       C3F            28.2447232342       33.4881947827      -14.4701426354  MEMB      183             0.0000000000
     21315       183  OSM       H3F            28.9186199903       33.8792992981      -13.6768005435  MEMB      183             0.0000000000
     21316       183  OSM       H3G            28.9022561181       33.2128299736      -15.3204681001  MEMB      183             0.0000000000
     21317       183  OSM       C4F            27.4399226372       32.2729668162      -13.9346195071  MEMB      183             0.0000000000
     21318       183  OSM       H4F            28.1000841255       31.4027023355      -13.7566885886  MEMB      183             0.0000000000
     21319       183  OSM       H4G            26.7603929640       31.9115604843      -14.7330279722  MEMB      183             0.0000000000
     21320       183  OSM       C5F            26.6622105822       32.5237372110      -12.6216367811  MEMB      183             0.0000000000
     21321       183  OSM       H5F            26.1769242469       31.5773154196      -12.2966142791  MEMB      183             0.0000000000
     21322       183  OSM       H5G            25.8475783545       33.2491444893      -12.8207627807  MEMB      183             0.0000000000
     21323       183  OSM       C6F            27.4747170544       33.1220634588      -11.4550153368  MEMB      183             0.0000000000
     21324       183  OSM       H6F            27.6551711689       34.1920145815      -11.7062585071  MEMB      183             0.0000000000
     21325       183  OSM       H6G            28.4795703540       32.6753239094      -11.3449143974  MEMB      183             0.0000000000
     21326       183  OSM       C7F            26.7228420386       33.1303095532      -10.1034457648  MEMB      183             0.0000000000
     21327       183  OSM       H7F            25.6509395479       33.3431166950      -10.2588483785  MEMB      183             0.0000000000
     21328       183  OSM       H7G            27.1926024894       33.9560994879       -9.5186114610  MEMB      183             0.0000000000
     21329       183  OSM       C8F            26.8306313549       31.9020485267       -9.1918022643  MEMB      183             0.0000000000
     21330       183  OSM       H8F            26.4631404210       32.0611787505       -8.1640806099  MEMB      183             0.0000000000
     21331       183  OSM       H8G            27.9002650878       31.8894395004       -8.9476715846  MEMB      183             0.0000000000
     21332       183  OSM       C9F            26.2979650931       30.6041287100       -9.7547334218  MEMB      183             0.0000000000
     21333       183  OSM       H9F            26.6831377599       30.2904451450      -10.7359298664  MEMB      183             0.0000000000
     21334       183  OSM       C10F           25.2999063430       29.8629655070       -9.3543066537  MEMB      183             0.0000000000
     21335       183  OSM       H10F           25.1276929492       28.9288732452       -9.8922714868  MEMB      183             0.0000000000
     21336       183  OSM       C11F           24.4237720061       30.1859389836       -8.2116124121  MEMB      183             0.0000000000
     21337       183  OSM       H11F           23.4528140334       29.7153926224       -8.4522543733  MEMB      183             0.0000000000
     21338       183  OSM       H11G           24.2805364828       31.2857263068       -8.2005534891  MEMB      183             0.0000000000
     21339       183  OSM       C12F           24.8382972857       29.8133965367       -6.8056035308  MEMB      183             0.0000000000
     21340       183  OSM       H12F           25.8435646174       30.2133776174       -6.5475315620  MEMB      183             0.0000000000
     21341       183  OSM       H12G           24.8833952522       28.7061184066       -6.7579170587  MEMB      183             0.0000000000
     21342       183  OSM       C13F           23.8168710330       30.3743142481       -5.8228254740  MEMB      183             0.0000000000
     21343       183  OSM       H13F           22.8576518830       29.7899421497       -5.8904769963  MEMB      183             0.0000000000
     21344       183  OSM       H13G           23.6182161285       31.4618187906       -5.8663997501  MEMB      183             0.0000000000
     21345       183  OSM       C14F           24.2659702262       30.1743612582       -4.4171717833  MEMB      183             0.0000000000
     21346       183  OSM       H14F           24.4559575931       29.0880624280       -4.5009212095  MEMB      183             0.0000000000
     21347       183  OSM       H14G           23.3226505097       30.4643528656       -3.9011352749  MEMB      183             0.0000000000
     21348       183  OSM       C15F           25.4257407107       31.0075439269       -3.8181511609  MEMB      183             0.0000000000
     21349       183  OSM       H15F           25.1231980087       32.0541109330       -3.8498695647  MEMB      183             0.0000000000
     21350       183  OSM       H15G           26.2987516843       30.7455927060       -4.4536095890  MEMB      183             0.0000000000
     21351       183  OSM       C16F           25.9492579384       30.7869904437       -2.3794099073  MEMB      183             0.0000000000
     21352       183  OSM       H16F           25.1587996372       30.6920033973       -1.6575932067  MEMB      183             0.0000000000
     21353       183  OSM       H16G           26.5095746315       31.5248715295       -1.8096367096  MEMB      183             0.0000000000
     21354       183  OSM       C17F           26.6804915318       29.5148787447       -2.4345000102  MEMB      183             0.0000000000
     21355       183  OSM       H17F           26.1260879198       29.0883941957       -3.2594779069  MEMB      183             0.0000000000
     21356       183  OSM       H17G           26.6770323048       29.0013957772       -1.4402670247  MEMB      183             0.0000000000
     21357       183  OSM       C18F           28.0574956071       29.1474038503       -2.8626113324  MEMB      183             0.0000000000
     21358       183  OSM       H18F           28.5783208440       29.6177378205       -3.6111915281  MEMB      183             0.0000000000
     21359       183  OSM       H18G           28.5287622785       28.2469840789       -2.3760921047  MEMB      183             0.0000000000
     21360       183  OSM       H18H           28.1205633720       29.9760341435       -2.2744375659  MEMB      183             0.0000000000
     21361       184  CHL1      C3            -19.0747520551       36.8423678872      -17.3367977806  MEMB      184             0.0000000000
     21362       184  CHL1      H3            -20.0179988604       37.1978176573      -16.8539550555  MEMB      184             0.0000000000
     21363       184  CHL1      O3            -19.1753894588       37.0779794317      -18.7266817886  MEMB      184             0.0000000000
     21364       184  CHL1      H3'           -18.9173705022       37.9761689193      -18.9504354497  MEMB      184             0.0000000000
     21365       184  CHL1      C4            -17.8665744760       37.5196910366      -16.6642406630  MEMB      184             0.0000000000
     21366       184  CHL1      H4A           -16.9023659973       37.1892980264      -17.1117607910  MEMB      184             0.0000000000
     21367       184  CHL1      H4B           -17.9363107586       38.6154267048      -16.7906873129  MEMB      184             0.0000000000
     21368       184  CHL1      C5            -17.9414218779       37.1539772115      -15.2039963692  MEMB      184             0.0000000000
     21369       184  CHL1      C6            -18.0034345963       38.0883446915      -14.2641634136  MEMB      184             0.0000000000
     21370       184  CHL1      H6            -17.9254060435       39.1451314376      -14.5346067167  MEMB      184             0.0000000000
     21371       184  CHL1      C7            -18.1242133288       37.7716908851      -12.8238932806  MEMB      184             0.0000000000
     21372       184  CHL1      H7A           -17.3451512564       38.3707978721      -12.3093940606  MEMB      184             0.0000000000
     21373       184  CHL1      H7B           -19.0635919108       38.1362685000      -12.3871824488  MEMB      184             0.0000000000
     21374       184  CHL1      C8            -18.0051079282       36.2531477049      -12.5131320653  MEMB      184             0.0000000000
     21375       184  CHL1      H8            -17.0485249399       35.8615321909      -12.8442674874  MEMB      184             0.0000000000
     21376       184  CHL1      C14           -18.1905906823       35.9616369037      -11.0259790072  MEMB      184             0.0000000000
     21377       184  CHL1      H14           -19.2994589395       35.8421377489      -11.0144905449  MEMB      184             0.0000000000
     21378       184  CHL1      C15           -17.9428445846       36.9822513986       -9.9103763982  MEMB      184             0.0000000000
     21379       184  CHL1      H15A          -16.8931905492       37.1904718827       -9.7008756150  MEMB      184             0.0000000000
     21380       184  CHL1      H15B          -18.5128460323       37.9161897089      -10.0023890336  MEMB      184             0.0000000000
     21381       184  CHL1      C16           -18.1608326041       36.1909429407       -8.6475711517  MEMB      184             0.0000000000
     21382       184  CHL1      H16A          -17.2667178670       36.2966994275       -7.9710018145  MEMB      184             0.0000000000
     21383       184  CHL1      H16B          -19.0764068131       36.5601864950       -8.1610453092  MEMB      184             0.0000000000
     21384       184  CHL1      C17           -18.2643473525       34.7258318254       -9.1175459359  MEMB      184             0.0000000000
     21385       184  CHL1      H17           -19.3373434096       34.4899419483       -9.2904240711  MEMB      184             0.0000000000
     21386       184  CHL1      C13           -17.6222204522       34.6774704253      -10.4889725491  MEMB      184             0.0000000000
     21387       184  CHL1      C18           -16.0987576114       34.4921833657      -10.2705854833  MEMB      184             0.0000000000
     21388       184  CHL1      H18A          -15.8020149489       33.5952142780       -9.7069632615  MEMB      184             0.0000000000
     21389       184  CHL1      H18B          -15.7134874022       34.2304358902      -11.2478832578  MEMB      184             0.0000000000
     21390       184  CHL1      H18C          -15.5478485363       35.3484328747       -9.8307324584  MEMB      184             0.0000000000
     21391       184  CHL1      C12           -18.1811831293       33.6969862052      -11.4780340760  MEMB      184             0.0000000000
     21392       184  CHL1      H12A          -17.8742849030       32.7449836500      -11.0856478655  MEMB      184             0.0000000000
     21393       184  CHL1      H12B          -19.2848684083       33.7657957002      -11.4535492034  MEMB      184             0.0000000000
     21394       184  CHL1      C11           -17.8511426145       33.8421810098      -12.9732906159  MEMB      184             0.0000000000
     21395       184  CHL1      H11A          -16.7684270928       33.6111681595      -13.0567002248  MEMB      184             0.0000000000
     21396       184  CHL1      H11B          -18.3574041395       33.0914072985      -13.5991233799  MEMB      184             0.0000000000
     21397       184  CHL1      C9            -18.3999572686       35.2260578661      -13.4747885800  MEMB      184             0.0000000000
     21398       184  CHL1      H9            -19.4878645443       35.2622972422      -13.3839182108  MEMB      184             0.0000000000
     21399       184  CHL1      C10           -18.0186846120       35.6486232489      -14.9003859153  MEMB      184             0.0000000000
     21400       184  CHL1      C19           -16.6651725370       35.2041240415      -15.2816352264  MEMB      184             0.0000000000
     21401       184  CHL1      H19A          -15.8822998963       35.9522970252      -15.1106103169  MEMB      184             0.0000000000
     21402       184  CHL1      H19B          -16.2586723988       34.2822876964      -14.8228048381  MEMB      184             0.0000000000
     21403       184  CHL1      H19C          -16.5749771363       35.0741730874      -16.3839180009  MEMB      184             0.0000000000
     21404       184  CHL1      C1            -18.9607973879       34.8764800758      -15.7843456480  MEMB      184             0.0000000000
     21405       184  CHL1      H1A           -18.6795336010       33.8065506434      -15.7102997206  MEMB      184             0.0000000000
     21406       184  CHL1      H1B           -19.9632583444       35.0371453284      -15.3517283766  MEMB      184             0.0000000000
     21407       184  CHL1      C2            -18.9866916525       35.3282535148      -17.2255327871  MEMB      184             0.0000000000
     21408       184  CHL1      H2A           -19.8928123563       34.8973475139      -17.6929219849  MEMB      184             0.0000000000
     21409       184  CHL1      H2B           -18.0940314364       34.9649077473      -17.7822743143  MEMB      184             0.0000000000
     21410       184  CHL1      C20           -17.8025556692       33.8266670664       -8.0199675243  MEMB      184             0.0000000000
     21411       184  CHL1      H20           -16.7270955816       33.9914222943       -7.8154824239  MEMB      184             0.0000000000
     21412       184  CHL1      C21           -17.8681926088       32.4052970835       -8.5001964629  MEMB      184             0.0000000000
     21413       184  CHL1      H21A          -17.1654860677       32.2121349118       -9.3184351389  MEMB      184             0.0000000000
     21414       184  CHL1      H21B          -18.8520332135       32.2385494977       -8.9124816595  MEMB      184             0.0000000000
     21415       184  CHL1      H21C          -17.7118852875       31.6303785597       -7.7294937972  MEMB      184             0.0000000000
     21416       184  CHL1      C22           -18.7216525441       34.1689827219       -6.8079481580  MEMB      184             0.0000000000
     21417       184  CHL1      H22A          -18.6292211009       35.2210614802       -6.4860109810  MEMB      184             0.0000000000
     21418       184  CHL1      H22B          -19.7745910340       33.9248342515       -7.0644848483  MEMB      184             0.0000000000
     21419       184  CHL1      C23           -18.5317937526       33.4665066875       -5.4786535213  MEMB      184             0.0000000000
     21420       184  CHL1      H23A          -19.1517296763       33.8905585777       -4.6663638188  MEMB      184             0.0000000000
     21421       184  CHL1      H23B          -18.2919762767       32.3569760836       -5.6263548729  MEMB      184             0.0000000000
     21422       184  CHL1      C24           -17.3960333932       33.5866471975       -4.6203213290  MEMB      184             0.0000000000
     21423       184  CHL1      H24A          -17.1290753142       33.6452842317       -5.6585760614  MEMB      184             0.0000000000
     21424       184  CHL1      H24B          -17.0254299121       34.5319546988       -4.2389545711  MEMB      184             0.0000000000
     21425       184  CHL1      C25           -17.1439229090       32.4145258839       -3.6562537906  MEMB      184             0.0000000000
     21426       184  CHL1      H25           -17.1726539271       31.3345369670       -4.0015572281  MEMB      184             0.0000000000
     21427       184  CHL1      C26           -15.9032559121       32.4853160653       -3.1524442166  MEMB      184             0.0000000000
     21428       184  CHL1      H26A          -15.4577126951       32.0419464398       -4.0394438578  MEMB      184             0.0000000000
     21429       184  CHL1      H26B          -15.6193395976       33.5548802717       -2.9292234710  MEMB      184             0.0000000000
     21430       184  CHL1      H26C          -15.5031208810       31.8190888094       -2.3753766715  MEMB      184             0.0000000000
     21431       184  CHL1      C27           -17.5167092759       32.8953489028       -2.3258580553  MEMB      184             0.0000000000
     21432       184  CHL1      H27A          -17.4523006736       34.0011017681       -2.3409777093  MEMB      184             0.0000000000
     21433       184  CHL1      H27B          -18.5260335588       32.6232105151       -2.3972590938  MEMB      184             0.0000000000
     21434       184  CHL1      H27C          -16.9803743716       32.5011038317       -1.4069161076  MEMB      184             0.0000000000
     21435       185  SAPE      N              37.5109433282       21.1434065860      -19.3605451403  MEMB      185             0.0000000000
     21436       185  SAPE      HN1            38.2043883096       21.5187805688      -20.0389290827  MEMB      185             0.0000000000
     21437       185  SAPE      HN2            37.4787120488       21.7556446999      -18.5296339482  MEMB      185             0.0000000000
     21438       185  SAPE      HN3            37.7975950632       20.1599202646      -19.0823973328  MEMB      185             0.0000000000
     21439       185  SAPE      C12            36.1237070937       21.0794731423      -19.9457089007  MEMB      185             0.0000000000
     21440       185  SAPE      H12A           35.4377423809       20.8266429449      -19.1181590871  MEMB      185             0.0000000000
     21441       185  SAPE      H12B           36.0749803381       20.2524674223      -20.6740577047  MEMB      185             0.0000000000
     21442       185  SAPE      C11            35.6824084887       22.3685557215      -20.6506067082  MEMB      185             0.0000000000
     21443       185  SAPE      H11A           34.7370075463       22.0910016299      -21.1734618225  MEMB      185             0.0000000000
     21444       185  SAPE      H11B           36.4202956276       22.6700687967      -21.4229463755  MEMB      185             0.0000000000
     21445       185  SAPE      P              34.3162551061       24.4982942061      -20.0125962191  MEMB      185             0.0000000000
     21446       185  SAPE      O13            34.4195582233       25.5885933627      -19.0261610600  MEMB      185             0.0000000000
     21447       185  SAPE      O14            34.3133078432       24.7919542620      -21.4634249150  MEMB      185             0.0000000000
     21448       185  SAPE      O12            35.4840925995       23.4382788763      -19.7287446616  MEMB      185             0.0000000000
     21449       185  SAPE      O11            33.0187504572       23.6299823661      -19.7434949096  MEMB      185             0.0000000000
     21450       185  SAPE      C1             32.8541014866       22.8005617369      -18.5830403892  MEMB      185             0.0000000000
     21451       185  SAPE      HA             32.6622304785       21.7542922139      -18.8887101937  MEMB      185             0.0000000000
     21452       185  SAPE      HB             33.7237495884       22.8777662933      -17.8920079654  MEMB      185             0.0000000000
     21453       185  SAPE      C2             31.6393483673       23.1800158436      -17.7337776522  MEMB      185             0.0000000000
     21454       185  SAPE      HS             30.7364986544       23.0523624171      -18.3827569242  MEMB      185             0.0000000000
     21455       185  SAPE      O21            31.8751768352       24.5283179560      -17.4050649740  MEMB      185             0.0000000000
     21456       185  SAPE      C21            30.7535003232       24.9878101970      -17.0824003021  MEMB      185             0.0000000000
     21457       185  SAPE      O22            29.6768992479       24.4152247243      -17.0561304243  MEMB      185             0.0000000000
     21458       185  SAPE      C22            30.9962538174       26.3027969870      -16.6530559113  MEMB      185             0.0000000000
     21459       185  SAPE      H2R            31.9650411602       26.7960782229      -16.8901324954  MEMB      185             0.0000000000
     21460       185  SAPE      H2S            30.1593796049       26.8291000739      -17.1592697363  MEMB      185             0.0000000000
     21461       185  SAPE      C3             31.4025431376       22.3327418075      -16.4444024394  MEMB      185             0.0000000000
     21462       185  SAPE      HX             31.1674533776       21.3092159330      -16.8022760860  MEMB      185             0.0000000000
     21463       185  SAPE      HY             30.5241495298       22.6628641829      -15.8466510695  MEMB      185             0.0000000000
     21464       185  SAPE      O31            32.5297236628       22.4400760596      -15.5802163221  MEMB      185             0.0000000000
     21465       185  SAPE      C31            33.2639701588       21.3954358960      -15.4693807217  MEMB      185             0.0000000000
     21466       185  SAPE      O32            33.0627590555       20.2721656588      -15.9094364271  MEMB      185             0.0000000000
     21467       185  SAPE      C32            34.4977074039       21.8923313828      -14.7252670446  MEMB      185             0.0000000000
     21468       185  SAPE      H2X            34.2342820387       22.0101036257      -13.6546060683  MEMB      185             0.0000000000
     21469       185  SAPE      H2Y            34.8570481389       22.8198198936      -15.1971746117  MEMB      185             0.0000000000
     21470       185  SAPE      C23            31.0412674212       26.0628671049      -15.1605137615  MEMB      185             0.0000000000
     21471       185  SAPE      H3R            30.0712341005       25.9296068508      -14.6420506053  MEMB      185             0.0000000000
     21472       185  SAPE      H3S            31.3536422755       27.0686787907      -15.0362372222  MEMB      185             0.0000000000
     21473       185  SAPE      C24            32.4059436088       25.9239278648      -14.4489984922  MEMB      185             0.0000000000
     21474       185  SAPE      H4R            33.1224340455       26.6081549090      -14.9443268676  MEMB      185             0.0000000000
     21475       185  SAPE      H4S            32.5327033856       24.8558716196      -14.6271979563  MEMB      185             0.0000000000
     21476       185  SAPE      C25            32.8113947639       26.2313460570      -13.0564828116  MEMB      185             0.0000000000
     21477       185  SAPE      H5R            33.3807244099       27.0739130863      -12.6887758420  MEMB      185             0.0000000000
     21478       185  SAPE      C26            32.2165755269       25.7444466290      -12.0896881928  MEMB      185             0.0000000000
     21479       185  SAPE      H6R            32.3094984918       26.3790175373      -11.2002799540  MEMB      185             0.0000000000
     21480       185  SAPE      C27            31.1106506456       24.8829279386      -12.3155464397  MEMB      185             0.0000000000
     21481       185  SAPE      H7R            30.2264054029       25.1708884591      -12.8905232964  MEMB      185             0.0000000000
     21482       185  SAPE      H7S            30.8136797886       25.5126939180      -11.4273506344  MEMB      185             0.0000000000
     21483       185  SAPE      C28            31.2632469866       23.3864612826      -12.6788068744  MEMB      185             0.0000000000
     21484       185  SAPE      H8R            30.9593468108       23.4799704547      -13.7293479234  MEMB      185             0.0000000000
     21485       185  SAPE      C29            31.0718052171       22.0921243144      -12.1860833936  MEMB      185             0.0000000000
     21486       185  SAPE      H9R            30.9722110419       21.3053731465      -12.9388314359  MEMB      185             0.0000000000
     21487       185  SAPE      C210           30.5277860889       21.4552585260      -10.8691266742  MEMB      185             0.0000000000
     21488       185  SAPE      H10R           29.4799851606       21.0597457175      -10.7815010030  MEMB      185             0.0000000000
     21489       185  SAPE      H10S           30.2271443259       22.0133066853      -10.0448297267  MEMB      185             0.0000000000
     21490       185  SAPE      C211           31.6041253266       20.7240166881      -10.2741019941  MEMB      185             0.0000000000
     21491       185  SAPE      H11R           31.9252877735       19.9722726557      -10.9922421909  MEMB      185             0.0000000000
     21492       185  SAPE      C212           32.0172467790       20.7772865110       -9.0017295691  MEMB      185             0.0000000000
     21493       185  SAPE      H12R           32.7122102964       19.9704253697       -8.7850155100  MEMB      185             0.0000000000
     21494       185  SAPE      C213           31.5149365801       21.5752823063       -7.7785536097  MEMB      185             0.0000000000
     21495       185  SAPE      H13R           30.6166822558       22.1315139391       -7.9845947339  MEMB      185             0.0000000000
     21496       185  SAPE      H13S           32.3783043088       22.2194065808       -7.5897608035  MEMB      185             0.0000000000
     21497       185  SAPE      C214           30.9219696026       21.1207138999       -6.4516055332  MEMB      185             0.0000000000
     21498       185  SAPE      H14R           30.0278968512       20.4927042641       -6.4561028008  MEMB      185             0.0000000000
     21499       185  SAPE      C215           31.6385695708       20.8735948313       -5.4067358874  MEMB      185             0.0000000000
     21500       185  SAPE      H15R           31.3358426470       20.1091393476       -4.6649739330  MEMB      185             0.0000000000
     21501       185  SAPE      C216           33.0629796786       21.0298719616       -5.5042332792  MEMB      185             0.0000000000
     21502       185  SAPE      H16R           33.5008312996       21.9760751800       -5.8309811537  MEMB      185             0.0000000000
     21503       185  SAPE      H16S           33.4411583253       20.1808355616       -6.1443193260  MEMB      185             0.0000000000
     21504       185  SAPE      C217           33.4297067762       20.8452651402       -4.0728968408  MEMB      185             0.0000000000
     21505       185  SAPE      H17R           34.4055357215       21.2051307605       -3.7534072548  MEMB      185             0.0000000000
     21506       185  SAPE      H17S           33.6113149634       19.7877943371       -4.3389989086  MEMB      185             0.0000000000
     21507       185  SAPE      C218           32.7305820973       21.5795233144       -2.9107198390  MEMB      185             0.0000000000
     21508       185  SAPE      H18R           31.6613274820       21.4206467182       -3.0811764266  MEMB      185             0.0000000000
     21509       185  SAPE      H18S           33.1440441635       22.5969328860       -3.0970560176  MEMB      185             0.0000000000
     21510       185  SAPE      C219           32.9353335457       21.4526302442       -1.3738477720  MEMB      185             0.0000000000
     21511       185  SAPE      H19R           32.4762723346       22.2418413061       -0.7662016337  MEMB      185             0.0000000000
     21512       185  SAPE      H19S           33.9641076966       21.2878136506       -0.9770819156  MEMB      185             0.0000000000
     21513       185  SAPE      C220           32.1372879006       20.3725463721       -0.8550697901  MEMB      185             0.0000000000
     21514       185  SAPE      H20R           31.1348929476       20.1528499045       -1.3038383036  MEMB      185             0.0000000000
     21515       185  SAPE      H20S           32.3459365012       20.0359241567        0.1693136958  MEMB      185             0.0000000000
     21516       185  SAPE      H20T           32.7333539797       19.5646544013       -1.1980960721  MEMB      185             0.0000000000
     21517       185  SAPE      C33            35.5874394198       20.8875971605      -14.8250960430  MEMB      185             0.0000000000
     21518       185  SAPE      H3X            35.7148285409       20.6077578577      -15.9094406692  MEMB      185             0.0000000000
     21519       185  SAPE      H3Y            35.1376907594       20.1190402025      -14.1651293592  MEMB      185             0.0000000000
     21520       185  SAPE      C34            36.9361439442       21.1207166120      -14.2547970708  MEMB      185             0.0000000000
     21521       185  SAPE      H4X            37.6238293595       20.2395829320      -14.1982801871  MEMB      185             0.0000000000
     21522       185  SAPE      H4Y            36.7850320020       21.4145587632      -13.2003369228  MEMB      185             0.0000000000
     21523       185  SAPE      C35            37.5151139528       22.1587276527      -15.1611153442  MEMB      185             0.0000000000
     21524       185  SAPE      H5X            36.8167526925       22.8158162326      -15.6954496917  MEMB      185             0.0000000000
     21525       185  SAPE      H5Y            38.1089677650       21.6429667910      -15.9483905693  MEMB      185             0.0000000000
     21526       185  SAPE      C36            38.2602056087       23.0889137345      -14.3132953212  MEMB      185             0.0000000000
     21527       185  SAPE      H6X            38.9595598987       23.7088976604      -14.9300718626  MEMB      185             0.0000000000
     21528       185  SAPE      H6Y            38.8422585438       22.4674345123      -13.5566271501  MEMB      185             0.0000000000
     21529       185  SAPE      C37            37.5618450747       24.1924796551      -13.6468700622  MEMB      185             0.0000000000
     21530       185  SAPE      H7X            36.4805797572       24.0645966127      -13.6948343220  MEMB      185             0.0000000000
     21531       185  SAPE      H7Y            38.0910605036       25.1604076690      -13.8764305813  MEMB      185             0.0000000000
     21532       185  SAPE      C38            37.7539010915       23.8845694276      -12.2602199442  MEMB      185             0.0000000000
     21533       185  SAPE      H8X            38.7700688352       23.9309282413      -12.1667093943  MEMB      185             0.0000000000
     21534       185  SAPE      H8Y            37.5436842515       22.8403863121      -12.0129156530  MEMB      185             0.0000000000
     21535       185  SAPE      C39            37.3688819594       24.8051030608      -11.2369616672  MEMB      185             0.0000000000
     21536       185  SAPE      H9X            37.8223638693       25.7659309266      -11.3152211840  MEMB      185             0.0000000000
     21537       185  SAPE      H9Y            37.6185563806       24.3748749138      -10.2722886558  MEMB      185             0.0000000000
     21538       185  SAPE      C310           35.9853806046       24.6610309784      -11.0313837788  MEMB      185             0.0000000000
     21539       185  SAPE      H10X           35.8388400041       23.5586963968      -11.1686021742  MEMB      185             0.0000000000
     21540       185  SAPE      H10Y           35.5612601672       25.2556431638      -11.8546576878  MEMB      185             0.0000000000
     21541       185  SAPE      C311           35.7095168879       24.9746125370       -9.5993719483  MEMB      185             0.0000000000
     21542       185  SAPE      H11X           36.1234773174       25.9428608753       -9.2304205995  MEMB      185             0.0000000000
     21543       185  SAPE      H11Y           36.1022229647       24.1844524408       -8.9025860228  MEMB      185             0.0000000000
     21544       185  SAPE      C312           34.2676187515       25.0265744007       -9.5422584304  MEMB      185             0.0000000000
     21545       185  SAPE      H12X           33.8232179533       24.0881985627      -10.0162621230  MEMB      185             0.0000000000
     21546       185  SAPE      H12Y           33.9164818050       25.8688189214      -10.1575665028  MEMB      185             0.0000000000
     21547       185  SAPE      C313           34.0168467527       25.2474228337       -8.0470986527  MEMB      185             0.0000000000
     21548       185  SAPE      H13X           33.8732005800       24.1947628630       -7.6943184992  MEMB      185             0.0000000000
     21549       185  SAPE      H13Y           33.0541273054       25.6486204113       -8.1763452283  MEMB      185             0.0000000000
     21550       185  SAPE      C314           33.9614002605       26.6429977207       -7.2330080605  MEMB      185             0.0000000000
     21551       185  SAPE      H14X           33.7905180773       27.4217803029       -8.0375626315  MEMB      185             0.0000000000
     21552       185  SAPE      H14Y           34.8352769597       26.8108074989       -6.6686650703  MEMB      185             0.0000000000
     21553       185  SAPE      C315           33.1737433225       27.1042379466       -5.8828566997  MEMB      185             0.0000000000
     21554       185  SAPE      H15X           32.3200057967       27.0679540813       -6.4384849033  MEMB      185             0.0000000000
     21555       185  SAPE      H15Y           33.3350542906       28.1555659235       -5.5720671702  MEMB      185             0.0000000000
     21556       185  SAPE      C316           32.7940454672       26.3378325509       -4.5967074171  MEMB      185             0.0000000000
     21557       185  SAPE      H16X           33.6314662658       25.7654175189       -4.3724127344  MEMB      185             0.0000000000
     21558       185  SAPE      H16Y           32.5690401203       25.2999098538       -4.5027840419  MEMB      185             0.0000000000
     21559       185  SAPE      C317           31.8830763695       26.7715252924       -3.5096574582  MEMB      185             0.0000000000
     21560       185  SAPE      H17X           30.8822406768       26.8684238863       -4.0484821172  MEMB      185             0.0000000000
     21561       185  SAPE      H17Y           32.3341284752       27.7389146695       -3.3180167619  MEMB      185             0.0000000000
     21562       185  SAPE      C318           32.1409925422       25.5763739011       -2.5049922880  MEMB      185             0.0000000000
     21563       185  SAPE      H18X           33.1514790025       25.1300203507       -2.4598004536  MEMB      185             0.0000000000
     21564       185  SAPE      H18Y           31.9369701802       24.5749899175       -2.9436999151  MEMB      185             0.0000000000
     21565       185  SAPE      H18Z           31.5705405928       25.6302556776       -1.5767500762  MEMB      185             0.0000000000
     21566       186  SAPE      N             -40.1129190989      -23.8065573035      -22.3680016960  MEMB      186             0.0000000000
     21567       186  SAPE      HN1           -40.7214198752      -23.4040441982      -21.6217468539  MEMB      186             0.0000000000
     21568       186  SAPE      HN2           -40.1781432633      -23.2170721065      -23.2171351583  MEMB      186             0.0000000000
     21569       186  SAPE      HN3           -40.5418389292      -24.7147158661      -22.6363826707  MEMB      186             0.0000000000
     21570       186  SAPE      C12           -38.6903903819      -24.0059482453      -21.9061522987  MEMB      186             0.0000000000
     21571       186  SAPE      H12A          -38.1046803779      -23.0917861760      -22.1172692036  MEMB      186             0.0000000000
     21572       186  SAPE      H12B          -38.2355369264      -24.8040811614      -22.5190964092  MEMB      186             0.0000000000
     21573       186  SAPE      C11           -38.6292275985      -24.3956071884      -20.4275104062  MEMB      186             0.0000000000
     21574       186  SAPE      H11A          -38.7345060012      -25.4997363696      -20.3285405988  MEMB      186             0.0000000000
     21575       186  SAPE      H11B          -39.4682472463      -23.9418609490      -19.8526337462  MEMB      186             0.0000000000
     21576       186  SAPE      P             -37.1704475331      -22.6771042457      -19.0650594350  MEMB      186             0.0000000000
     21577       186  SAPE      O13           -36.2685585466      -21.7840489304      -19.8327169900  MEMB      186             0.0000000000
     21578       186  SAPE      O14           -38.4975625059      -22.1478120817      -18.6874075520  MEMB      186             0.0000000000
     21579       186  SAPE      O12           -37.3703149219      -24.0107166303      -19.9062543160  MEMB      186             0.0000000000
     21580       186  SAPE      O11           -36.4454508265      -23.2985806706      -17.8371271947  MEMB      186             0.0000000000
     21581       186  SAPE      C1            -35.2204638969      -24.0168615199      -17.9372846135  MEMB      186             0.0000000000
     21582       186  SAPE      HA            -35.3577668842      -25.0952679718      -18.1354147937  MEMB      186             0.0000000000
     21583       186  SAPE      HB            -34.4974774520      -23.5803682648      -18.6841355068  MEMB      186             0.0000000000
     21584       186  SAPE      C2            -34.5616006230      -23.8650075837      -16.5759295408  MEMB      186             0.0000000000
     21585       186  SAPE      HS            -33.6794344296      -24.5953737672      -16.5590525288  MEMB      186             0.0000000000
     21586       186  SAPE      O21           -35.2816520781      -23.8185429571      -15.3577738826  MEMB      186             0.0000000000
     21587       186  SAPE      C21           -35.7396245738      -24.8131275551      -15.1776419172  MEMB      186             0.0000000000
     21588       186  SAPE      O22           -35.3085516521      -25.7972411595      -15.7424799391  MEMB      186             0.0000000000
     21589       186  SAPE      C22           -36.8725295329      -24.5826017622      -14.1546888931  MEMB      186             0.0000000000
     21590       186  SAPE      H2R           -37.3868585551      -23.6735315379      -14.4049712578  MEMB      186             0.0000000000
     21591       186  SAPE      H2S           -37.6797750665      -25.3209799605      -14.2678846539  MEMB      186             0.0000000000
     21592       186  SAPE      C3            -33.9807131539      -22.6877817478      -16.4031031859  MEMB      186             0.0000000000
     21593       186  SAPE      HX            -32.9898441208      -22.6908617018      -16.6041521728  MEMB      186             0.0000000000
     21594       186  SAPE      HY            -33.5050675982      -22.7960393540      -15.3850418810  MEMB      186             0.0000000000
     21595       186  SAPE      O31           -34.8012657246      -21.5132674493      -16.7893026184  MEMB      186             0.0000000000
     21596       186  SAPE      C31           -35.5866240276      -21.1024285240      -15.8054516545  MEMB      186             0.0000000000
     21597       186  SAPE      O32           -35.6778772223      -21.6423551678      -14.7400163633  MEMB      186             0.0000000000
     21598       186  SAPE      C32           -36.0800605884      -19.7153589468      -16.0191007998  MEMB      186             0.0000000000
     21599       186  SAPE      H2X           -37.0229139744      -20.0188739050      -16.5164536402  MEMB      186             0.0000000000
     21600       186  SAPE      H2Y           -35.3986462869      -19.0885901344      -16.6126822409  MEMB      186             0.0000000000
     21601       186  SAPE      C23           -36.4615775810      -24.8213857495      -12.7050750345  MEMB      186             0.0000000000
     21602       186  SAPE      H3R           -35.7519136100      -25.5607394646      -12.9950985394  MEMB      186             0.0000000000
     21603       186  SAPE      H3S           -37.3154632639      -25.2397703501      -12.1234491604  MEMB      186             0.0000000000
     21604       186  SAPE      C24           -35.4263479836      -24.1072671549      -11.8559599089  MEMB      186             0.0000000000
     21605       186  SAPE      H4R           -35.7141437395      -24.3937411334      -10.8115129064  MEMB      186             0.0000000000
     21606       186  SAPE      H4S           -35.7315554978      -23.0836364657      -12.1026403429  MEMB      186             0.0000000000
     21607       186  SAPE      C25           -33.9402630714      -24.3850410901      -12.1012435584  MEMB      186             0.0000000000
     21608       186  SAPE      H5R           -33.6148649629      -24.2025032975      -13.1394672253  MEMB      186             0.0000000000
     21609       186  SAPE      C26           -33.0625132394      -25.0150651461      -11.2828574059  MEMB      186             0.0000000000
     21610       186  SAPE      H6R           -32.0152427301      -25.0617063962      -11.5457720681  MEMB      186             0.0000000000
     21611       186  SAPE      C27           -33.2441243156      -25.6152721391       -9.9310255964  MEMB      186             0.0000000000
     21612       186  SAPE      H7R           -34.1648167634      -25.0978270923       -9.5570113153  MEMB      186             0.0000000000
     21613       186  SAPE      H7S           -32.4667256744      -25.2767937600       -9.2186989856  MEMB      186             0.0000000000
     21614       186  SAPE      C28           -33.1717371116      -27.1581465346       -9.9054910472  MEMB      186             0.0000000000
     21615       186  SAPE      H8R           -32.6433136364      -27.7094502069      -10.6808219195  MEMB      186             0.0000000000
     21616       186  SAPE      C29           -33.6834662020      -27.9342112866       -8.8986851044  MEMB      186             0.0000000000
     21617       186  SAPE      H9R           -34.2166820080      -28.8976748331       -9.2275899385  MEMB      186             0.0000000000
     21618       186  SAPE      C210          -34.3412589791      -27.1553639513       -7.7848050055  MEMB      186             0.0000000000
     21619       186  SAPE      H10R          -35.0162814098      -27.3315157270       -8.6842066518  MEMB      186             0.0000000000
     21620       186  SAPE      H10S          -34.6090150360      -26.1250645954       -8.0610695881  MEMB      186             0.0000000000
     21621       186  SAPE      C211          -34.9040457231      -27.3419802380       -6.2101239521  MEMB      186             0.0000000000
     21622       186  SAPE      H11R          -35.0708121208      -28.4735987374       -6.1359422008  MEMB      186             0.0000000000
     21623       186  SAPE      C212          -36.0783420612      -26.7693745746       -5.4757978209  MEMB      186             0.0000000000
     21624       186  SAPE      H12R          -36.2665963810      -27.1293416372       -4.4400945862  MEMB      186             0.0000000000
     21625       186  SAPE      C213          -37.4081175588      -25.7605413835       -5.7495458388  MEMB      186             0.0000000000
     21626       186  SAPE      H13R          -37.3818166365      -25.1809574524       -6.6927544162  MEMB      186             0.0000000000
     21627       186  SAPE      H13S          -37.3312268881      -24.9046465119       -5.1004285439  MEMB      186             0.0000000000
     21628       186  SAPE      C214          -38.9565342680      -26.0610310617       -6.0612062405  MEMB      186             0.0000000000
     21629       186  SAPE      H14R          -39.3793687422      -26.1449310895       -7.0910514900  MEMB      186             0.0000000000
     21630       186  SAPE      C215          -39.8997273357      -26.3801800779       -5.1944523908  MEMB      186             0.0000000000
     21631       186  SAPE      H15R          -40.8581517277      -26.8377263699       -5.4574283454  MEMB      186             0.0000000000
     21632       186  SAPE      C216          -39.5883967264      -26.4890461512       -3.7742446149  MEMB      186             0.0000000000
     21633       186  SAPE      H16R          -38.5080869103      -26.4666996539       -3.5995052052  MEMB      186             0.0000000000
     21634       186  SAPE      H16S          -40.1584309631      -27.3253449218       -3.3429706203  MEMB      186             0.0000000000
     21635       186  SAPE      C217          -39.8079877945      -25.3701755063       -2.9186499110  MEMB      186             0.0000000000
     21636       186  SAPE      H17R          -39.5558721528      -25.5980841469       -1.8604825035  MEMB      186             0.0000000000
     21637       186  SAPE      H17S          -40.8483890838      -25.2843527645       -3.1248514937  MEMB      186             0.0000000000
     21638       186  SAPE      C218          -39.3449763400      -24.1064204037       -3.4171587276  MEMB      186             0.0000000000
     21639       186  SAPE      H18R          -39.9992835557      -23.9239384272       -4.2983805290  MEMB      186             0.0000000000
     21640       186  SAPE      H18S          -38.2757573164      -24.1569614734       -3.6480708124  MEMB      186             0.0000000000
     21641       186  SAPE      C219          -39.6351998457      -23.1004228843       -2.3799029482  MEMB      186             0.0000000000
     21642       186  SAPE      H19R          -40.6978941291      -23.0259961624       -2.1795940532  MEMB      186             0.0000000000
     21643       186  SAPE      H19S          -39.4368131874      -22.1974360776       -2.8461872880  MEMB      186             0.0000000000
     21644       186  SAPE      C220          -38.6966171582      -23.0379360831       -1.2234077283  MEMB      186             0.0000000000
     21645       186  SAPE      H20R          -38.9203748961      -23.9066313686       -0.5889297185  MEMB      186             0.0000000000
     21646       186  SAPE      H20S          -38.8407109416      -22.0882335304       -0.6736287070  MEMB      186             0.0000000000
     21647       186  SAPE      H20T          -37.6491942277      -23.0752464416       -1.5968719856  MEMB      186             0.0000000000
     21648       186  SAPE      C33           -36.3802353895      -18.9116347057      -14.7598333507  MEMB      186             0.0000000000
     21649       186  SAPE      H3X           -36.4527936615      -17.8287730198      -14.9482754752  MEMB      186             0.0000000000
     21650       186  SAPE      H3Y           -35.8727763282      -19.0293691911      -13.7990832950  MEMB      186             0.0000000000
     21651       186  SAPE      C34           -37.6537379631      -19.3337702981      -14.3396039716  MEMB      186             0.0000000000
     21652       186  SAPE      H4X           -38.2994113264      -19.0838252151      -15.2233900247  MEMB      186             0.0000000000
     21653       186  SAPE      H4Y           -37.8701747881      -18.5155066408      -13.5984995456  MEMB      186             0.0000000000
     21654       186  SAPE      C35           -37.8094209323      -20.8010303407      -13.7334999264  MEMB      186             0.0000000000
     21655       186  SAPE      H5X           -37.8191610267      -21.5843364347      -14.5006722013  MEMB      186             0.0000000000
     21656       186  SAPE      H5Y           -38.7793150509      -21.1927866526      -13.4592968120  MEMB      186             0.0000000000
     21657       186  SAPE      C36           -37.6066236362      -20.9291367822      -12.2293333664  MEMB      186             0.0000000000
     21658       186  SAPE      H6X           -37.9770188350      -20.0705037677      -11.6546095115  MEMB      186             0.0000000000
     21659       186  SAPE      H6Y           -36.5690074304      -20.8849010804      -12.1532514791  MEMB      186             0.0000000000
     21660       186  SAPE      C37           -38.2534548992      -22.1181390760      -11.5434757961  MEMB      186             0.0000000000
     21661       186  SAPE      H7X           -37.9286623270      -23.0081695615      -12.0989475254  MEMB      186             0.0000000000
     21662       186  SAPE      H7Y           -39.3668727948      -22.0599623148      -11.6575026414  MEMB      186             0.0000000000
     21663       186  SAPE      C38           -37.8125863692      -22.2231034133      -10.0619029263  MEMB      186             0.0000000000
     21664       186  SAPE      H8X           -36.7711152734      -22.5047353425       -9.9799194088  MEMB      186             0.0000000000
     21665       186  SAPE      H8Y           -38.4705660808      -23.0622791939       -9.7279438700  MEMB      186             0.0000000000
     21666       186  SAPE      C39           -37.9291635553      -20.9057587328       -9.2387928863  MEMB      186             0.0000000000
     21667       186  SAPE      H9X           -38.9629470444      -21.0822617052       -9.5406172951  MEMB      186             0.0000000000
     21668       186  SAPE      H9Y           -37.7515889989      -19.9296944331       -9.6882644295  MEMB      186             0.0000000000
     21669       186  SAPE      C310          -37.6303409464      -20.7383059925       -7.6969711686  MEMB      186             0.0000000000
     21670       186  SAPE      H10X          -37.6066978768      -21.7432011330       -7.1559573140  MEMB      186             0.0000000000
     21671       186  SAPE      H10Y          -38.3044284782      -20.0197035813       -7.1193014217  MEMB      186             0.0000000000
     21672       186  SAPE      C311          -36.3818297515      -20.6693661829       -7.1557612402  MEMB      186             0.0000000000
     21673       186  SAPE      H11X          -36.3731617341      -19.5807285230       -7.3911795449  MEMB      186             0.0000000000
     21674       186  SAPE      H11Y          -35.9340524471      -21.4571916705       -7.7964441204  MEMB      186             0.0000000000
     21675       186  SAPE      C312          -36.2403897891      -20.9816472486       -5.6543969297  MEMB      186             0.0000000000
     21676       186  SAPE      H12X          -36.4765275480      -22.0417526837       -5.4631416066  MEMB      186             0.0000000000
     21677       186  SAPE      H12Y          -36.8529920766      -20.0650705240       -5.4241396644  MEMB      186             0.0000000000
     21678       186  SAPE      C313          -35.1148414198      -20.7123303554       -4.7203174628  MEMB      186             0.0000000000
     21679       186  SAPE      H13X          -35.2066069971      -19.6694052835       -4.6430136927  MEMB      186             0.0000000000
     21680       186  SAPE      H13Y          -34.2211122408      -21.0635558411       -5.1716107468  MEMB      186             0.0000000000
     21681       186  SAPE      C314          -34.7969642864      -21.0790755315       -3.3510793457  MEMB      186             0.0000000000
     21682       186  SAPE      H14X          -35.5496352066      -20.5872702564       -2.7091692544  MEMB      186             0.0000000000
     21683       186  SAPE      H14Y          -33.7640777656      -20.6316364366       -3.2443157751  MEMB      186             0.0000000000
     21684       186  SAPE      C315          -34.6856857312      -22.5510954239       -3.2946061399  MEMB      186             0.0000000000
     21685       186  SAPE      H15X          -35.6932428962      -22.9245029969       -3.5909902078  MEMB      186             0.0000000000
     21686       186  SAPE      H15Y          -34.4830235652      -22.7308649821       -2.2243478436  MEMB      186             0.0000000000
     21687       186  SAPE      C316          -33.5942049027      -23.2165797010       -4.1626881320  MEMB      186             0.0000000000
     21688       186  SAPE      H16X          -32.5987438274      -23.1259503200       -3.6803640909  MEMB      186             0.0000000000
     21689       186  SAPE      H16Y          -33.4854171507      -22.8613440612       -5.1954744040  MEMB      186             0.0000000000
     21690       186  SAPE      C317          -33.9459380365      -24.6526187190       -4.3339701642  MEMB      186             0.0000000000
     21691       186  SAPE      H17X          -33.1378465623      -25.2185349905       -4.8628830035  MEMB      186             0.0000000000
     21692       186  SAPE      H17Y          -34.8654765678      -24.7714737283       -4.9367052848  MEMB      186             0.0000000000
     21693       186  SAPE      C318          -34.2190586550      -25.2106687316       -2.9832256727  MEMB      186             0.0000000000
     21694       186  SAPE      H18X          -34.8204122323      -26.0998808808       -3.2290220705  MEMB      186             0.0000000000
     21695       186  SAPE      H18Y          -34.8768601690      -24.7647563304       -2.2300938384  MEMB      186             0.0000000000
     21696       186  SAPE      H18Z          -33.2258699991      -25.3541230190       -2.4949481437  MEMB      186             0.0000000000
     21697       187  CHL1      C3            -32.2908710059       28.8348318432      -17.3521723667  MEMB      187             0.0000000000
     21698       187  CHL1      H3            -31.2867873925       29.3341749260      -17.3867347529  MEMB      187             0.0000000000
     21699       187  CHL1      O3            -32.7786383840       28.5708225764      -18.6639706647  MEMB      187             0.0000000000
     21700       187  CHL1      H3'           -33.2091613184       29.3757806806      -19.0000212151  MEMB      187             0.0000000000
     21701       187  CHL1      C4            -32.1879391670       27.5601339283      -16.5516435346  MEMB      187             0.0000000000
     21702       187  CHL1      H4A           -33.0627722235       26.9250878905      -16.7939774638  MEMB      187             0.0000000000
     21703       187  CHL1      H4B           -31.2848264844       27.0557943848      -16.9531854556  MEMB      187             0.0000000000
     21704       187  CHL1      C5            -32.0868675354       27.7948952181      -15.0627773640  MEMB      187             0.0000000000
     21705       187  CHL1      C6            -31.0493237441       27.3186883557      -14.3806690962  MEMB      187             0.0000000000
     21706       187  CHL1      H6            -30.2797449954       26.7523130038      -14.9230398594  MEMB      187             0.0000000000
     21707       187  CHL1      C7            -30.9528727252       27.3917345028      -12.8909070567  MEMB      187             0.0000000000
     21708       187  CHL1      H7A           -30.6179569141       26.3965245165      -12.5583779266  MEMB      187             0.0000000000
     21709       187  CHL1      H7B           -30.1601137435       28.0698841144      -12.5469129152  MEMB      187             0.0000000000
     21710       187  CHL1      C8            -32.2903749578       27.8401422229      -12.2288959418  MEMB      187             0.0000000000
     21711       187  CHL1      H8            -33.0141021404       27.0543485322      -12.4613725663  MEMB      187             0.0000000000
     21712       187  CHL1      C14           -32.1273422289       28.1255964944      -10.7300241456  MEMB      187             0.0000000000
     21713       187  CHL1      H14           -31.4318747535       28.9629777184      -10.5819043592  MEMB      187             0.0000000000
     21714       187  CHL1      C15           -31.4528575376       27.0769473018       -9.8598151961  MEMB      187             0.0000000000
     21715       187  CHL1      H15A          -32.1062985213       26.2716503540      -10.1009510347  MEMB      187             0.0000000000
     21716       187  CHL1      H15B          -30.4276484935       26.7199164376      -10.0310674250  MEMB      187             0.0000000000
     21717       187  CHL1      C16           -31.8286072869       27.3751766532       -8.4246214479  MEMB      187             0.0000000000
     21718       187  CHL1      H16A          -31.9785286160       26.4052829121       -7.9867383615  MEMB      187             0.0000000000
     21719       187  CHL1      H16B          -31.0069221191       27.6927910690       -7.7907504037  MEMB      187             0.0000000000
     21720       187  CHL1      C17           -33.0138017210       28.4059306434       -8.4958191892  MEMB      187             0.0000000000
     21721       187  CHL1      H17           -32.4579763085       29.3453389230       -8.3426765990  MEMB      187             0.0000000000
     21722       187  CHL1      C13           -33.4222156713       28.5197889084      -10.0183079425  MEMB      187             0.0000000000
     21723       187  CHL1      C18           -34.4834565326       27.5737086779      -10.4139678747  MEMB      187             0.0000000000
     21724       187  CHL1      H18A          -35.4357411644       27.6076326355       -9.8350512621  MEMB      187             0.0000000000
     21725       187  CHL1      H18B          -34.6811295156       27.3540227648      -11.4596118263  MEMB      187             0.0000000000
     21726       187  CHL1      H18C          -33.9725892781       26.6306199980      -10.3171001519  MEMB      187             0.0000000000
     21727       187  CHL1      C12           -33.9715579187       29.7801010623      -10.6378402769  MEMB      187             0.0000000000
     21728       187  CHL1      H12A          -34.9408494074       29.9909270004      -10.1416803173  MEMB      187             0.0000000000
     21729       187  CHL1      H12B          -33.2589526567       30.5966927125      -10.4429601224  MEMB      187             0.0000000000
     21730       187  CHL1      C11           -34.2230650642       29.5581959431      -12.1666038016  MEMB      187             0.0000000000
     21731       187  CHL1      H11A          -35.0628072554       28.8660770847      -12.3754928963  MEMB      187             0.0000000000
     21732       187  CHL1      H11B          -34.6432313972       30.4839135075      -12.5701362054  MEMB      187             0.0000000000
     21733       187  CHL1      C9            -32.9687279936       29.0057940803      -12.9335054049  MEMB      187             0.0000000000
     21734       187  CHL1      H9            -32.2181624188       29.8191172459      -12.8778213231  MEMB      187             0.0000000000
     21735       187  CHL1      C10           -33.1999123292       28.6423492633      -14.4318455551  MEMB      187             0.0000000000
     21736       187  CHL1      C19           -34.5482880580       27.8979097734      -14.6512421304  MEMB      187             0.0000000000
     21737       187  CHL1      H19A          -34.6368191559       27.0693619732      -13.9253220443  MEMB      187             0.0000000000
     21738       187  CHL1      H19B          -35.3968719944       28.5946383519      -14.5152455794  MEMB      187             0.0000000000
     21739       187  CHL1      H19C          -34.6664076342       27.4694477061      -15.6689334024  MEMB      187             0.0000000000
     21740       187  CHL1      C1            -33.1641130418       29.9648851940      -15.1974567767  MEMB      187             0.0000000000
     21741       187  CHL1      H1A           -34.0039213223       30.5763580948      -14.7965334328  MEMB      187             0.0000000000
     21742       187  CHL1      H1B           -32.2226615520       30.4871882557      -14.9100615960  MEMB      187             0.0000000000
     21743       187  CHL1      C2            -33.2710701827       29.7716290593      -16.7233257432  MEMB      187             0.0000000000
     21744       187  CHL1      H2A           -32.8977813127       30.6190250493      -17.3223705658  MEMB      187             0.0000000000
     21745       187  CHL1      H2B           -34.3183168245       29.5149035879      -16.9935869916  MEMB      187             0.0000000000
     21746       187  CHL1      C20           -34.0368415275       28.3819193602       -7.3105779631  MEMB      187             0.0000000000
     21747       187  CHL1      H20           -34.6691258908       27.4924296789       -7.2571241536  MEMB      187             0.0000000000
     21748       187  CHL1      C21           -35.0921324387       29.4561531777       -7.4439388900  MEMB      187             0.0000000000
     21749       187  CHL1      H21A          -34.5306794803       30.3681920270       -7.6961229317  MEMB      187             0.0000000000
     21750       187  CHL1      H21B          -35.6257843623       29.6055541489       -6.4827807274  MEMB      187             0.0000000000
     21751       187  CHL1      H21C          -35.8307076742       29.1556891984       -8.2199772583  MEMB      187             0.0000000000
     21752       187  CHL1      C22           -33.3921589142       28.4631917738       -5.9190654555  MEMB      187             0.0000000000
     21753       187  CHL1      H22A          -32.5080944997       27.7831443013       -5.8578805213  MEMB      187             0.0000000000
     21754       187  CHL1      H22B          -33.1020645250       29.5062621815       -5.7236863810  MEMB      187             0.0000000000
     21755       187  CHL1      C23           -34.3718024137       28.1501367190       -4.7931579609  MEMB      187             0.0000000000
     21756       187  CHL1      H23A          -35.4313054189       28.3711179091       -4.9826189363  MEMB      187             0.0000000000
     21757       187  CHL1      H23B          -34.3794817275       27.0947151229       -4.6952703222  MEMB      187             0.0000000000
     21758       187  CHL1      C24           -33.9417530831       28.5806421363       -3.4209541743  MEMB      187             0.0000000000
     21759       187  CHL1      H24A          -32.8523684790       28.3035760885       -3.2790347489  MEMB      187             0.0000000000
     21760       187  CHL1      H24B          -34.1459472314       29.6209745537       -3.1730424204  MEMB      187             0.0000000000
     21761       187  CHL1      C25           -34.7545108980       27.8784998190       -2.3621136901  MEMB      187             0.0000000000
     21762       187  CHL1      H25           -34.1327071202       27.0105297055       -2.4153191067  MEMB      187             0.0000000000
     21763       187  CHL1      C26           -34.5352200140       28.4143991037       -0.9977781950  MEMB      187             0.0000000000
     21764       187  CHL1      H26A          -34.6514250441       29.4544059224       -0.7390314339  MEMB      187             0.0000000000
     21765       187  CHL1      H26B          -35.1809207498       27.7352634224       -0.3744165354  MEMB      187             0.0000000000
     21766       187  CHL1      H26C          -33.4567594228       28.2996189438       -0.7571242590  MEMB      187             0.0000000000
     21767       187  CHL1      C27           -36.2406754213       27.4669257718       -2.5085541231  MEMB      187             0.0000000000
     21768       187  CHL1      H27A          -36.5249599131       26.8053203957       -3.3494300904  MEMB      187             0.0000000000
     21769       187  CHL1      H27B          -36.6049984399       26.9074343521       -1.6067969771  MEMB      187             0.0000000000
     21770       187  CHL1      H27C          -36.7419753876       28.4196253335       -2.6751192910  MEMB      187             0.0000000000
     21771       188  OSM       N             -26.4291063649      -32.7109319400      -20.2153536912  MEMB      188             0.0000000000
     21772       188  OSM       C15           -26.7105066761      -31.5259559245      -21.0752645276  MEMB      188             0.0000000000
     21773       188  OSM       H15A          -27.2046367689      -31.8188750758      -21.9905044986  MEMB      188             0.0000000000
     21774       188  OSM       H15B          -25.7686825606      -31.0401407425      -21.3325046322  MEMB      188             0.0000000000
     21775       188  OSM       H15C          -27.3232135568      -30.8021535064      -20.5688807397  MEMB      188             0.0000000000
     21776       188  OSM       C14           -25.5154411466      -33.6671382788      -20.9142003059  MEMB      188             0.0000000000
     21777       188  OSM       H14A          -24.4991276486      -33.3052860969      -20.9327219895  MEMB      188             0.0000000000
     21778       188  OSM       H14B          -25.8708897119      -33.8037816174      -21.9313099273  MEMB      188             0.0000000000
     21779       188  OSM       H14C          -25.5149694076      -34.6468682585      -20.4460340686  MEMB      188             0.0000000000
     21780       188  OSM       C13           -25.7376857289      -32.2594742466      -19.0447419411  MEMB      188             0.0000000000
     21781       188  OSM       H13A          -24.8799251168      -31.6341931837      -19.2922282901  MEMB      188             0.0000000000
     21782       188  OSM       H13B          -25.2566271412      -33.0953749964      -18.5250023620  MEMB      188             0.0000000000
     21783       188  OSM       H13C          -26.3180079152      -31.7437479484      -18.3152908148  MEMB      188             0.0000000000
     21784       188  OSM       C12           -27.6673721820      -33.3798203644      -19.6934148013  MEMB      188             0.0000000000
     21785       188  OSM       H12A          -28.0712948668      -32.7831543990      -18.8866049847  MEMB      188             0.0000000000
     21786       188  OSM       H12B          -27.3682070971      -34.3385373822      -19.2858614784  MEMB      188             0.0000000000
     21787       188  OSM       C11           -28.8015962233      -33.6041794264      -20.6617264919  MEMB      188             0.0000000000
     21788       188  OSM       H11A          -29.1863760380      -32.6312302324      -21.0172654476  MEMB      188             0.0000000000
     21789       188  OSM       H11B          -29.6317351837      -34.1736414482      -20.1825040866  MEMB      188             0.0000000000
     21790       188  OSM       P             -28.1808943190      -35.7729843452      -21.8921137215  MEMB      188             0.0000000000
     21791       188  OSM       O13           -29.4318541311      -36.2157121532      -22.5155062670  MEMB      188             0.0000000000
     21792       188  OSM       O14           -26.8889071348      -35.9465360065      -22.5609382289  MEMB      188             0.0000000000
     21793       188  OSM       O11           -28.0893317514      -36.3590364382      -20.3809505461  MEMB      188             0.0000000000
     21794       188  OSM       O12           -28.2919458517      -34.2539182499      -21.7654714840  MEMB      188             0.0000000000
     21795       188  OSM       C1S           -28.3455366306      -37.6094839240      -19.6601393462  MEMB      188             0.0000000000
     21796       188  OSM       H1S           -28.3307778576      -38.5328225360      -20.2537759950  MEMB      188             0.0000000000
     21797       188  OSM       H1T           -29.3467057492      -37.7548303651      -19.2120998149  MEMB      188             0.0000000000
     21798       188  OSM       NF            -27.7674744689      -36.5703777851      -17.5619627393  MEMB      188             0.0000000000
     21799       188  OSM       HNF           -26.9589366396      -36.2050229900      -17.1312141770  MEMB      188             0.0000000000
     21800       188  OSM       C2S           -27.5967623343      -37.7805741152      -18.3378696807  MEMB      188             0.0000000000
     21801       188  OSM       H2S           -28.1541824083      -38.6313617136      -17.8505240061  MEMB      188             0.0000000000
     21802       188  OSM       C3S           -26.0753699384      -38.1363457097      -18.3819944470  MEMB      188             0.0000000000
     21803       188  OSM       H3S           -25.5129567072      -37.2864360356      -18.8111337788  MEMB      188             0.0000000000
     21804       188  OSM       O3            -25.6784158932      -39.3270229694      -19.0484257866  MEMB      188             0.0000000000
     21805       188  OSM       HO3           -26.4953808652      -39.6648269833      -19.4088704590  MEMB      188             0.0000000000
     21806       188  OSM       C4S           -25.7740663852      -38.2204570363      -16.9879933129  MEMB      188             0.0000000000
     21807       188  OSM       H4S           -25.2256404079      -37.4551340689      -16.4462528514  MEMB      188             0.0000000000
     21808       188  OSM       C5S           -26.1751410280      -39.2754553352      -16.3637078727  MEMB      188             0.0000000000
     21809       188  OSM       H5S           -26.2938393788      -40.2354218120      -16.8179395615  MEMB      188             0.0000000000
     21810       188  OSM       C6S           -25.9844631239      -39.4189606848      -15.0210997698  MEMB      188             0.0000000000
     21811       188  OSM       H6S           -25.1762837565      -39.8829363898      -14.8805706570  MEMB      188             0.0000000000
     21812       188  OSM       H6T           -26.5777162375      -40.2151350183      -14.7363151817  MEMB      188             0.0000000000
     21813       188  OSM       C7S           -25.8601433128      -38.3880721334      -14.0578081767  MEMB      188             0.0000000000
     21814       188  OSM       H7S           -25.0742349655      -37.6627352647      -14.3404982859  MEMB      188             0.0000000000
     21815       188  OSM       H7T           -25.6207543043      -38.8561889525      -13.0974313796  MEMB      188             0.0000000000
     21816       188  OSM       C8S           -27.1788924704      -37.9698046142      -13.8428783098  MEMB      188             0.0000000000
     21817       188  OSM       H8S           -27.7687301794      -38.9011352063      -13.6479613576  MEMB      188             0.0000000000
     21818       188  OSM       H8T           -27.3822210024      -37.5466531684      -14.8482522044  MEMB      188             0.0000000000
     21819       188  OSM       C9S           -26.9625450150      -36.9649327917      -12.7626749668  MEMB      188             0.0000000000
     21820       188  OSM       H9S           -27.7188714753      -36.2840684072      -13.0961915273  MEMB      188             0.0000000000
     21821       188  OSM       H9T           -26.0268517999      -36.3878280583      -12.9235812187  MEMB      188             0.0000000000
     21822       188  OSM       C10S          -27.0123436160      -37.4548200477      -11.3078863002  MEMB      188             0.0000000000
     21823       188  OSM       H10S          -25.9811168374      -37.6776113685      -10.9639578543  MEMB      188             0.0000000000
     21824       188  OSM       H10T          -27.6259424588      -38.3651972570      -11.1644555343  MEMB      188             0.0000000000
     21825       188  OSM       C11S          -27.4304084459      -36.3878544774      -10.3139648909  MEMB      188             0.0000000000
     21826       188  OSM       H11S          -28.5108648027      -36.1819015075      -10.4391512866  MEMB      188             0.0000000000
     21827       188  OSM       H11T          -26.8646592484      -35.4765120834      -10.6135641757  MEMB      188             0.0000000000
     21828       188  OSM       C12S          -27.1179317125      -36.8098102018       -8.8604901989  MEMB      188             0.0000000000
     21829       188  OSM       H12S          -26.0210892399      -36.9956796305       -8.7754730468  MEMB      188             0.0000000000
     21830       188  OSM       H12T          -27.6505369128      -37.7409544377       -8.5929102196  MEMB      188             0.0000000000
     21831       188  OSM       C13S          -27.5397357406      -35.7576931416       -7.8384786972  MEMB      188             0.0000000000
     21832       188  OSM       H13S          -28.5833978983      -35.4084391161       -7.9179519916  MEMB      188             0.0000000000
     21833       188  OSM       H13T          -26.9657862206      -34.9316069431       -8.1901927886  MEMB      188             0.0000000000
     21834       188  OSM       C14S          -27.0000972598      -35.8601937335       -6.4147553238  MEMB      188             0.0000000000
     21835       188  OSM       H14S          -26.8464402010      -34.8282574831       -6.0212136376  MEMB      188             0.0000000000
     21836       188  OSM       H14T          -26.0077197379      -36.3598810168       -6.4048706081  MEMB      188             0.0000000000
     21837       188  OSM       C15S          -27.9415325959      -36.5405892236       -5.4454369240  MEMB      188             0.0000000000
     21838       188  OSM       H15S          -27.2989524983      -36.8310679024       -4.5956870342  MEMB      188             0.0000000000
     21839       188  OSM       H15T          -28.3971546719      -37.4370552570       -5.9280031610  MEMB      188             0.0000000000
     21840       188  OSM       C16S          -29.0183429780      -35.5985296106       -4.9139636337  MEMB      188             0.0000000000
     21841       188  OSM       H16S          -29.6567828569      -35.3807584853       -5.8034066385  MEMB      188             0.0000000000
     21842       188  OSM       H16T          -28.6342301198      -34.6476531125       -4.5083281392  MEMB      188             0.0000000000
     21843       188  OSM       C17S          -29.8795703713      -36.2115650882       -3.8141048958  MEMB      188             0.0000000000
     21844       188  OSM       H17S          -30.3369065620      -36.9143282857       -4.3811328753  MEMB      188             0.0000000000
     21845       188  OSM       H17T          -30.8657178139      -35.8480257276       -3.6744605596  MEMB      188             0.0000000000
     21846       188  OSM       C18S          -29.3466956942      -36.9140796263       -2.5831778547  MEMB      188             0.0000000000
     21847       188  OSM       H18S          -30.1950205471      -37.3299050354       -1.9829725469  MEMB      188             0.0000000000
     21848       188  OSM       H18T          -28.8084875557      -36.1648252224       -1.9838752467  MEMB      188             0.0000000000
     21849       188  OSM       H18U          -28.6521258027      -37.7316643394       -2.8651763286  MEMB      188             0.0000000000
     21850       188  OSM       C1F           -28.8762075238      -35.9216455020      -17.2950606731  MEMB      188             0.0000000000
     21851       188  OSM       OF            -29.9219999825      -36.0598907579      -17.9021955747  MEMB      188             0.0000000000
     21852       188  OSM       C2F           -28.7630089117      -35.0307332660      -16.1311093907  MEMB      188             0.0000000000
     21853       188  OSM       H2F           -27.7389014920      -34.9585817294      -15.7176973209  MEMB      188             0.0000000000
     21854       188  OSM       H2G           -29.2894082551      -35.5694351781      -15.3513381614  MEMB      188             0.0000000000
     21855       188  OSM       C3F           -29.3833347894      -33.6858209358      -16.4874153317  MEMB      188             0.0000000000
     21856       188  OSM       H3F           -30.4441961376      -33.7885140530      -16.8124062261  MEMB      188             0.0000000000
     21857       188  OSM       H3G           -28.8408123603      -33.2516686438      -17.3570450294  MEMB      188             0.0000000000
     21858       188  OSM       C4F           -29.2385590652      -32.6184010727      -15.4066400828  MEMB      188             0.0000000000
     21859       188  OSM       H4F           -29.7340499880      -31.7408216465      -15.8741809493  MEMB      188             0.0000000000
     21860       188  OSM       H4G           -28.1449844224      -32.5149392670      -15.2600500392  MEMB      188             0.0000000000
     21861       188  OSM       C5F           -29.7830233539      -32.8312245848      -13.9838968301  MEMB      188             0.0000000000
     21862       188  OSM       H5F           -29.2282432481      -33.7440922150      -13.7123222745  MEMB      188             0.0000000000
     21863       188  OSM       H5G           -30.8703336016      -32.7814142888      -14.0056178671  MEMB      188             0.0000000000
     21864       188  OSM       C6F           -29.6276424416      -32.0212376374      -12.6829640541  MEMB      188             0.0000000000
     21865       188  OSM       H6F           -30.2202340895      -32.2063513308      -11.7732164093  MEMB      188             0.0000000000
     21866       188  OSM       H6G           -30.1878005906      -31.1549236460      -13.0213179015  MEMB      188             0.0000000000
     21867       188  OSM       C7F           -28.1430955613      -31.9530292936      -12.4021016399  MEMB      188             0.0000000000
     21868       188  OSM       H7F           -27.5490823040      -31.7229008436      -13.2952465267  MEMB      188             0.0000000000
     21869       188  OSM       H7G           -27.7581717425      -32.9649148792      -12.1989619422  MEMB      188             0.0000000000
     21870       188  OSM       C8F           -27.7024535854      -30.8902020687      -11.4606998710  MEMB      188             0.0000000000
     21871       188  OSM       H8F           -28.0904125801      -29.9007223472      -11.3502896080  MEMB      188             0.0000000000
     21872       188  OSM       H8G           -26.6505468315      -30.6115663306      -11.8082370790  MEMB      188             0.0000000000
     21873       188  OSM       C9F           -28.2492537674      -31.0294286473      -10.0863468721  MEMB      188             0.0000000000
     21874       188  OSM       H9F           -29.2033809477      -31.2884851798       -9.9708324433  MEMB      188             0.0000000000
     21875       188  OSM       C10F          -27.7220269363      -31.3015042442       -8.9518981310  MEMB      188             0.0000000000
     21876       188  OSM       H10F          -28.0184061560      -31.9761155903       -8.1283619852  MEMB      188             0.0000000000
     21877       188  OSM       C11F          -26.4899360404      -31.4724720174       -9.3599391962  MEMB      188             0.0000000000
     21878       188  OSM       H11F          -25.9253332676      -30.9888853300      -10.2324328261  MEMB      188             0.0000000000
     21879       188  OSM       H11G          -26.7752035496      -32.5503008002       -9.6377581223  MEMB      188             0.0000000000
     21880       188  OSM       C12F          -25.8242719187      -30.9009109186       -8.1998108094  MEMB      188             0.0000000000
     21881       188  OSM       H12F          -25.3558267340      -29.9233172106       -8.5773658623  MEMB      188             0.0000000000
     21882       188  OSM       H12G          -24.8927127736      -30.9506088671       -8.8335909730  MEMB      188             0.0000000000
     21883       188  OSM       C13F          -25.8471339504      -31.6384578990       -6.4678519903  MEMB      188             0.0000000000
     21884       188  OSM       H13F          -26.8428679738      -31.4906109723       -6.1590324763  MEMB      188             0.0000000000
     21885       188  OSM       H13G          -25.3815192829      -31.1414877849       -5.6390964801  MEMB      188             0.0000000000
     21886       188  OSM       C14F          -24.7136181443      -32.7304800811       -5.5333727183  MEMB      188             0.0000000000
     21887       188  OSM       H14F          -23.5989406173      -32.8980112615       -5.8021558922  MEMB      188             0.0000000000
     21888       188  OSM       H14G          -24.8890280484      -33.8146114287       -5.7620036360  MEMB      188             0.0000000000
     21889       188  OSM       C15F          -24.6826943087      -32.8177594094       -4.1639719617  MEMB      188             0.0000000000
     21890       188  OSM       H15F          -24.2042421544      -31.8150853127       -4.0306927357  MEMB      188             0.0000000000
     21891       188  OSM       H15G          -23.9926685452      -33.7100256697       -4.0400631926  MEMB      188             0.0000000000
     21892       188  OSM       C16F          -26.1517569307      -33.0418484819       -4.0315750789  MEMB      188             0.0000000000
     21893       188  OSM       H16F          -26.3356938645      -34.0459323571       -3.6535380594  MEMB      188             0.0000000000
     21894       188  OSM       H16G          -26.8614263350      -32.9064021007       -4.8924249062  MEMB      188             0.0000000000
     21895       188  OSM       C17F          -26.4987050827      -32.0794341700       -3.0334447955  MEMB      188             0.0000000000
     21896       188  OSM       H17F          -26.1278810597      -31.0973843385       -3.3241638255  MEMB      188             0.0000000000
     21897       188  OSM       H17G          -25.8989190944      -32.3167168944       -2.1339785932  MEMB      188             0.0000000000
     21898       188  OSM       C18F          -27.9524930195      -32.0564344291       -2.7715854147  MEMB      188             0.0000000000
     21899       188  OSM       H18F          -28.7037303569      -31.8412682343       -3.5511796211  MEMB      188             0.0000000000
     21900       188  OSM       H18G          -27.9181662735      -31.0790743734       -2.3653634816  MEMB      188             0.0000000000
     21901       188  OSM       H18H          -28.2665437033      -32.7544015800       -1.9726903856  MEMB      188             0.0000000000
     21902       189  CHL1      C3             32.9810988976       30.1644119700      -17.3684024377  MEMB      189             0.0000000000
     21903       189  CHL1      H3             33.5384772944       29.1971393167      -17.2973592676  MEMB      189             0.0000000000
     21904       189  CHL1      O3             33.1255052607       30.7446401044      -18.6651546903  MEMB      189             0.0000000000
     21905       189  CHL1      H3'            33.9963866546       31.1533330516      -18.6966310358  MEMB      189             0.0000000000
     21906       189  CHL1      C4             31.4833525700       29.8858706385      -17.1772028944  MEMB      189             0.0000000000
     21907       189  CHL1      H4A            30.8869509238       30.7371220798      -17.5574934504  MEMB      189             0.0000000000
     21908       189  CHL1      H4B            31.2566623207       29.0410525931      -17.8806387390  MEMB      189             0.0000000000
     21909       189  CHL1      C5             31.0450289155       29.6608233258      -15.7388501526  MEMB      189             0.0000000000
     21910       189  CHL1      C6             30.1047099356       28.8238097306      -15.3818871364  MEMB      189             0.0000000000
     21911       189  CHL1      H6             29.7933834825       28.2450799955      -16.2048765135  MEMB      189             0.0000000000
     21912       189  CHL1      C7             29.7691593106       28.2835531141      -13.9986601010  MEMB      189             0.0000000000
     21913       189  CHL1      H7A            28.8951799055       27.6097913355      -14.0046292693  MEMB      189             0.0000000000
     21914       189  CHL1      H7B            30.5261149165       27.6024645007      -13.5172731671  MEMB      189             0.0000000000
     21915       189  CHL1      C8             30.0182126865       29.2856277608      -12.9795300207  MEMB      189             0.0000000000
     21916       189  CHL1      H8             29.0916617166       29.8546934428      -13.0878249116  MEMB      189             0.0000000000
     21917       189  CHL1      C14            30.1704415511       28.6199980628      -11.6444697282  MEMB      189             0.0000000000
     21918       189  CHL1      H14            31.1297270094       28.0464367837      -11.6013395289  MEMB      189             0.0000000000
     21919       189  CHL1      C15            28.9826913900       27.7473218078      -11.2202460313  MEMB      189             0.0000000000
     21920       189  CHL1      H15A           27.9616571691       28.1222950156      -11.3460571193  MEMB      189             0.0000000000
     21921       189  CHL1      H15B           28.6445274020       26.9652487365      -11.8679412849  MEMB      189             0.0000000000
     21922       189  CHL1      C16            29.1794450884       27.6691185732       -9.7145452420  MEMB      189             0.0000000000
     21923       189  CHL1      H16A           28.2862523327       27.8766076404       -9.1202791546  MEMB      189             0.0000000000
     21924       189  CHL1      H16B           29.1511480402       26.6304855982       -9.5122066667  MEMB      189             0.0000000000
     21925       189  CHL1      C17            30.3729657426       28.6727255065       -9.3460817590  MEMB      189             0.0000000000
     21926       189  CHL1      H17            31.3751262113       28.1731419103       -9.4280284778  MEMB      189             0.0000000000
     21927       189  CHL1      C13            30.3673951342       29.5828116518      -10.5505686422  MEMB      189             0.0000000000
     21928       189  CHL1      C18            29.0973718172       30.2916790190      -10.5084758179  MEMB      189             0.0000000000
     21929       189  CHL1      H18A           29.2227153296       31.0115019127       -9.7153001311  MEMB      189             0.0000000000
     21930       189  CHL1      H18B           28.7666524038       30.7761302583      -11.4356245324  MEMB      189             0.0000000000
     21931       189  CHL1      H18C           28.2905305571       29.6484008773      -10.2090588151  MEMB      189             0.0000000000
     21932       189  CHL1      C12            31.4488322477       30.6274398215      -10.7645304428  MEMB      189             0.0000000000
     21933       189  CHL1      H12A           31.2539618841       31.4837177937      -10.0749624711  MEMB      189             0.0000000000
     21934       189  CHL1      H12B           32.4310392610       30.1754568757      -10.5598851154  MEMB      189             0.0000000000
     21935       189  CHL1      C11            31.3799261768       31.1601011565      -12.1966861703  MEMB      189             0.0000000000
     21936       189  CHL1      H11A           30.4439686194       31.7583083554      -12.3052794424  MEMB      189             0.0000000000
     21937       189  CHL1      H11B           32.2377684096       31.8161990193      -12.3991872751  MEMB      189             0.0000000000
     21938       189  CHL1      C9             31.3169656988       30.0345440063      -13.2342884225  MEMB      189             0.0000000000
     21939       189  CHL1      H9             32.1507481846       29.3107709128      -13.0344483822  MEMB      189             0.0000000000
     21940       189  CHL1      C10            31.5948914525       30.5083669401      -14.6747530404  MEMB      189             0.0000000000
     21941       189  CHL1      C19            30.6907849887       31.6964188698      -14.9881073730  MEMB      189             0.0000000000
     21942       189  CHL1      H19A           30.8646797096       32.1817760290      -15.9692955213  MEMB      189             0.0000000000
     21943       189  CHL1      H19B           29.6178284389       31.3749967573      -15.0011203994  MEMB      189             0.0000000000
     21944       189  CHL1      H19C           30.7547091129       32.4768261838      -14.2191203270  MEMB      189             0.0000000000
     21945       189  CHL1      C1             33.1071634629       30.7071451577      -14.8727493374  MEMB      189             0.0000000000
     21946       189  CHL1      H1A            33.4270768370       31.4830129482      -14.1484493337  MEMB      189             0.0000000000
     21947       189  CHL1      H1B            33.6145940579       29.7465443090      -14.6157286498  MEMB      189             0.0000000000
     21948       189  CHL1      C2             33.5192643062       31.1259748600      -16.2951240641  MEMB      189             0.0000000000
     21949       189  CHL1      H2A            34.6282833930       31.1752388757      -16.3383752771  MEMB      189             0.0000000000
     21950       189  CHL1      H2B            33.0952564266       32.1368542644      -16.4783097037  MEMB      189             0.0000000000
     21951       189  CHL1      C20            30.2970910188       29.4258400024       -7.9933160739  MEMB      189             0.0000000000
     21952       189  CHL1      H20            30.5611270699       30.4887295297       -8.0954721504  MEMB      189             0.0000000000
     21953       189  CHL1      C21            31.4294241943       28.9723340340       -7.1622189702  MEMB      189             0.0000000000
     21954       189  CHL1      H21A           31.0689715877       27.9659187989       -7.2390327876  MEMB      189             0.0000000000
     21955       189  CHL1      H21B           31.4464578689       29.0512164468       -6.0521208722  MEMB      189             0.0000000000
     21956       189  CHL1      H21C           32.4425287074       28.9452891982       -7.6116758544  MEMB      189             0.0000000000
     21957       189  CHL1      C22            28.9880317835       29.2290084047       -7.2097518303  MEMB      189             0.0000000000
     21958       189  CHL1      H22A           28.2066011630       29.6062435623       -7.8875418404  MEMB      189             0.0000000000
     21959       189  CHL1      H22B           28.7119038467       28.1560831463       -7.0153401013  MEMB      189             0.0000000000
     21960       189  CHL1      C23            28.9648843852       29.9449384277       -5.8562250483  MEMB      189             0.0000000000
     21961       189  CHL1      H23A           27.8978409685       30.1175464304       -5.5908194577  MEMB      189             0.0000000000
     21962       189  CHL1      H23B           29.4167904685       29.2276964745       -5.1343550647  MEMB      189             0.0000000000
     21963       189  CHL1      C24            29.6564141485       31.3158585087       -5.6674552295  MEMB      189             0.0000000000
     21964       189  CHL1      H24A           30.7130018376       31.2697477013       -6.0087652790  MEMB      189             0.0000000000
     21965       189  CHL1      H24B           29.1186519174       32.0200204392       -6.3314313565  MEMB      189             0.0000000000
     21966       189  CHL1      C25            29.6214401654       31.7834943156       -4.1712486571  MEMB      189             0.0000000000
     21967       189  CHL1      H25            28.6605557016       31.4604933273       -3.7373932039  MEMB      189             0.0000000000
     21968       189  CHL1      C26            30.7704528979       31.1278509041       -3.3486822893  MEMB      189             0.0000000000
     21969       189  CHL1      H26A           30.7218667571       30.0204255108       -3.3245879414  MEMB      189             0.0000000000
     21970       189  CHL1      H26B           31.8036500030       31.3721930377       -3.6254224769  MEMB      189             0.0000000000
     21971       189  CHL1      H26C           30.6993400298       31.5363000494       -2.3303391697  MEMB      189             0.0000000000
     21972       189  CHL1      C27            29.4945305147       33.2949624120       -3.8864902134  MEMB      189             0.0000000000
     21973       189  CHL1      H27A           29.1862463236       33.7665517524       -2.9459644096  MEMB      189             0.0000000000
     21974       189  CHL1      H27B           30.4716995955       33.4437538483       -3.4649130500  MEMB      189             0.0000000000
     21975       189  CHL1      H27C           29.3849751617       33.9249367933       -4.7960189945  MEMB      189             0.0000000000
     21976       190  SAPS      N              28.9043328266      -35.1767970147      -19.5763124659  MEMB      190             0.0000000000
     21977       190  SAPS      HN1            29.1838239451      -35.4420006639      -18.6054765945  MEMB      190             0.0000000000
     21978       190  SAPS      HN2            28.8609258459      -34.1558561699      -19.7198872545  MEMB      190             0.0000000000
     21979       190  SAPS      HN3            28.0305268684      -35.6671660982      -19.8576874388  MEMB      190             0.0000000000
     21980       190  SAPS      C12            29.9903698359      -35.6987908045      -20.4144953225  MEMB      190             0.0000000000
     21981       190  SAPS      H12A           30.3499886694      -36.5678659782      -19.9107570979  MEMB      190             0.0000000000
     21982       190  SAPS      C13            29.6556139005      -36.0703987495      -21.8596626240  MEMB      190             0.0000000000
     21983       190  SAPS      O13A           28.4446776266      -36.0780006598      -22.2090472699  MEMB      190             0.0000000000
     21984       190  SAPS      O13B           30.4740272643      -36.9762171280      -22.1719058723  MEMB      190             0.0000000000
     21985       190  SAPS      C11            31.2395694560      -34.8575748028      -20.5323349885  MEMB      190             0.0000000000
     21986       190  SAPS      H11A           30.9255455785      -33.9141726310      -20.9566450860  MEMB      190             0.0000000000
     21987       190  SAPS      H11B           31.9597336351      -35.3393134717      -21.2487817279  MEMB      190             0.0000000000
     21988       190  SAPS      P              32.6754857178      -35.6516663583      -18.5119313996  MEMB      190             0.0000000000
     21989       190  SAPS      O13            31.6912992930      -36.3799898005      -17.6737977210  MEMB      190             0.0000000000
     21990       190  SAPS      O14            33.5711739380      -36.3682466892      -19.4437152454  MEMB      190             0.0000000000
     21991       190  SAPS      O12            31.8341204886      -34.5672920648      -19.2928742661  MEMB      190             0.0000000000
     21992       190  SAPS      O11            33.5572978526      -34.7505873571      -17.5802275981  MEMB      190             0.0000000000
     21993       190  SAPS      C1             34.2514127644      -33.5639708866      -17.9598028898  MEMB      190             0.0000000000
     21994       190  SAPS      HA             35.3458077105      -33.7268104781      -17.8245475445  MEMB      190             0.0000000000
     21995       190  SAPS      HB             34.0399231991      -33.2409509416      -19.0040736846  MEMB      190             0.0000000000
     21996       190  SAPS      C2             33.8808218159      -32.3697949312      -17.0665497900  MEMB      190             0.0000000000
     21997       190  SAPS      HS             34.5741576834      -31.5289856466      -17.2975220459  MEMB      190             0.0000000000
     21998       190  SAPS      O21            34.0263562716      -32.7946990536      -15.7081012024  MEMB      190             0.0000000000
     21999       190  SAPS      C21            33.6822895227      -31.9123326303      -14.8263754372  MEMB      190             0.0000000000
     22000       190  SAPS      O22            33.4244365996      -30.7335909259      -15.0554164956  MEMB      190             0.0000000000
     22001       190  SAPS      C22            33.7844327440      -32.5814225588      -13.4461680885  MEMB      190             0.0000000000
     22002       190  SAPS      H2R            32.7358351756      -32.6969445230      -13.1779176930  MEMB      190             0.0000000000
     22003       190  SAPS      H2S            34.3987509398      -33.4846544525      -13.4634111300  MEMB      190             0.0000000000
     22004       190  SAPS      C3             32.4457641104      -31.8804284109      -17.4044109682  MEMB      190             0.0000000000
     22005       190  SAPS      HX             32.5246951111      -31.7300377773      -18.4934961931  MEMB      190             0.0000000000
     22006       190  SAPS      HY             32.2595339637      -30.8729612472      -16.9719443151  MEMB      190             0.0000000000
     22007       190  SAPS      O31            31.3893809961      -32.8441821333      -17.1708417719  MEMB      190             0.0000000000
     22008       190  SAPS      C31            30.8279644665      -32.7068566892      -15.9853003158  MEMB      190             0.0000000000
     22009       190  SAPS      O32            31.0673438891      -31.8098142489      -15.2199839260  MEMB      190             0.0000000000
     22010       190  SAPS      C32            29.8490964317      -33.8453878310      -15.7061890155  MEMB      190             0.0000000000
     22011       190  SAPS      H2X            29.7241941098      -34.3852162662      -16.6652497622  MEMB      190             0.0000000000
     22012       190  SAPS      H2Y            28.8686219568      -33.4332344307      -15.3949755196  MEMB      190             0.0000000000
     22013       190  SAPS      C23            34.2793414690      -31.8174686729      -12.2606432603  MEMB      190             0.0000000000
     22014       190  SAPS      H3R            33.9041170579      -30.7661233582      -12.4255549768  MEMB      190             0.0000000000
     22015       190  SAPS      H3S            35.3821755029      -31.8275449616      -12.2160454936  MEMB      190             0.0000000000
     22016       190  SAPS      C24            34.2521075466      -32.3842053265      -10.9010483195  MEMB      190             0.0000000000
     22017       190  SAPS      H4R            34.8993606257      -32.0135700405      -10.0843714431  MEMB      190             0.0000000000
     22018       190  SAPS      H4S            34.8029722924      -33.3227789951      -10.8498343756  MEMB      190             0.0000000000
     22019       190  SAPS      C25            32.8826529157      -31.9920400076      -10.5382689608  MEMB      190             0.0000000000
     22020       190  SAPS      H5R            32.4816935858      -30.9888411437      -10.8105476258  MEMB      190             0.0000000000
     22021       190  SAPS      C26            32.3572033611      -32.7317810439       -9.6303046571  MEMB      190             0.0000000000
     22022       190  SAPS      H6R            31.3189440297      -32.5543171066       -9.3673193223  MEMB      190             0.0000000000
     22023       190  SAPS      C27            33.1570460235      -33.8610265398       -9.0647796880  MEMB      190             0.0000000000
     22024       190  SAPS      H7R            32.7010969893      -34.0182496730       -8.0852422619  MEMB      190             0.0000000000
     22025       190  SAPS      H7S            34.2242957028      -33.5927623321       -8.8285431991  MEMB      190             0.0000000000
     22026       190  SAPS      C28            33.1454169408      -35.1166645796       -9.8958656570  MEMB      190             0.0000000000
     22027       190  SAPS      H8R            33.2001963253      -35.0356014407      -10.9947999701  MEMB      190             0.0000000000
     22028       190  SAPS      C29            33.1733728103      -36.3056407235       -9.3106786239  MEMB      190             0.0000000000
     22029       190  SAPS      H9R            33.0687597580      -37.2214891872       -9.9099258666  MEMB      190             0.0000000000
     22030       190  SAPS      C210           33.2206469044      -36.4410122630       -7.8210252079  MEMB      190             0.0000000000
     22031       190  SAPS      H10R           32.2100356606      -36.3225116964       -7.3773150602  MEMB      190             0.0000000000
     22032       190  SAPS      H10S           33.8222159210      -35.6311919107       -7.3434140699  MEMB      190             0.0000000000
     22033       190  SAPS      C211           33.8357400762      -37.7816014559       -7.5849536853  MEMB      190             0.0000000000
     22034       190  SAPS      H11R           34.8441321353      -37.9326042546       -7.9648940868  MEMB      190             0.0000000000
     22035       190  SAPS      C212           33.3749344335      -38.6491195962       -6.7056630798  MEMB      190             0.0000000000
     22036       190  SAPS      H12R           34.0455633797      -39.4559036792       -6.3394353535  MEMB      190             0.0000000000
     22037       190  SAPS      C213           32.1826413952      -38.2749040386       -5.8945713778  MEMB      190             0.0000000000
     22038       190  SAPS      H13R           31.2540741588      -38.1895440902       -6.5046575213  MEMB      190             0.0000000000
     22039       190  SAPS      H13S           32.2683444335      -37.3419610483       -5.2936046156  MEMB      190             0.0000000000
     22040       190  SAPS      C214           32.0812220001      -39.3810138197       -4.9563940566  MEMB      190             0.0000000000
     22041       190  SAPS      H14R           31.3144665883      -40.0484043018       -5.3329388822  MEMB      190             0.0000000000
     22042       190  SAPS      C215           32.7685768955      -39.6463014116       -3.8283959829  MEMB      190             0.0000000000
     22043       190  SAPS      H15R           32.3689989773      -40.3406979105       -3.0813003791  MEMB      190             0.0000000000
     22044       190  SAPS      C216           33.8376312104      -38.8029380042       -3.3023867701  MEMB      190             0.0000000000
     22045       190  SAPS      H16R           33.9028052599      -37.9653436624       -3.9675238692  MEMB      190             0.0000000000
     22046       190  SAPS      H16S           34.7782255884      -39.3980759870       -3.2405866946  MEMB      190             0.0000000000
     22047       190  SAPS      C217           33.6026492508      -38.0877498973       -2.0258654126  MEMB      190             0.0000000000
     22048       190  SAPS      H17R           32.6621231141      -37.5031381712       -1.9488921770  MEMB      190             0.0000000000
     22049       190  SAPS      H17S           34.4765587862      -37.4054759859       -1.8526878902  MEMB      190             0.0000000000
     22050       190  SAPS      C218           33.6379381276      -39.1285506921       -1.0156616447  MEMB      190             0.0000000000
     22051       190  SAPS      H18R           34.1230496194      -40.0875472832       -1.3214852505  MEMB      190             0.0000000000
     22052       190  SAPS      H18S           32.5974983743      -39.3659318320       -0.6688311123  MEMB      190             0.0000000000
     22053       190  SAPS      C219           34.4196196968      -38.5641542107        0.0679284819  MEMB      190             0.0000000000
     22054       190  SAPS      H19R           33.8817027437      -37.5891720258        0.2366058984  MEMB      190             0.0000000000
     22055       190  SAPS      H19S           35.4902009345      -38.2714923392        0.0690289580  MEMB      190             0.0000000000
     22056       190  SAPS      C220           34.3450346385      -39.8335617208        0.8799385072  MEMB      190             0.0000000000
     22057       190  SAPS      H20R           33.2737480324      -40.1031744115        0.9327180026  MEMB      190             0.0000000000
     22058       190  SAPS      H20S           35.0747653061      -40.4543844988        0.3280043090  MEMB      190             0.0000000000
     22059       190  SAPS      H20T           34.7049989688      -39.9800107021        1.8956613348  MEMB      190             0.0000000000
     22060       190  SAPS      C33            30.4136904384      -34.8874816681      -14.6976265731  MEMB      190             0.0000000000
     22061       190  SAPS      H3X            31.5279103807      -34.9400038139      -14.7860949405  MEMB      190             0.0000000000
     22062       190  SAPS      H3Y            30.0221208769      -35.8758457319      -15.0273724300  MEMB      190             0.0000000000
     22063       190  SAPS      C34            30.0795848255      -34.6715585589      -13.2050779126  MEMB      190             0.0000000000
     22064       190  SAPS      H4X            30.2803947766      -33.6011853450      -12.9854638576  MEMB      190             0.0000000000
     22065       190  SAPS      H4Y            30.7799379208      -35.2808185772      -12.5874213134  MEMB      190             0.0000000000
     22066       190  SAPS      C35            28.6370718654      -35.0228880230      -12.7903468447  MEMB      190             0.0000000000
     22067       190  SAPS      H5X            28.3530743360      -36.0243158851      -13.1830833089  MEMB      190             0.0000000000
     22068       190  SAPS      H5Y            27.9822877971      -34.2765498309      -13.2990688418  MEMB      190             0.0000000000
     22069       190  SAPS      C36            28.3136747205      -34.9438546571      -11.2704003098  MEMB      190             0.0000000000
     22070       190  SAPS      H6X            27.2150635360      -35.1077606223      -11.1825473526  MEMB      190             0.0000000000
     22071       190  SAPS      H6Y            28.5418843691      -33.9276088628      -10.8829082198  MEMB      190             0.0000000000
     22072       190  SAPS      C37            28.9769650004      -35.9605556238      -10.3155405681  MEMB      190             0.0000000000
     22073       190  SAPS      H7X            30.0500743301      -35.7025790737      -10.1981828441  MEMB      190             0.0000000000
     22074       190  SAPS      H7Y            28.9233130182      -36.9664492456      -10.7986849805  MEMB      190             0.0000000000
     22075       190  SAPS      C38            28.2293723140      -36.0983463316       -8.9537838378  MEMB      190             0.0000000000
     22076       190  SAPS      H8X            28.4833778947      -37.0755419793       -8.4849030144  MEMB      190             0.0000000000
     22077       190  SAPS      H8Y            27.1473892546      -36.1594388564       -9.2151092509  MEMB      190             0.0000000000
     22078       190  SAPS      C39            28.3443534342      -34.9856320423       -7.8696096642  MEMB      190             0.0000000000
     22079       190  SAPS      H9X            27.6667560706      -35.2843496269       -7.0333261725  MEMB      190             0.0000000000
     22080       190  SAPS      H9Y            27.9667784622      -34.0221251135       -8.2691512313  MEMB      190             0.0000000000
     22081       190  SAPS      C310           29.7216474223      -34.7851382165       -7.2191508807  MEMB      190             0.0000000000
     22082       190  SAPS      H10X           30.4446539493      -34.3821123938       -7.9598689329  MEMB      190             0.0000000000
     22083       190  SAPS      H10Y           30.1044184959      -35.7742153531       -6.8789459335  MEMB      190             0.0000000000
     22084       190  SAPS      C311           29.7720076775      -33.8680692720       -5.9815290510  MEMB      190             0.0000000000
     22085       190  SAPS      H11X           29.3555123646      -34.4340506718       -5.1207042439  MEMB      190             0.0000000000
     22086       190  SAPS      H11Y           29.1626752504      -32.9421820235       -6.0878732506  MEMB      190             0.0000000000
     22087       190  SAPS      C312           31.2588468310      -33.5280157414       -5.7410332635  MEMB      190             0.0000000000
     22088       190  SAPS      H12X           31.5747065694      -32.6654712706       -6.3588554683  MEMB      190             0.0000000000
     22089       190  SAPS      H12Y           31.8387972138      -34.4599393485       -5.8985104197  MEMB      190             0.0000000000
     22090       190  SAPS      C313           31.5821831814      -33.0946293526       -4.3666289871  MEMB      190             0.0000000000
     22091       190  SAPS      H13X           31.3167120948      -33.9697652378       -3.6949841033  MEMB      190             0.0000000000
     22092       190  SAPS      H13Y           31.0274897964      -32.1218698013       -4.2765037916  MEMB      190             0.0000000000
     22093       190  SAPS      C314           32.9038623583      -32.6683909479       -3.8440736567  MEMB      190             0.0000000000
     22094       190  SAPS      H14X           32.8845174011      -32.3741586117       -2.7615838037  MEMB      190             0.0000000000
     22095       190  SAPS      H14Y           33.1976424139      -31.7859797358       -4.4346828270  MEMB      190             0.0000000000
     22096       190  SAPS      C315           33.7570475386      -33.8531771618       -4.0014198833  MEMB      190             0.0000000000
     22097       190  SAPS      H15X           34.1567558714      -33.6803851893       -5.0262197141  MEMB      190             0.0000000000
     22098       190  SAPS      H15Y           33.1994645600      -34.8229124885       -4.0045802676  MEMB      190             0.0000000000
     22099       190  SAPS      C316           34.7914939839      -33.8726515713       -2.9140236580  MEMB      190             0.0000000000
     22100       190  SAPS      H16X           35.2694886580      -32.8653456499       -2.8751650004  MEMB      190             0.0000000000
     22101       190  SAPS      H16Y           35.5357866901      -34.6499624527       -3.1660207062  MEMB      190             0.0000000000
     22102       190  SAPS      C317           34.3345715263      -34.3146440481       -1.5507331452  MEMB      190             0.0000000000
     22103       190  SAPS      H17X           33.5571816594      -35.0960241896       -1.6567055248  MEMB      190             0.0000000000
     22104       190  SAPS      H17Y           33.8975519698      -33.4377931082       -1.0306180903  MEMB      190             0.0000000000
     22105       190  SAPS      C318           35.5163854662      -34.8889075307       -0.7998308201  MEMB      190             0.0000000000
     22106       190  SAPS      H18X           35.2081327005      -35.3051207535        0.1822498637  MEMB      190             0.0000000000
     22107       190  SAPS      H18Y           36.2723411186      -34.0844231291       -0.6538130850  MEMB      190             0.0000000000
     22108       190  SAPS      H18Z           36.0453683201      -35.6955403371       -1.3610443328  MEMB      190             0.0000000000
     22109       191  CHL1      C3             38.2548297219      -29.3457109107      -17.4074559902  MEMB      191             0.0000000000
     22110       191  CHL1      H3             38.8338623794      -30.2428326203      -17.0843931336  MEMB      191             0.0000000000
     22111       191  CHL1      O3             38.2680282073      -29.1452992573      -18.7954484538  MEMB      191             0.0000000000
     22112       191  CHL1      H3'            39.1690331324      -28.8565210816      -18.9164807024  MEMB      191             0.0000000000
     22113       191  CHL1      C4             36.7970210324      -29.4925125253      -17.1085965826  MEMB      191             0.0000000000
     22114       191  CHL1      H4A            36.1281871661      -28.7247577194      -17.5338560640  MEMB      191             0.0000000000
     22115       191  CHL1      H4B            36.4561254147      -30.4974065452      -17.4670806077  MEMB      191             0.0000000000
     22116       191  CHL1      C5             36.6661095105      -29.3790151939      -15.6694788560  MEMB      191             0.0000000000
     22117       191  CHL1      C6             36.0986668223      -30.2681853124      -15.0732993424  MEMB      191             0.0000000000
     22118       191  CHL1      H6             35.7849716595      -31.1663344023      -15.6098409443  MEMB      191             0.0000000000
     22119       191  CHL1      C7             36.0373501519      -30.1953967070      -13.6380127973  MEMB      191             0.0000000000
     22120       191  CHL1      H7A            35.0959548624      -30.4743017440      -13.7543611325  MEMB      191             0.0000000000
     22121       191  CHL1      H7B            36.6544483037      -30.8396261177      -13.0419406974  MEMB      191             0.0000000000
     22122       191  CHL1      C8             35.9809643767      -29.0579154729      -12.7633558369  MEMB      191             0.0000000000
     22123       191  CHL1      H8             35.0717624385      -28.4711849633      -13.0078363685  MEMB      191             0.0000000000
     22124       191  CHL1      C14            36.0514085362      -29.2810507876      -11.2608354670  MEMB      191             0.0000000000
     22125       191  CHL1      H14            36.9486701510      -29.9903928982      -11.0652271869  MEMB      191             0.0000000000
     22126       191  CHL1      C15            34.7871186523      -29.6263561500      -10.5451867130  MEMB      191             0.0000000000
     22127       191  CHL1      H15A           33.8656723446      -29.5385094970      -11.0654064339  MEMB      191             0.0000000000
     22128       191  CHL1      H15B           35.2526060956      -30.4705682258      -10.8186116125  MEMB      191             0.0000000000
     22129       191  CHL1      C16            34.8469988752      -29.8408238335       -9.0852933803  MEMB      191             0.0000000000
     22130       191  CHL1      H16A           33.9031124008      -29.5165488157       -8.5984307671  MEMB      191             0.0000000000
     22131       191  CHL1      H16B           35.1893895083      -30.7833081934       -8.5900362047  MEMB      191             0.0000000000
     22132       191  CHL1      C17            35.9924066638      -28.9535046990       -9.0305229631  MEMB      191             0.0000000000
     22133       191  CHL1      H17            36.9256357928      -29.5886952054       -8.9601922292  MEMB      191             0.0000000000
     22134       191  CHL1      C13            36.2095558764      -28.1584367676      -10.3966030509  MEMB      191             0.0000000000
     22135       191  CHL1      C18            35.1001276562      -27.1014869789      -10.5428730364  MEMB      191             0.0000000000
     22136       191  CHL1      H18A           34.8336799915      -26.8852478803      -11.5779560447  MEMB      191             0.0000000000
     22137       191  CHL1      H18B           34.2330082618      -27.4024568110       -9.9555136541  MEMB      191             0.0000000000
     22138       191  CHL1      H18C           35.4208128892      -26.1674682143      -10.0615205221  MEMB      191             0.0000000000
     22139       191  CHL1      C12            37.5138166906      -27.6970835534      -10.9466443235  MEMB      191             0.0000000000
     22140       191  CHL1      H12A           37.7223272251      -26.6478853622      -10.6615921064  MEMB      191             0.0000000000
     22141       191  CHL1      H12B           38.2867972915      -28.4736214587      -10.8694045674  MEMB      191             0.0000000000
     22142       191  CHL1      C11            37.6053943620      -27.6084640576      -12.4149195110  MEMB      191             0.0000000000
     22143       191  CHL1      H11A           36.6503017540      -27.0559691491      -12.5651797154  MEMB      191             0.0000000000
     22144       191  CHL1      H11B           38.5741275757      -27.1498377199      -12.7091793936  MEMB      191             0.0000000000
     22145       191  CHL1      C9             37.3095830911      -28.7066448562      -13.2544279085  MEMB      191             0.0000000000
     22146       191  CHL1      H9             38.1102250144      -29.4520237407      -13.0163203385  MEMB      191             0.0000000000
     22147       191  CHL1      C10            37.3138621791      -28.4591294737      -14.7815557858  MEMB      191             0.0000000000
     22148       191  CHL1      C19            36.2536258176      -27.4480538379      -15.1263381122  MEMB      191             0.0000000000
     22149       191  CHL1      H19A           35.2433880334      -27.3837233118      -14.7004964974  MEMB      191             0.0000000000
     22150       191  CHL1      H19B           36.7982675644      -26.8175441971      -14.4548702645  MEMB      191             0.0000000000
     22151       191  CHL1      H19C           36.3085744755      -26.9650730825      -16.1267608248  MEMB      191             0.0000000000
     22152       191  CHL1      C1             38.7692802929      -28.2370464839      -15.1956165326  MEMB      191             0.0000000000
     22153       191  CHL1      H1A            39.1749747473      -27.3439446925      -14.6731387048  MEMB      191             0.0000000000
     22154       191  CHL1      H1B            39.3797474628      -29.0482292576      -14.7639021924  MEMB      191             0.0000000000
     22155       191  CHL1      C2             38.9165855314      -28.1508230329      -16.7294992174  MEMB      191             0.0000000000
     22156       191  CHL1      H2A            39.9884658515      -28.0069019299      -16.9390917344  MEMB      191             0.0000000000
     22157       191  CHL1      H2B            38.4140130280      -27.2916826826      -17.2236042500  MEMB      191             0.0000000000
     22158       191  CHL1      C20            35.5415213790      -28.2398880516       -7.7660869013  MEMB      191             0.0000000000
     22159       191  CHL1      H20            34.6933574351      -27.6025317535       -7.8805965142  MEMB      191             0.0000000000
     22160       191  CHL1      C21            36.4154101393      -27.2449343913       -8.0082767390  MEMB      191             0.0000000000
     22161       191  CHL1      H21A           37.1379970268      -28.0712778648       -7.7765581566  MEMB      191             0.0000000000
     22162       191  CHL1      H21B           36.9190143945      -26.4222922182       -7.5820549165  MEMB      191             0.0000000000
     22163       191  CHL1      H21C           36.5252784489      -26.4431969804       -8.7205784521  MEMB      191             0.0000000000
     22164       191  CHL1      C22            35.4836393689      -29.1849930193       -6.4742002330  MEMB      191             0.0000000000
     22165       191  CHL1      H22A           34.4281510331      -29.4994694374       -6.5566772964  MEMB      191             0.0000000000
     22166       191  CHL1      H22B           36.2422117479      -29.9866109195       -6.5666542843  MEMB      191             0.0000000000
     22167       191  CHL1      C23            35.6600512428      -28.8450243461       -4.9870475876  MEMB      191             0.0000000000
     22168       191  CHL1      H23A           36.6797294321      -29.0073766039       -4.6043793832  MEMB      191             0.0000000000
     22169       191  CHL1      H23B           35.3633929901      -27.8463723869       -4.8144467738  MEMB      191             0.0000000000
     22170       191  CHL1      C24            34.8266254553      -29.3422699260       -3.8781229600  MEMB      191             0.0000000000
     22171       191  CHL1      H24A           33.7953071407      -28.9966194619       -4.1159215307  MEMB      191             0.0000000000
     22172       191  CHL1      H24B           34.9288138827      -30.4266231732       -3.9758300820  MEMB      191             0.0000000000
     22173       191  CHL1      C25            35.3857356854      -28.7561698742       -2.5401767565  MEMB      191             0.0000000000
     22174       191  CHL1      H25            35.7155399600      -27.6862883287       -2.5708306065  MEMB      191             0.0000000000
     22175       191  CHL1      C26            34.2672191841      -28.9497952457       -1.5496218428  MEMB      191             0.0000000000
     22176       191  CHL1      H26A           33.3855562142      -28.3206803948       -1.7673910153  MEMB      191             0.0000000000
     22177       191  CHL1      H26B           33.9620294189      -30.0030670296       -1.7171364949  MEMB      191             0.0000000000
     22178       191  CHL1      H26C           34.5886965247      -28.7540134728       -0.5139618745  MEMB      191             0.0000000000
     22179       191  CHL1      C27            36.6378276415      -29.4744115672       -2.0853901657  MEMB      191             0.0000000000
     22180       191  CHL1      H27A           37.4763963912      -29.2201873866       -2.7625268935  MEMB      191             0.0000000000
     22181       191  CHL1      H27B           36.9244833097      -29.1658991665       -1.0578658336  MEMB      191             0.0000000000
     22182       191  CHL1      H27C           36.4000927137      -30.5538071308       -2.1434760305  MEMB      191             0.0000000000
     22183       192  SLPC      N             -34.1445274330      -39.5688720001      -16.9564463088  MEMB      192             0.0000000000
     22184       192  SLPC      C13           -33.0108136215      -39.1493137106      -17.8518542391  MEMB      192             0.0000000000
     22185       192  SLPC      H13A          -33.1024718910      -38.0814871960      -18.0542310648  MEMB      192             0.0000000000
     22186       192  SLPC      H13B          -32.0459046336      -39.2990358185      -17.3976074572  MEMB      192             0.0000000000
     22187       192  SLPC      H13C          -33.0499435554      -39.6653328950      -18.8058311658  MEMB      192             0.0000000000
     22188       192  SLPC      C14           -33.9754242628      -40.9409003507      -16.6860633340  MEMB      192             0.0000000000
     22189       192  SLPC      H14A          -34.0212004175      -41.5021589017      -17.6247203465  MEMB      192             0.0000000000
     22190       192  SLPC      H14B          -32.9757643737      -41.1885149089      -16.3075544804  MEMB      192             0.0000000000
     22191       192  SLPC      H14C          -34.7172785357      -41.3966311806      -16.0455954929  MEMB      192             0.0000000000
     22192       192  SLPC      C15           -35.4105206953      -39.4563345385      -17.7451366150  MEMB      192             0.0000000000
     22193       192  SLPC      H15A          -35.8534017874      -38.4735940899      -17.5935421102  MEMB      192             0.0000000000
     22194       192  SLPC      H15B          -35.1953284797      -39.5154605030      -18.8073727210  MEMB      192             0.0000000000
     22195       192  SLPC      H15C          -36.1097650403      -40.2333905367      -17.4734817116  MEMB      192             0.0000000000
     22196       192  SLPC      C12           -34.1876870985      -38.8602181173      -15.6253489572  MEMB      192             0.0000000000
     22197       192  SLPC      H12A          -33.2054179167      -38.8828973219      -15.1635814494  MEMB      192             0.0000000000
     22198       192  SLPC      H12B          -34.8469608975      -39.4190146850      -14.9752751119  MEMB      192             0.0000000000
     22199       192  SLPC      C11           -34.6569770796      -37.4115400166      -15.6609168017  MEMB      192             0.0000000000
     22200       192  SLPC      H11A          -34.5094582730      -36.9291650956      -14.6708684878  MEMB      192             0.0000000000
     22201       192  SLPC      H11B          -35.7502910832      -37.4042241121      -15.8934216516  MEMB      192             0.0000000000
     22202       192  SLPC      P             -34.5343539250      -35.5248306533      -17.4346885100  MEMB      192             0.0000000000
     22203       192  SLPC      O13           -33.4512736684      -34.8153931418      -18.1496360176  MEMB      192             0.0000000000
     22204       192  SLPC      O14           -35.7281335745      -35.9740708179      -18.1793426947  MEMB      192             0.0000000000
     22205       192  SLPC      O12           -33.8895255668      -36.7327578178      -16.6359923514  MEMB      192             0.0000000000
     22206       192  SLPC      O11           -35.0385864923      -34.6733680201      -16.2176940865  MEMB      192             0.0000000000
     22207       192  SLPC      C1            -34.9586264056      -33.2638361983      -16.2424279406  MEMB      192             0.0000000000
     22208       192  SLPC      HA            -34.1519286635      -32.8488546199      -16.9003289698  MEMB      192             0.0000000000
     22209       192  SLPC      HB            -35.9296720950      -32.8424825962      -16.5898308596  MEMB      192             0.0000000000
     22210       192  SLPC      C2            -34.6268965273      -32.8129039324      -14.8067355244  MEMB      192             0.0000000000
     22211       192  SLPC      HS            -34.0987101784      -31.8194637486      -14.9262477315  MEMB      192             0.0000000000
     22212       192  SLPC      O21           -33.9563233203      -33.6452171723      -13.9235479278  MEMB      192             0.0000000000
     22213       192  SLPC      C21           -32.8800916902      -33.9880352691      -14.3644338994  MEMB      192             0.0000000000
     22214       192  SLPC      O22           -32.3032050555      -33.5344082203      -15.3466597197  MEMB      192             0.0000000000
     22215       192  SLPC      C22           -32.4530674236      -34.9673635339      -13.2832318973  MEMB      192             0.0000000000
     22216       192  SLPC      H2R           -32.5858497653      -34.5052876938      -12.2714246022  MEMB      192             0.0000000000
     22217       192  SLPC      H2S           -33.0375181725      -35.8804232840      -13.4288921623  MEMB      192             0.0000000000
     22218       192  SLPC      C3            -35.7530525632      -32.5807410206      -13.9634217590  MEMB      192             0.0000000000
     22219       192  SLPC      HX            -36.2880956211      -32.0976392025      -14.6834503935  MEMB      192             0.0000000000
     22220       192  SLPC      HY            -35.3629041108      -31.9810959595      -13.0928547491  MEMB      192             0.0000000000
     22221       192  SLPC      O31           -36.6531064904      -33.6312631872      -13.7203309803  MEMB      192             0.0000000000
     22222       192  SLPC      C31           -36.6627884351      -34.0209950705      -12.4995266239  MEMB      192             0.0000000000
     22223       192  SLPC      O32           -36.0950449698      -33.5051022297      -11.5487334295  MEMB      192             0.0000000000
     22224       192  SLPC      C32           -37.5121020512      -35.2582165384      -12.4811825849  MEMB      192             0.0000000000
     22225       192  SLPC      H2X           -38.0589234773      -35.4015441435      -13.4419839552  MEMB      192             0.0000000000
     22226       192  SLPC      H2Y           -38.2445793020      -35.1233604073      -11.6703646427  MEMB      192             0.0000000000
     22227       192  SLPC      C23           -31.0376287658      -35.3281123477      -13.4594755017  MEMB      192             0.0000000000
     22228       192  SLPC      H3R           -30.6385131086      -34.4993006670      -12.8569736843  MEMB      192             0.0000000000
     22229       192  SLPC      H3S           -30.8476344978      -35.3357265187      -14.5435579222  MEMB      192             0.0000000000
     22230       192  SLPC      C24           -30.4033512511      -36.4079441484      -12.6558906315  MEMB      192             0.0000000000
     22231       192  SLPC      H4R           -30.7860634790      -36.3247413354      -11.6286205365  MEMB      192             0.0000000000
     22232       192  SLPC      H4S           -29.3685891046      -36.0862790707      -12.5478096478  MEMB      192             0.0000000000
     22233       192  SLPC      C25           -30.5787841182      -37.7690435887      -13.2847646688  MEMB      192             0.0000000000
     22234       192  SLPC      H5R           -30.0693324242      -37.8200343482      -14.2760461109  MEMB      192             0.0000000000
     22235       192  SLPC      H5S           -31.6634651213      -37.8757575790      -13.4856772705  MEMB      192             0.0000000000
     22236       192  SLPC      C26           -30.1742662866      -38.9118664396      -12.3602858171  MEMB      192             0.0000000000
     22237       192  SLPC      H6R           -29.0806256495      -38.9781475437      -12.2723321813  MEMB      192             0.0000000000
     22238       192  SLPC      H6S           -30.5211262175      -39.8576087820      -12.8212139527  MEMB      192             0.0000000000
     22239       192  SLPC      C27           -30.6667027121      -38.8219406840      -10.9100800528  MEMB      192             0.0000000000
     22240       192  SLPC      H7R           -30.2502944839      -37.9355125229      -10.3813563170  MEMB      192             0.0000000000
     22241       192  SLPC      H7S           -30.2188871440      -39.6948870127      -10.3820616535  MEMB      192             0.0000000000
     22242       192  SLPC      C28           -32.1977767223      -38.9303001795      -10.7568938751  MEMB      192             0.0000000000
     22243       192  SLPC      H8R           -32.3451239782      -39.5832106027       -9.8688209669  MEMB      192             0.0000000000
     22244       192  SLPC      H8S           -32.6294297076      -39.5097757383      -11.5975788253  MEMB      192             0.0000000000
     22245       192  SLPC      C29           -32.9718532376      -37.6479863330      -10.5575722004  MEMB      192             0.0000000000
     22246       192  SLPC      H9R           -33.6850564949      -37.3856534226      -11.3522198375  MEMB      192             0.0000000000
     22247       192  SLPC      C210          -32.8050328140      -36.8081128563       -9.5224457635  MEMB      192             0.0000000000
     22248       192  SLPC      H10R          -33.4321831827      -35.9044189254       -9.4295050306  MEMB      192             0.0000000000
     22249       192  SLPC      C211          -31.8115693226      -37.0370014573       -8.4207515128  MEMB      192             0.0000000000
     22250       192  SLPC      H11R          -30.8883401509      -36.5035740373       -8.7400800612  MEMB      192             0.0000000000
     22251       192  SLPC      H11S          -31.5352277625      -38.1060176982       -8.3105206573  MEMB      192             0.0000000000
     22252       192  SLPC      C212          -32.3043287639      -36.5486095243       -7.0975773022  MEMB      192             0.0000000000
     22253       192  SLPC      H12R          -32.8535611512      -35.5878611283       -7.1113224285  MEMB      192             0.0000000000
     22254       192  SLPC      C213          -32.1053341056      -37.1559149122       -5.9143844915  MEMB      192             0.0000000000
     22255       192  SLPC      H13R          -32.4637772373      -36.5989957220       -5.0283370323  MEMB      192             0.0000000000
     22256       192  SLPC      C214          -31.3470121626      -38.4606038311       -5.6219455461  MEMB      192             0.0000000000
     22257       192  SLPC      H14R          -30.6265775907      -38.5528363848       -4.7643496029  MEMB      192             0.0000000000
     22258       192  SLPC      H14S          -30.6443770842      -38.6998694364       -6.4326829690  MEMB      192             0.0000000000
     22259       192  SLPC      C215          -32.2908855833      -39.4985892146       -5.0638487475  MEMB      192             0.0000000000
     22260       192  SLPC      H15R          -31.6864672155      -40.3236104387       -4.6122527190  MEMB      192             0.0000000000
     22261       192  SLPC      H15S          -32.8917392626      -39.8714372300       -5.9104827332  MEMB      192             0.0000000000
     22262       192  SLPC      C216          -33.1395268922      -38.9930006280       -3.8899542638  MEMB      192             0.0000000000
     22263       192  SLPC      H16R          -33.6919846517      -38.0578959638       -4.1240096206  MEMB      192             0.0000000000
     22264       192  SLPC      H16S          -32.4627810935      -38.7735942997       -3.0282639811  MEMB      192             0.0000000000
     22265       192  SLPC      C217          -34.1038776846      -40.0693019346       -3.4149247634  MEMB      192             0.0000000000
     22266       192  SLPC      H17R          -33.4899300663      -40.9820248234       -3.2323797064  MEMB      192             0.0000000000
     22267       192  SLPC      H17S          -34.8542311081      -40.3215350516       -4.1984534953  MEMB      192             0.0000000000
     22268       192  SLPC      C218          -34.8079709026      -39.5949867619       -2.1528280269  MEMB      192             0.0000000000
     22269       192  SLPC      H18R          -34.0459481368      -39.2876224243       -1.4024302384  MEMB      192             0.0000000000
     22270       192  SLPC      H18S          -35.4809873114      -40.3703379843       -1.7312317579  MEMB      192             0.0000000000
     22271       192  SLPC      H18T          -35.4210050017      -38.7001459289       -2.3954580963  MEMB      192             0.0000000000
     22272       192  SLPC      C33           -36.5715781677      -36.4192497160      -12.2062958573  MEMB      192             0.0000000000
     22273       192  SLPC      H3X           -36.1054783750      -36.2250565262      -11.2148261404  MEMB      192             0.0000000000
     22274       192  SLPC      H3Y           -35.7569715377      -36.4380791311      -12.9668002323  MEMB      192             0.0000000000
     22275       192  SLPC      C34           -37.3101655262      -37.7552949909      -12.1993795910  MEMB      192             0.0000000000
     22276       192  SLPC      H4X           -37.3910839654      -38.0667788788      -13.2678094967  MEMB      192             0.0000000000
     22277       192  SLPC      H4Y           -38.3457409556      -37.6162236473      -11.8129045778  MEMB      192             0.0000000000
     22278       192  SLPC      C35           -36.5631756362      -38.8220096522      -11.3777654653  MEMB      192             0.0000000000
     22279       192  SLPC      H5X           -35.4891384156      -38.7727806028      -11.6603204470  MEMB      192             0.0000000000
     22280       192  SLPC      H5Y           -36.9430122730      -39.8263998409      -11.6650876805  MEMB      192             0.0000000000
     22281       192  SLPC      C36           -36.7249389409      -38.6832897667       -9.8464184117  MEMB      192             0.0000000000
     22282       192  SLPC      H6X           -37.8055498984      -38.7086810787       -9.5964964580  MEMB      192             0.0000000000
     22283       192  SLPC      H6Y           -36.3115692504      -37.7120202577       -9.4936948859  MEMB      192             0.0000000000
     22284       192  SLPC      C37           -36.0775134377      -39.8044894320       -9.0125851452  MEMB      192             0.0000000000
     22285       192  SLPC      H7X           -34.9778359918      -39.7528664122       -9.1675751166  MEMB      192             0.0000000000
     22286       192  SLPC      H7Y           -36.4147154099      -40.7956362065       -9.3962333279  MEMB      192             0.0000000000
     22287       192  SLPC      C38           -36.4511070065      -39.7355055641       -7.5059913663  MEMB      192             0.0000000000
     22288       192  SLPC      H8X           -35.8329648027      -40.4637540181       -6.9411169680  MEMB      192             0.0000000000
     22289       192  SLPC      H8Y           -37.5049569037      -40.0826104103       -7.4128400532  MEMB      192             0.0000000000
     22290       192  SLPC      C39           -36.2646992119      -38.3577813730       -6.8191636239  MEMB      192             0.0000000000
     22291       192  SLPC      H9X           -36.8085355548      -37.5667771608       -7.3679161696  MEMB      192             0.0000000000
     22292       192  SLPC      H9Y           -35.1937638485      -38.0771066682       -6.8737828364  MEMB      192             0.0000000000
     22293       192  SLPC      C310          -36.7062435012      -38.2866023313       -5.3445555344  MEMB      192             0.0000000000
     22294       192  SLPC      H10X          -35.8325434560      -38.1988798984       -4.6668216442  MEMB      192             0.0000000000
     22295       192  SLPC      H10Y          -37.2746883035      -39.1980449436       -5.0588539028  MEMB      192             0.0000000000
     22296       192  SLPC      C311          -37.6281711040      -37.1251784005       -5.0008234727  MEMB      192             0.0000000000
     22297       192  SLPC      H11X          -37.8061346449      -37.0974561789       -3.9052299818  MEMB      192             0.0000000000
     22298       192  SLPC      H11Y          -38.6056457320      -37.2619144870       -5.4516861890  MEMB      192             0.0000000000
     22299       192  SLPC      C312          -37.2840951873      -35.7530039517       -5.4645721579  MEMB      192             0.0000000000
     22300       192  SLPC      H12X          -38.1082317626      -35.1472221376       -5.0993579611  MEMB      192             0.0000000000
     22301       192  SLPC      H12Y          -37.3122678288      -35.6348059036       -6.5578223795  MEMB      192             0.0000000000
     22302       192  SLPC      C313          -36.0797967965      -35.2411717047       -4.7638180608  MEMB      192             0.0000000000
     22303       192  SLPC      H13X          -35.1957738266      -35.5792120265       -5.3489005788  MEMB      192             0.0000000000
     22304       192  SLPC      H13Y          -36.0261383987      -35.6991097944       -3.7427241320  MEMB      192             0.0000000000
     22305       192  SLPC      C314          -36.2063803466      -33.7298479508       -4.6344269577  MEMB      192             0.0000000000
     22306       192  SLPC      H14X          -36.4810034876      -33.3619067525       -3.6250686023  MEMB      192             0.0000000000
     22307       192  SLPC      H14Y          -36.6958172457      -33.1896915693       -5.4601448500  MEMB      192             0.0000000000
     22308       192  SLPC      C315          -34.9026603914      -33.2075952402       -4.6650253132  MEMB      192             0.0000000000
     22309       192  SLPC      H15X          -34.8695264615      -32.0846789093       -4.6928967358  MEMB      192             0.0000000000
     22310       192  SLPC      H15Y          -34.4456864085      -33.5942275708       -5.6049892320  MEMB      192             0.0000000000
     22311       192  SLPC      C316          -34.2003924577      -33.8689321848       -3.4943907414  MEMB      192             0.0000000000
     22312       192  SLPC      H16X          -33.7238343273      -32.8884904810       -3.4378070427  MEMB      192             0.0000000000
     22313       192  SLPC      H16Y          -33.5572286901      -34.7189562411       -3.7922877967  MEMB      192             0.0000000000
     22314       192  SLPC      C317          -34.5645990213      -34.0075118452       -2.0594270332  MEMB      192             0.0000000000
     22315       192  SLPC      H17X          -35.3822890554      -34.7051159062       -2.0376657305  MEMB      192             0.0000000000
     22316       192  SLPC      H17Y          -34.9255051978      -32.9772164676       -1.7939385958  MEMB      192             0.0000000000
     22317       192  SLPC      C318          -33.4528035242      -34.6392826139       -1.1620031871  MEMB      192             0.0000000000
     22318       192  SLPC      H18X          -32.9245107574      -34.4038141682       -0.2246301336  MEMB      192             0.0000000000
     22319       192  SLPC      H18Y          -33.1216308646      -33.7015591470       -0.6731470859  MEMB      192             0.0000000000
     22320       192  SLPC      H18Z          -32.9218127331      -35.5605045506       -1.2905250799  MEMB      192             0.0000000000
     22321       193  TIP3      OH2             3.3865338849        4.3726991497       20.3150033182  TIP3      1               0.0000000000
     22322       193  TIP3      H1              3.3336558763        5.2942812804       20.0623527196  TIP3      1               0.0000000000
     22323       193  TIP3      H2              3.0498483036        3.9293073561       19.5192712331  TIP3      1               0.0000000000
     22324       194  TIP3      OH2             1.3563806242        1.9422586949       21.3075073589  TIP3      2               0.0000000000
     22325       194  TIP3      H1              1.8053497144        2.5047613890       20.6553521370  TIP3      2               0.0000000000
     22326       194  TIP3      H2              1.6442204366        1.0596598034       21.1115947407  TIP3      2               0.0000000000
     22327       195  TIP3      OH2            -5.3076054677        5.5458851937       20.6905214058  TIP3      3               0.0000000000
     22328       195  TIP3      H1             -5.9658744235        5.4742225248       21.3989807580  TIP3      3               0.0000000000
     22329       195  TIP3      H2             -5.7297682057        4.9784841932       20.0255519616  TIP3      3               0.0000000000
     22330       196  TIP3      OH2            -6.7258285958        1.4275652954       20.3057304330  TIP3      4               1.4200000000
     22331       196  TIP3      H1             -7.1844073437        0.9489471786       21.0057423722  TIP3      4               0.7600000000
     22332       196  TIP3      H2             -5.9415472411        0.8652044501       20.1929565565  TIP3      4               1.6200000000
     22333       197  TIP3      OH2            -1.6536293589       10.2968405309       21.2772206467  TIP3      5               0.0000000000
     22334       197  TIP3      H1             -0.7332799049       10.0456306279       21.2163380390  TIP3      5               0.0000000000
     22335       197  TIP3      H2             -1.9762173642       10.3553255533       20.3589384861  TIP3      5               0.0000000000
     22336       198  TIP3      OH2             6.9720879241        8.5396899262       20.9584726590  TIP3      6               0.0000000000
     22337       198  TIP3      H1              6.6643147915        7.8132268358       21.4890181124  TIP3      6               0.0000000000
     22338       198  TIP3      H2              6.1794581000        8.8195265845       20.4821434891  TIP3      6               0.0000000000
     22339       199  TIP3      OH2             7.6903207382       11.5456611109       18.7260430853  TIP3      7               0.0000000000
     22340       199  TIP3      H1              7.7440818358       12.3682698584       18.2118022697  TIP3      7               0.0000000000
     22341       199  TIP3      H2              8.5459258402       11.1530766115       18.5302333458  TIP3      7               0.0000000000
     22342       200  TIP3      OH2             3.4649179323        8.7687545565       20.5930155424  TIP3      8               0.0000000000
     22343       200  TIP3      H1              3.3230519828        9.5057993007       21.2003801770  TIP3      8               0.0000000000
     22344       200  TIP3      H2              3.9903209012        9.2103264395       19.8949177831  TIP3      8               0.0000000000
     22345       201  TIP3      OH2             7.7163822514       13.9015169342       17.4354252847  TIP3      9               0.0000000000
     22346       201  TIP3      H1              8.4312577890       14.4446659099       17.7648760740  TIP3      9               0.0000000000
     22347       201  TIP3      H2              7.0000366063       14.1117637733       18.0572263278  TIP3      9               0.0000000000
     22348       202  TIP3      OH2            -8.3113458273      -12.4322814198       19.1549399268  TIP3      10              0.0000000000
     22349       202  TIP3      H1             -9.2062062199      -12.7953193745       19.1729636973  TIP3      10              0.0000000000
     22350       202  TIP3      H2             -7.7857102428      -13.2218744184       19.2941989619  TIP3      10              0.0000000000
     22351       203  TIP3      OH2            -4.7895235103       -7.8703774409       19.2691536571  TIP3      11              0.0000000000
     22352       203  TIP3      H1             -4.8593599796       -7.6583754182       20.1941699643  TIP3      11              0.0000000000
     22353       203  TIP3      H2             -5.2173501291       -8.7363799758       19.1845220449  TIP3      11              0.0000000000
     22354       204  TIP3      OH2            -8.9700081627       -9.3135944186       19.9759187721  TIP3      12              0.0000000000
     22355       204  TIP3      H1             -8.5790307302       -8.4570220451       20.1334120952  TIP3      12              0.0000000000
     22356       204  TIP3      H2             -8.3705455676       -9.6430524543       19.2744708256  TIP3      12              0.0000000000
     22357       205  TIP3      OH2            11.6063044860       -9.3332395984       19.9189547081  TIP3      13              5.1400000000
     22358       205  TIP3      H1             12.4859552009       -9.2068000023       20.2623257844  TIP3      13              6.0000000000
     22359       205  TIP3      H2             11.0468007661       -9.2746475294       20.6998371056  TIP3      13              4.9300000000
     22360       206  TIP3      OH2            11.4454537725      -12.6796942140       20.1093252953  TIP3      14              0.0000000000
     22361       206  TIP3      H1             10.7903847646      -12.3702501127       19.4611797743  TIP3      14              0.0000000000
     22362       206  TIP3      H2             11.5501290356      -11.9149598828       20.6733762968  TIP3      14              0.0000000000
     22363       207  TIP3      OH2           -13.1263347655      -10.9764911814       20.6564838216  TIP3      15              0.0000000000
     22364       207  TIP3      H1            -13.8590911742      -10.8473793447       19.9951468055  TIP3      15              0.0000000000
     22365       207  TIP3      H2            -12.3949042976      -10.8306173573       20.0640044805  TIP3      15              0.0000000000
     22366       208  TIP3      OH2            17.8703470324        0.5158994007       20.8578416922  TIP3      16              0.0000000000
     22367       208  TIP3      H1             17.8150450970        1.0695367633       20.0609585032  TIP3      16              0.0000000000
     22368       208  TIP3      H2             17.1608065925        0.8479654054       21.4064780805  TIP3      16              0.0000000000
     22369       209  TIP3      OH2            20.2346494958        2.8941816517       19.4625322804  TIP3      17              0.0000000000
     22370       209  TIP3      H1             20.0937419471        3.8298388482       19.5581743232  TIP3      17              0.0000000000
     22371       209  TIP3      H2             19.4238664908        2.5984425609       19.0220193240  TIP3      17              0.0000000000
     22372       210  TIP3      OH2            14.9118159057        2.2316796916       19.5494018971  TIP3      18              0.0000000000
     22373       210  TIP3      H1             14.2831928853        1.5520189375       19.7889733037  TIP3      18              0.0000000000
     22374       210  TIP3      H2             14.4010540421        2.9889783277       19.2435028633  TIP3      18              0.0000000000
     22375       211  TIP3      OH2            10.3525122142       15.7359306434       20.4973153704  TIP3      19              0.0000000000
     22376       211  TIP3      H1              9.8169686591       15.3501527009       21.2092619604  TIP3      19              0.0000000000
     22377       211  TIP3      H2             11.0535751545       16.2061227219       20.9516060243  TIP3      19              0.0000000000
     22378       212  TIP3      OH2            11.1429157184      -18.6897877931       20.9188781043  TIP3      20              0.0000000000
     22379       212  TIP3      H1             11.5692584900      -17.8377963008       20.7728198872  TIP3      20              0.0000000000
     22380       212  TIP3      H2             10.7822078403      -18.8722685249       20.0486344207  TIP3      20              0.0000000000
     22381       213  TIP3      OH2             4.0621453448      -22.5032285426       18.7576055802  TIP3      21              0.0000000000
     22382       213  TIP3      H1              4.7157356588      -23.1946373490       18.6078016646  TIP3      21              0.0000000000
     22383       213  TIP3      H2              4.4299069592      -21.7248580670       18.3080694487  TIP3      21              0.0000000000
     22384       214  TIP3      OH2            -9.5848955362       25.4014344317       21.6211587970  TIP3      22              0.0000000000
     22385       214  TIP3      H1             -8.6459056920       25.3930299048       21.4265019173  TIP3      22              0.0000000000
     22386       214  TIP3      H2             -9.5938499751       25.5042075089       22.5830024290  TIP3      22              0.0000000000
     22387       215  TIP3      OH2           -12.2213292800       25.0743520786       20.0595961000  TIP3      23              0.0000000000
     22388       215  TIP3      H1            -11.6131979885       25.1027298400       20.8102865278  TIP3      23              0.0000000000
     22389       215  TIP3      H2            -11.7260991259       25.6574968540       19.4447525450  TIP3      23              0.0000000000
     22390       216  TIP3      OH2           -21.8358127024       16.4782083428       20.6528493142  TIP3      24              0.0000000000
     22391       216  TIP3      H1            -22.5297525031       15.8278571682       20.5644927321  TIP3      24              0.0000000000
     22392       216  TIP3      H2            -21.9059039431       17.0255860813       19.8551240984  TIP3      24              0.0000000000
     22393       217  TIP3      OH2           -24.3673584721       20.1544441377       19.9942404686  TIP3      25              0.0000000000
     22394       217  TIP3      H1            -23.7369607508       20.7630983259       20.3930870056  TIP3      25              0.0000000000
     22395       217  TIP3      H2            -25.2255977471       20.5366556150       20.2175985346  TIP3      25              0.0000000000
     22396       218  TIP3      OH2           -16.1155455705       24.8269091334       19.7520957967  TIP3      26              0.0000000000
     22397       218  TIP3      H1            -15.8857306122       24.6422141107       20.6570042762  TIP3      26              0.0000000000
     22398       218  TIP3      H2            -15.2623304689       24.9213456047       19.3065738999  TIP3      26              0.0000000000
     22399       219  TIP3      OH2           -19.7873019795       28.0518846707       20.0454290193  TIP3      27              0.0000000000
     22400       219  TIP3      H1            -19.2464201937       27.3618592691       19.5962738622  TIP3      27              0.0000000000
     22401       219  TIP3      H2            -20.6564335417       27.6403988575       20.0897887590  TIP3      27              0.0000000000
     22402       220  TIP3      OH2             4.5928576215      -32.0232628420       21.5563139258  TIP3      28              0.0000000000
     22403       220  TIP3      H1              4.4404673765      -31.3862641431       20.8662092507  TIP3      28              0.0000000000
     22404       220  TIP3      H2              3.7587139355      -32.0689402977       22.0168896138  TIP3      28              0.0000000000
     22405       221  TIP3      OH2             8.7066918375      -31.7892439816       19.6206352370  TIP3      29              0.0000000000
     22406       221  TIP3      H1              8.3865654487      -32.0426811526       20.4782120933  TIP3      29              0.0000000000
     22407       221  TIP3      H2              7.8980123393      -31.4342333147       19.2017357071  TIP3      29              0.0000000000
     22408       222  TIP3      OH2           -12.2894817380      -32.9901095715       20.1391483532  TIP3      30              0.0000000000
     22409       222  TIP3      H1            -11.8600194540      -33.6300038718       20.7187160294  TIP3      30              0.0000000000
     22410       222  TIP3      H2            -12.5810045026      -32.3577065445       20.7913985296  TIP3      30              0.0000000000
     22411       223  TIP3      OH2            -7.9906519692      -30.4354426784       20.0046675221  TIP3      31              0.0000000000
     22412       223  TIP3      H1             -8.7648892685      -30.2227304549       20.5231863004  TIP3      31              0.0000000000
     22413       223  TIP3      H2             -8.3135748061      -31.2017377826       19.5078784625  TIP3      31              0.0000000000
     22414       224  TIP3      OH2           -14.7249136304      -30.6216965756       19.2505688714  TIP3      32              0.0000000000
     22415       224  TIP3      H1            -14.0282598342      -29.9954495065       19.4153872707  TIP3      32              0.0000000000
     22416       224  TIP3      H2            -14.3461118033      -31.4831207271       19.4814500273  TIP3      32              0.0000000000
     22417       225  TIP3      OH2           -18.7526895978      -32.7704187057       19.4788343145  TIP3      33              0.0000000000
     22418       225  TIP3      H1            -18.3560936709      -31.8922813044       19.4026195970  TIP3      33              0.0000000000
     22419       225  TIP3      H2            -19.5575039143      -32.6727865819       18.9591932671  TIP3      33              0.0000000000
     22420       226  TIP3      OH2           -19.2576152458      -28.7761724395       20.2994598549  TIP3      34              0.0000000000
     22421       226  TIP3      H1            -19.1436824928      -29.2292911947       21.1262134477  TIP3      34              0.0000000000
     22422       226  TIP3      H2            -18.6360218094      -29.1623208009       19.6716605189  TIP3      34              0.0000000000
     22423       227  TIP3      OH2            32.9921395480      -11.9915338841       18.9896905453  TIP3      35              0.0000000000
     22424       227  TIP3      H1             33.6584411786      -12.6596380239       19.1477753644  TIP3      35              0.0000000000
     22425       227  TIP3      H2             33.5169165428      -11.2238887064       18.7174771668  TIP3      35              0.0000000000
     22426       228  TIP3      OH2            35.8747961455      -11.2617549702       20.8335549568  TIP3      36              0.0000000000
     22427       228  TIP3      H1             36.0400350927      -10.6571095862       20.0895449188  TIP3      36              0.0000000000
     22428       228  TIP3      H2             35.6123880197      -12.0672084136       20.3610682550  TIP3      36              0.0000000000
     22429       229  TIP3      OH2           -32.8425209387       14.2540101614       19.6355415008  TIP3      37              0.0000000000
     22430       229  TIP3      H1            -32.2764579877       14.3785751392       20.4006106049  TIP3      37              0.0000000000
     22431       229  TIP3      H2            -33.2962864801       13.4269594630       19.8043603138  TIP3      37              0.0000000000
     22432       230  TIP3      OH2           -22.1267538670       30.0005109179       19.1744447733  TIP3      38              0.0000000000
     22433       230  TIP3      H1            -21.8652009611       30.5889061052       19.8989366176  TIP3      38              0.0000000000
     22434       230  TIP3      H2            -21.3761947981       30.0473209154       18.5739605965  TIP3      38              0.0000000000
     22435       231  TIP3      OH2           -22.6859923618       27.3972724299       19.8233295521  TIP3      39              0.0000000000
     22436       231  TIP3      H1            -22.0751130079       26.9804586378       19.2096181776  TIP3      39              0.0000000000
     22437       231  TIP3      H2            -22.6426481866       28.3476129143       19.5876251269  TIP3      39              0.0000000000
     22438       232  TIP3      OH2           -25.7428501034       27.3841880516       20.3581585243  TIP3      40              0.0000000000
     22439       232  TIP3      H1            -24.8828961885       27.5743670285       19.9409512081  TIP3      40              0.0000000000
     22440       232  TIP3      H2            -25.4741731996       27.3289855828       21.2732631527  TIP3      40              0.0000000000
     22441       233  TIP3      OH2           -36.5883370092      -20.6132181310       19.3986602558  TIP3      41              0.0000000000
     22442       233  TIP3      H1            -37.2844793539      -21.2208372292       19.0787115805  TIP3      41              0.0000000000
     22443       233  TIP3      H2            -35.8063908332      -20.9305125236       18.9861625823  TIP3      41              0.0000000000
     22444       234  TIP3      OH2            32.1210408527      -22.3226804014       19.0822793569  TIP3      42              0.0000000000
     22445       234  TIP3      H1             31.8115476269      -23.2244136685       19.1374690783  TIP3      42              0.0000000000
     22446       234  TIP3      H2             32.9441247839      -22.3463211886       18.5885241210  TIP3      42              0.0000000000
     22447       235  TIP3      OH2           -23.0231169714      -35.7836686800       20.8200237038  TIP3      43              0.0000000000
     22448       235  TIP3      H1            -22.5888170546      -36.4317185317       20.2389703858  TIP3      43              0.0000000000
     22449       235  TIP3      H2            -23.9124693783      -35.8299848464       20.4502350766  TIP3      43              0.0000000000
     22450       236  TIP3      OH2           -32.7757203101       32.2140978053       20.7087637379  TIP3      44              0.0000000000
     22451       236  TIP3      H1            -33.1172825951       33.0911087558       20.5656564891  TIP3      44              0.0000000000
     22452       236  TIP3      H2            -32.9943878079       31.6953218581       19.9148864708  TIP3      44              0.0000000000
     22453       237  TIP3      OH2           -35.4391037538       29.4186866715       20.4850927616  TIP3      45              0.0000000000
     22454       237  TIP3      H1            -35.7389829074       29.4802374027       21.4039008502  TIP3      45              0.0000000000
     22455       237  TIP3      H2            -36.2351169392       29.1527079012       20.0183001832  TIP3      45              0.0000000000
     22456       238  TIP3      OH2           -32.8242148822       28.6661053344       21.5641607161  TIP3      46              0.0000000000
     22457       238  TIP3      H1            -33.0021279532       29.5374440284       21.1531749279  TIP3      46              0.0000000000
     22458       238  TIP3      H2            -33.0564934264       28.0635543254       20.8565662527  TIP3      46              0.0000000000
     22459       239  TIP3      OH2           -36.5989320242      -30.7139939524       19.7013192795  TIP3      47              0.0000000000
     22460       239  TIP3      H1            -35.6724157726      -30.4808745683       19.4952971846  TIP3      47              0.0000000000
     22461       239  TIP3      H2            -36.6906536975      -31.5965030988       19.3100453459  TIP3      47              0.0000000000
     22462       240  TIP3      OH2           -33.6039354766      -26.8541441835       19.4436989638  TIP3      48              0.0000000000
     22463       240  TIP3      H1            -33.3878957117      -26.0016410732       19.1005968483  TIP3      48              0.0000000000
     22464       240  TIP3      H2            -33.4208402679      -26.7603667571       20.3926646890  TIP3      48              0.0000000000
     22465       241  TIP3      OH2           -32.8208108666      -31.1104168101       20.8402030726  TIP3      49              0.0000000000
     22466       241  TIP3      H1            -33.0407309011      -30.5313167606       20.0776143960  TIP3      49              0.0000000000
     22467       241  TIP3      H2            -31.9038985366      -31.3292367285       20.6513995852  TIP3      49              0.0000000000
     22468       242  TIP3      OH2             1.9626392424       -1.5266995935      -18.2223846053  TIP3      50              0.0000000000
     22469       242  TIP3      H1              2.8614255033       -1.2813460906      -18.0599696339  TIP3      50              0.0000000000
     22470       242  TIP3      H2              1.9985142462       -2.4281247674      -18.5429744890  TIP3      50              0.0000000000
     22471       243  TIP3      OH2             0.4125278714       -6.2595666333      -21.0822105539  TIP3      51              0.0000000000
     22472       243  TIP3      H1              0.8721944399       -7.0543628597      -20.8280875464  TIP3      51              0.0000000000
     22473       243  TIP3      H2              0.2232963073       -5.7989426700      -20.2561536225  TIP3      51              0.0000000000
     22474       244  TIP3      OH2            -1.7708255880       -3.6709139885      -20.3961554923  TIP3      52              0.0000000000
     22475       244  TIP3      H1             -2.3847401286       -4.3449204863      -20.1236723065  TIP3      52              0.0000000000
     22476       244  TIP3      H2             -1.0308844677       -3.8493034162      -19.7994444367  TIP3      52              0.0000000000
     22477       245  TIP3      OH2             3.7454456864        8.7136005915      -21.0079453093  TIP3      53              0.0000000000
     22478       245  TIP3      H1              2.9368348975        8.7355097794      -21.5092892221  TIP3      53              0.0000000000
     22479       245  TIP3      H2              3.4773004766        9.1706181632      -20.1936164441  TIP3      53              0.0000000000
     22480       246  TIP3      OH2             1.4150679311       12.0778966658      -19.4374377269  TIP3      54              0.0000000000
     22481       246  TIP3      H1              1.8438674887       12.5219743273      -20.1733430654  TIP3      54              0.0000000000
     22482       246  TIP3      H2              0.5707574625       12.5280957145      -19.3436671495  TIP3      54              0.0000000000
     22483       247  TIP3      OH2            -4.5766381250        8.1166474213      -19.6932797989  TIP3      55              0.0000000000
     22484       247  TIP3      H1             -3.6712810622        7.7956679108      -19.7468625480  TIP3      55              0.0000000000
     22485       247  TIP3      H2             -4.4585266699        8.9150761149      -19.1647127713  TIP3      55              0.0000000000
     22486       248  TIP3      OH2            -6.7076401342       12.5845324955      -20.2386530597  TIP3      56              0.0000000000
     22487       248  TIP3      H1             -7.3764310214       13.0544333770      -19.7334162369  TIP3      56              0.0000000000
     22488       248  TIP3      H2             -7.0268360263       12.7177675487      -21.1329905113  TIP3      56              0.0000000000
     22489       249  TIP3      OH2             3.8348412987       -9.7721768509      -19.2924507262  TIP3      57              0.0000000000
     22490       249  TIP3      H1              3.2624821885       -9.3867755652      -19.9532440768  TIP3      57              0.0000000000
     22491       249  TIP3      H2              3.4249548010      -10.6517103417      -19.1043016014  TIP3      57              0.0000000000
     22492       250  TIP3      OH2             6.8507807143       16.5726931885      -19.3927038043  TIP3      58              0.0000000000
     22493       250  TIP3      H1              5.9950528830       16.3061854487      -19.6926343946  TIP3      58              0.0000000000
     22494       250  TIP3      H2              7.3276501483       15.7530081287      -19.1474791236  TIP3      58              0.0000000000
     22495       251  TIP3      OH2            10.5188983999       15.8221602628      -20.2611832853  TIP3      59              0.0000000000
     22496       251  TIP3      H1             10.1178277328       16.5970629684      -19.8458904899  TIP3      59              0.0000000000
     22497       251  TIP3      H2             10.1767867988       15.1216117352      -19.6938777340  TIP3      59              0.0000000000
     22498       252  TIP3      OH2           -11.6615815543       10.7854174330      -20.0778177052  TIP3      60              0.0000000000
     22499       252  TIP3      H1            -11.3621612299        9.9485461432      -19.7451504357  TIP3      60              0.0000000000
     22500       252  TIP3      H2            -11.6570288671       10.6489396512      -21.0333960250  TIP3      60              0.0000000000
     22501       253  TIP3      OH2            -3.2676491951      -21.2725359384      -20.8301180876  TIP3      61              0.0000000000
     22502       253  TIP3      H1             -4.1032223153      -21.4762172219      -21.2479018245  TIP3      61              0.0000000000
     22503       253  TIP3      H2             -2.8815718051      -22.1516255774      -20.6955130161  TIP3      61              0.0000000000
     22504       254  TIP3      OH2             0.1145079926      -18.2214388006      -19.1310057282  TIP3      62              0.0000000000
     22505       254  TIP3      H1              0.2897418881      -19.1161913167      -19.4748386845  TIP3      62              0.0000000000
     22506       254  TIP3      H2             -0.7856244746      -18.3147946432      -18.7903595974  TIP3      62              0.0000000000
     22507       255  TIP3      OH2            -1.9171513464      -19.0406893559      -21.8309109770  TIP3      63              0.0000000000
     22508       255  TIP3      H1             -1.9771634592      -19.9618385092      -21.5338860715  TIP3      63              0.0000000000
     22509       255  TIP3      H2             -2.1020949177      -18.5527627697      -21.0253613885  TIP3      63              0.0000000000
     22510       256  TIP3      OH2            17.8242318514        8.4798135138      -20.4247441138  TIP3      64              0.0000000000
     22511       256  TIP3      H1             18.0689192340        8.3406183402      -21.3438565398  TIP3      64              0.0000000000
     22512       256  TIP3      H2             17.1822652803        9.1935923914      -20.4792233543  TIP3      64              0.0000000000
     22513       257  TIP3      OH2            -8.1481155987       21.6479161385      -19.1858807158  TIP3      65              0.0000000000
     22514       257  TIP3      H1             -9.0818077675       21.5543373081      -18.9906181075  TIP3      65              0.0000000000
     22515       257  TIP3      H2             -7.7833673522       21.0589932130      -18.5124059398  TIP3      65              0.0000000000
     22516       258  TIP3      OH2            -5.2341163681       19.2569665946      -20.8193594864  TIP3      66              0.0000000000
     22517       258  TIP3      H1             -4.9061186514       18.3919924163      -21.0721494805  TIP3      66              0.0000000000
     22518       258  TIP3      H2             -5.2781215724       19.7501228005      -21.6412168343  TIP3      66              0.0000000000
     22519       259  TIP3      OH2             8.0969121322       22.3265072944      -19.7659852681  TIP3      67              0.0000000000
     22520       259  TIP3      H1              7.2889283797       22.4827218256      -19.2315051691  TIP3      67              0.0000000000
     22521       259  TIP3      H2              8.5257249502       23.1733310636      -19.7949314023  TIP3      67              0.0000000000
     22522       260  TIP3      OH2            21.3366652654       -9.7312068620      -20.1220067134  TIP3      68              0.0000000000
     22523       260  TIP3      H1             20.9549701609       -8.8865711219      -19.9101951782  TIP3      68              0.0000000000
     22524       260  TIP3      H2             22.2727095569       -9.5486112890      -20.2672895441  TIP3      68              0.0000000000
     22525       261  TIP3      OH2            25.8526086985       -8.5252986506      -19.4512955215  TIP3      69              0.0000000000
     22526       261  TIP3      H1             24.9582377723       -8.2548687858      -19.1660828325  TIP3      69              0.0000000000
     22527       261  TIP3      H2             25.8039555122       -8.5581481998      -20.4064785390  TIP3      69              0.0000000000
     22528       262  TIP3      OH2            22.5751695698       -4.0634160267      -18.7212357046  TIP3      70              0.0000000000
     22529       262  TIP3      H1             21.8660098981       -3.4886090059      -19.0163324737  TIP3      70              0.0000000000
     22530       262  TIP3      H2             22.3951341447       -4.8951846895      -19.1474206361  TIP3      70              0.0000000000
     22531       263  TIP3      OH2            16.3468731649       20.8859571383      -19.6159827378  TIP3      71              0.0000000000
     22532       263  TIP3      H1             16.9809400781       20.7097255548      -18.9162056702  TIP3      71              0.0000000000
     22533       263  TIP3      H2             15.5124298713       21.1366860387      -19.1955764481  TIP3      71              0.0000000000
     22534       264  TIP3      OH2            22.9538585288       15.1889763345      -20.1118047883  TIP3      72              0.0000000000
     22535       264  TIP3      H1             23.0362198502       14.2710071518      -19.8144876158  TIP3      72              0.0000000000
     22536       264  TIP3      H2             22.3006084513       15.5403998047      -19.5051402434  TIP3      72              0.0000000000
     22537       265  TIP3      OH2            -8.7743710533       24.2448711138      -18.5565287768  TIP3      73              0.0000000000
     22538       265  TIP3      H1             -9.1471534676       25.1429439710      -18.5008234476  TIP3      73              0.0000000000
     22539       265  TIP3      H2             -8.4244377436       24.1968152215      -19.4429490508  TIP3      73              0.0000000000
     22540       266  TIP3      OH2            20.4418014170       18.8049355988      -20.7468232654  TIP3      74              0.0000000000
     22541       266  TIP3      H1             21.0908064599       18.2609062485      -21.1634423512  TIP3      74              0.0000000000
     22542       266  TIP3      H2             19.5956671371       18.4239164360      -21.1039346230  TIP3      74              0.0000000000
     22543       267  TIP3      OH2           -27.8993288154       16.7813860809      -20.4255860319  TIP3      75              0.0000000000
     22544       267  TIP3      H1            -28.4196160866       16.1318988017      -20.8946040633  TIP3      75              0.0000000000
     22545       267  TIP3      H2            -27.4766781707       16.3040963441      -19.6996699103  TIP3      75              0.0000000000
     22546       268  TIP3      OH2            10.6499741260       28.8728977746      -21.1904775838  TIP3      76              0.0000000000
     22547       268  TIP3      H1             10.7956331665       28.9050388891      -20.2313185030  TIP3      76              0.0000000000
     22548       268  TIP3      H2              9.9580274219       29.5143050554      -21.3381491683  TIP3      76              0.0000000000
     22549       269  TIP3      OH2            13.5288576837       27.7541968099      -18.7562900357  TIP3      77              0.0000000000
     22550       269  TIP3      H1             13.1918325779       26.8627198595      -18.7258089561  TIP3      77              0.0000000000
     22551       269  TIP3      H2             12.7684448540       28.3076938279      -18.5303190245  TIP3      77              0.0000000000
     22552       270  TIP3      OH2           -24.4780047182      -19.3946282669      -20.7820543250  TIP3      78              0.0000000000
     22553       270  TIP3      H1            -24.1611442826      -19.7243401057      -19.9204730777  TIP3      78              0.0000000000
     22554       270  TIP3      H2            -23.7744151459      -19.5869514451      -21.3935562349  TIP3      78              0.0000000000
     22555       271  TIP3      OH2           -21.5478384259      -22.3839922923      -20.1812173555  TIP3      79              0.0000000000
     22556       271  TIP3      H1            -22.2543957827      -22.7799015065      -20.6884750885  TIP3      79              0.0000000000
     22557       271  TIP3      H2            -20.9322126582      -22.0083801971      -20.8149235441  TIP3      79              0.0000000000
     22558       272  TIP3      OH2            32.9534711406       -6.7250723964      -20.1432949569  TIP3      80              0.0000000000
     22559       272  TIP3      H1             32.8364957908       -6.7488382440      -21.0996083517  TIP3      80              0.0000000000
     22560       272  TIP3      H2             33.6868980824       -7.3499591274      -20.0352274723  TIP3      80              0.0000000000
     22561       273  TIP3      OH2            18.7435586604      -34.8920214149      -19.7105366544  TIP3      81              0.0000000000
     22562       273  TIP3      H1             18.2444046102      -34.1803750132      -20.1081050203  TIP3      81              0.0000000000
     22563       273  TIP3      H2             19.5422383883      -35.0062238447      -20.2568617092  TIP3      81              0.0000000000
     22564       274  TIP3      OH2           -22.5179477830       30.9458334294      -19.7004134762  TIP3      82              0.0000000000
     22565       274  TIP3      H1            -23.2746170575       30.5816953098      -19.2005312203  TIP3      82              0.0000000000
     22566       274  TIP3      H2            -22.5865894352       30.5219227157      -20.5472845454  TIP3      82              0.0000000000
     22567       275  TIP3      OH2            30.7298717046      -30.7489093696      -19.5353823706  TIP3      83              0.0000000000
     22568       275  TIP3      H1             31.5474925011      -30.3942932300      -19.8777428313  TIP3      83              0.0000000000
     22569       275  TIP3      H2             30.3526451363      -29.9739760581      -19.0591673139  TIP3      83              0.0000000000
     22570       276  TIP3      OH2           -18.5766541521      -34.3855385830      -20.5331559962  TIP3      84              0.0000000000
     22571       276  TIP3      H1            -18.6585634911      -33.4417876391      -20.3208335100  TIP3      84              0.0000000000
     22572       276  TIP3      H2            -19.4475048532      -34.3579534024      -20.9869470518  TIP3      84              0.0000000000
     22573       277  TIP3      OH2           -34.3872588799       30.7420679686      -19.8202493664  TIP3      85              0.0000000000
     22574       277  TIP3      H1            -35.3293462005       30.8444901739      -20.0207894619  TIP3      85              0.0000000000
     22575       277  TIP3      H2            -34.0003352210       31.6235701575      -19.9211997532  TIP3      85              0.0000000000
     22576       278  TIP3      OH2           -31.4219420451       30.2484996834      -21.1409727458  TIP3      86              0.0000000000
     22577       278  TIP3      H1            -30.5930213671       29.7875781157      -21.2973572985  TIP3      86              0.0000000000
     22578       278  TIP3      H2            -32.0368037782       29.5105785671      -21.2865907334  TIP3      86              0.0000000000
     22579       279  TIP3      OH2           -34.2638964768       29.0291504449      -22.0356188934  TIP3      87              0.0000000000
     22580       279  TIP3      H1            -35.1495707614       28.6933848355      -22.1447615089  TIP3      87              0.0000000000
     22581       279  TIP3      H2            -34.2956789870       29.5510923725      -21.2121799199  TIP3      87              0.0000000000
     22582       280  TIP3      OH2            36.3077822197       31.8031116344      -19.4495378499  TIP3      88              0.0000000000
     22583       280  TIP3      H1             36.1145813790       31.5561040577      -20.3622158555  TIP3      88              0.0000000000
     22584       280  TIP3      H2             36.4303194814       32.7647888355      -19.5284564459  TIP3      88              0.0000000000
     22585       281  TIP3      OH2            32.4602600486       30.1841907083      -21.2284355295  TIP3      89              0.0000000000
     22586       281  TIP3      H1             32.1229784789       29.2930199590      -21.1246048399  TIP3      89              0.0000000000
     22587       281  TIP3      H2             32.5078344684       30.4488531103      -20.2974635968  TIP3      89              0.0000000000
     22588       282  TIP3      OH2           -24.9058428587      -26.6360796469       26.8049968841  TIP3      90              0.0000000000
     22589       282  TIP3      H1            -24.8960928153      -25.6579958847       26.7793771331  TIP3      90              0.0000000000
     22590       282  TIP3      H2            -25.6237121750      -26.8527026037       26.1918016579  TIP3      90              0.0000000000
     22591       283  TIP3      OH2           -26.0496468005      -27.3863064217       30.2945681763  TIP3      91              0.0000000000
     22592       283  TIP3      H1            -26.0537767332      -28.0224419768       31.0225676978  TIP3      91              0.0000000000
     22593       283  TIP3      H2            -26.4019379740      -27.9043905404       29.5503187202  TIP3      91              0.0000000000
     22594       284  TIP3      OH2           -33.6581284490      -27.7188205464       31.8191000995  TIP3      92              0.0000000000
     22595       284  TIP3      H1            -33.6084405623      -28.4038545153       32.5212248237  TIP3      92              0.0000000000
     22596       284  TIP3      H2            -32.9287619402      -27.1381474675       32.0734757100  TIP3      92              0.0000000000
     22597       285  TIP3      OH2           -22.3667971374      -24.4784550685       28.5813897658  TIP3      93              0.0000000000
     22598       285  TIP3      H1            -22.7857455626      -25.1556327285       29.1107293469  TIP3      93              0.0000000000
     22599       285  TIP3      H2            -22.3200088049      -23.7345313113       29.2268344483  TIP3      93              0.0000000000
     22600       286  TIP3      OH2           -32.8171289042      -23.2636127882       30.3639207253  TIP3      94              0.0000000000
     22601       286  TIP3      H1            -33.1172820833      -24.1322934324       30.0398970743  TIP3      94              0.0000000000
     22602       286  TIP3      H2            -31.8562695564      -23.4403905859       30.3911315985  TIP3      94              0.0000000000
     22603       287  TIP3      OH2           -35.9259054503      -29.6862575055       25.5622460808  TIP3      95              0.0000000000
     22604       287  TIP3      H1            -36.4161459761      -28.8820247406       25.8570260740  TIP3      95              0.0000000000
     22605       287  TIP3      H2            -36.6624785435      -30.2530730599       25.4167546554  TIP3      95              0.0000000000
     22606       288  TIP3      OH2           -35.4428359777      -27.5234968502       27.9466158585  TIP3      96              0.0000000000
     22607       288  TIP3      H1            -35.1651376248      -28.2927562892       28.4656379503  TIP3      96              0.0000000000
     22608       288  TIP3      H2            -34.7074100025      -27.3884542165       27.3407973739  TIP3      96              0.0000000000
     22609       289  TIP3      OH2           -25.2465374409      -19.2788183905       28.8123117163  TIP3      97              0.0000000000
     22610       289  TIP3      H1            -24.5899950793      -19.9656283040       28.5361169627  TIP3      97              0.0000000000
     22611       289  TIP3      H2            -25.4397740834      -19.6168625084       29.6887232780  TIP3      97              0.0000000000
     22612       290  TIP3      OH2           -27.6806167587      -24.9980039676       30.7749194644  TIP3      98              0.0000000000
     22613       290  TIP3      H1            -27.3402073295      -25.6169153728       30.1092271426  TIP3      98              0.0000000000
     22614       290  TIP3      H2            -26.8657932121      -24.8494790522       31.2860409495  TIP3      98              0.0000000000
     22615       291  TIP3      OH2           -19.0650812551      -33.3425518130       31.4921929026  TIP3      99              0.0000000000
     22616       291  TIP3      H1            -18.9104526383      -32.7279270478       32.2507586751  TIP3      99              0.0000000000
     22617       291  TIP3      H2            -18.5275307369      -32.8944597288       30.8239217346  TIP3      99              0.0000000000
     22618       292  TIP3      OH2           -24.5082397524      -30.5212647953       31.0967935121  TIP3      100             0.0000000000
     22619       292  TIP3      H1            -24.3534928380      -31.4872798757       31.0989070338  TIP3      100             0.0000000000
     22620       292  TIP3      H2            -24.6111182612      -30.3764599921       30.1358429006  TIP3      100             0.0000000000
     22621       293  TIP3      OH2           -31.3505470213      -32.4109237696       28.2859001729  TIP3      101             0.0000000000
     22622       293  TIP3      H1            -31.2832554856      -31.5615341616       27.8022375885  TIP3      101             0.0000000000
     22623       293  TIP3      H2            -31.7957631021      -32.9766190384       27.6235338223  TIP3      101             0.0000000000
     22624       294  TIP3      OH2           -23.6426463547      -32.3482941300       26.6959241836  TIP3      102             0.0000000000
     22625       294  TIP3      H1            -22.9745320111      -32.6393405350       27.3570943666  TIP3      102             0.0000000000
     22626       294  TIP3      H2            -23.1271638577      -31.7812325531       26.1035729832  TIP3      102             0.0000000000
     22627       295  TIP3      OH2           -34.7394402609      -30.0402747482       28.9598953052  TIP3      103             0.0000000000
     22628       295  TIP3      H1            -34.0806353613      -30.5614365342       29.4595958564  TIP3      103             0.0000000000
     22629       295  TIP3      H2            -34.5883763522      -30.3621069918       28.0610163940  TIP3      103             0.0000000000
     22630       296  TIP3      OH2           -29.6264188729      -28.4736632960       28.3511099838  TIP3      104             0.0000000000
     22631       296  TIP3      H1            -28.9453111736      -29.0464937799       28.7471005344  TIP3      104             0.0000000000
     22632       296  TIP3      H2            -30.1178875768      -29.1304883812       27.8171228446  TIP3      104             0.0000000000
     22633       297  TIP3      OH2           -18.6546745306      -31.9443231125       33.7690890195  TIP3      105             0.0000000000
     22634       297  TIP3      H1            -19.2438946161      -31.1680318954       33.6660935563  TIP3      105             0.0000000000
     22635       297  TIP3      H2            -18.5753611142      -32.0003345125       34.7327157086  TIP3      105             0.0000000000
     22636       298  TIP3      OH2           -32.4846081573      -33.5007179881       32.3444213666  TIP3      106             0.0000000000
     22637       298  TIP3      H1            -32.7688801687      -32.9571024048       31.5808744330  TIP3      106             0.0000000000
     22638       298  TIP3      H2            -33.1882398532      -33.2897667942       33.0054523307  TIP3      106             0.0000000000
     22639       299  TIP3      OH2           -25.1761113001      -24.0340653050       25.8828943152  TIP3      107             0.0000000000
     22640       299  TIP3      H1            -25.4648056324      -24.2975777235       24.9997163729  TIP3      107             0.0000000000
     22641       299  TIP3      H2            -25.5131926695      -23.1066646648       25.9331959968  TIP3      107             0.0000000000
     22642       300  TIP3      OH2           -29.9518566712      -25.8873055032       32.5764972771  TIP3      108             0.0000000000
     22643       300  TIP3      H1            -30.6764320087      -25.2621785418       32.8034785295  TIP3      108             0.0000000000
     22644       300  TIP3      H2            -29.2577128507      -25.2803439862       32.2826760481  TIP3      108             0.0000000000
     22645       301  TIP3      OH2           -21.8397433505      -32.9978335201       28.6612388475  TIP3      109             0.0000000000
     22646       301  TIP3      H1            -22.0708802683      -33.7606298784       29.2005643831  TIP3      109             0.0000000000
     22647       301  TIP3      H2            -21.1608249831      -32.5766412464       29.2161171326  TIP3      109             0.0000000000
     22648       302  TIP3      OH2           -32.9294732284      -31.7056299868       30.3534571859  TIP3      110             0.0000000000
     22649       302  TIP3      H1            -32.3305599108      -31.0049195443       30.7028344561  TIP3      110             0.0000000000
     22650       302  TIP3      H2            -32.3766319635      -32.0904910177       29.6306701311  TIP3      110             0.0000000000
     22651       303  TIP3      OH2           -31.5356984638      -23.8921305365       33.3804581663  TIP3      111             0.0000000000
     22652       303  TIP3      H1            -31.5877212221      -22.9711593517       33.0596159053  TIP3      111             0.0000000000
     22653       303  TIP3      H2            -32.4160492743      -23.9719585060       33.8217320159  TIP3      111             0.0000000000
     22654       304  TIP3      OH2           -35.4040820518      -24.2156731594       24.1381151769  TIP3      112             0.0000000000
     22655       304  TIP3      H1            -35.7250329428      -23.9260788481       23.2735155908  TIP3      112             0.0000000000
     22656       304  TIP3      H2            -35.4045676266      -23.4147745735       24.6938168321  TIP3      112             0.0000000000
     22657       305  TIP3      OH2           -21.8508624378      -22.7818639021       30.7522208292  TIP3      113             0.0000000000
     22658       305  TIP3      H1            -22.7483288379      -22.5364365889       31.0633875292  TIP3      113             0.0000000000
     22659       305  TIP3      H2            -21.5483032989      -21.8399064193       30.7434831502  TIP3      113             0.0000000000
     22660       306  TIP3      OH2           -21.4925991379      -34.3029431128       32.4087928863  TIP3      114             0.0000000000
     22661       306  TIP3      H1            -22.2330251898      -33.7067623699       32.2188599499  TIP3      114             0.0000000000
     22662       306  TIP3      H2            -20.7987094198      -33.9365698371       31.8187262685  TIP3      114             0.0000000000
     22663       307  TIP3      OH2           -28.2734215672      -35.9932238872       29.7699188265  TIP3      115             0.0000000000
     22664       307  TIP3      H1            -28.3808057945      -36.9485898823       29.7476813883  TIP3      115             0.0000000000
     22665       307  TIP3      H2            -29.1880058736      -35.7594357356       29.9946142545  TIP3      115             0.0000000000
     22666       308  TIP3      OH2           -23.5917475469      -20.8175532500       27.4903596931  TIP3      116             0.0000000000
     22667       308  TIP3      H1            -23.1312167935      -21.5549768279       27.0479113942  TIP3      116             0.0000000000
     22668       308  TIP3      H2            -23.1350470499      -20.0407750698       27.1215600582  TIP3      116             0.0000000000
     22669       309  TIP3      OH2           -22.3742566330      -22.8765489740       26.0675949568  TIP3      117             0.0000000000
     22670       309  TIP3      H1            -22.6167845367      -23.5945491597       25.4495038558  TIP3      117             0.0000000000
     22671       309  TIP3      H2            -22.3355005304      -23.3774225845       26.9008091339  TIP3      117             0.0000000000
     22672       310  TIP3      OH2           -20.7364484987      -24.3034983760       34.5553538662  TIP3      118             0.0000000000
     22673       310  TIP3      H1            -20.6065972979      -24.9509714189       33.8304933987  TIP3      118             0.0000000000
     22674       310  TIP3      H2            -20.5372648762      -23.4564172081       34.1007157516  TIP3      118             0.0000000000
     22675       311  TIP3      OH2           -26.2005681831      -27.4107775993       24.3175943752  TIP3      119             0.0000000000
     22676       311  TIP3      H1            -26.9439722879      -26.8530910186       23.9915416916  TIP3      119             0.0000000000
     22677       311  TIP3      H2            -25.5284688178      -27.2472942044       23.6538911301  TIP3      119             0.0000000000
     22678       312  TIP3      OH2           -18.8615619680      -27.9797534639       32.5878254068  TIP3      120             0.0000000000
     22679       312  TIP3      H1            -19.5153738134      -27.2549056625       32.6280118603  TIP3      120             0.0000000000
     22680       312  TIP3      H2            -18.3604202868      -27.7460917090       31.7846553018  TIP3      120             0.0000000000
     22681       313  TIP3      OH2           -22.8393409098      -27.2434358214       25.2205481173  TIP3      121             0.0000000000
     22682       313  TIP3      H1            -23.5255597591      -26.9485450108       25.8577583788  TIP3      121             0.0000000000
     22683       313  TIP3      H2            -22.3140856631      -27.8542109751       25.7590063314  TIP3      121             0.0000000000
     22684       314  TIP3      OH2           -22.8723184780      -29.0353279256       34.3633536743  TIP3      122             0.0000000000
     22685       314  TIP3      H1            -22.8639706765      -28.2109394442       34.8794969033  TIP3      122             0.0000000000
     22686       314  TIP3      H2            -23.5001661676      -28.7505110369       33.6664317739  TIP3      122             0.0000000000
     22687       315  TIP3      OH2           -31.1761682969      -26.5235545332       27.1677647962  TIP3      123             0.0000000000
     22688       315  TIP3      H1            -31.5176092349      -26.9219900311       26.3332837391  TIP3      123             0.0000000000
     22689       315  TIP3      H2            -30.5619056859      -27.2230834370       27.4854858501  TIP3      123             0.0000000000
     22690       316  TIP3      OH2           -29.8737980146      -23.1653629990       29.8311188460  TIP3      124             0.0000000000
     22691       316  TIP3      H1            -29.8611816732      -23.6725637987       29.0120907692  TIP3      124             0.0000000000
     22692       316  TIP3      H2            -29.0839878937      -23.5063458255       30.2880752522  TIP3      124             0.0000000000
     22693       317  TIP3      OH2           -30.8484437943      -27.7867032685       30.8180374506  TIP3      125             0.0000000000
     22694       317  TIP3      H1            -30.3065820525      -27.6867629111       30.0114778469  TIP3      125             0.0000000000
     22695       317  TIP3      H2            -30.4693777365      -27.1139065113       31.4256644291  TIP3      125             0.0000000000
     22696       318  TIP3      OH2           -24.6889059756      -22.3020185101       31.4523840046  TIP3      126             0.0000000000
     22697       318  TIP3      H1            -24.6440063141      -21.6159382308       32.1337715601  TIP3      126             0.0000000000
     22698       318  TIP3      H2            -24.7294350087      -23.1292480869       31.9743300279  TIP3      126             0.0000000000
     22699       319  TIP3      OH2           -29.9075751282      -23.3608580524       35.5067684636  TIP3      127             0.0000000000
     22700       319  TIP3      H1            -30.3257008456      -22.6234722965       35.9990862744  TIP3      127             0.0000000000
     22701       319  TIP3      H2            -30.5802431925      -23.5610853547       34.8111660567  TIP3      127             0.0000000000
     22702       320  TIP3      OH2           -32.9206159569      -27.1840382282       34.7053135591  TIP3      128             0.0000000000
     22703       320  TIP3      H1            -32.9048226592      -26.4898153301       35.3874152175  TIP3      128             0.0000000000
     22704       320  TIP3      H2            -33.8586921806      -27.1271239568       34.4411411149  TIP3      128             0.0000000000
     22705       321  TIP3      OH2           -26.2137751919      -21.2796655492       26.3635707281  TIP3      129             0.0000000000
     22706       321  TIP3      H1            -25.7515520238      -20.9492263207       27.1410426940  TIP3      129             0.0000000000
     22707       321  TIP3      H2            -26.7727936837      -20.5293622818       26.1269405606  TIP3      129             0.0000000000
     22708       322  TIP3      OH2           -31.6554801706      -21.3419860140       36.2534064490  TIP3      130             0.0000000000
     22709       322  TIP3      H1            -31.7502787701      -21.4192937540       35.2876050318  TIP3      130             0.0000000000
     22710       322  TIP3      H2            -32.5895599041      -21.4499578012       36.5356170850  TIP3      130             0.0000000000
     22711       323  TIP3      OH2           -20.2123357797      -36.1897480377       22.6962798743  TIP3      131             0.0000000000
     22712       323  TIP3      H1            -21.1426376368      -36.1508307843       23.0006605713  TIP3      131             0.0000000000
     22713       323  TIP3      H2            -20.0803520890      -35.3300864951       22.3032674629  TIP3      131             0.0000000000
     22714       324  TIP3      OH2           -32.1622208654      -27.4839835480       24.7318346801  TIP3      132             0.0000000000
     22715       324  TIP3      H1            -32.4722848749      -26.6933840725       24.2433777455  TIP3      132             0.0000000000
     22716       324  TIP3      H2            -32.8804397897      -28.1121400279       24.5950254079  TIP3      132             0.0000000000
     22717       325  TIP3      OH2           -35.6979978812      -25.1711689435       33.4510466095  TIP3      133             0.0000000000
     22718       325  TIP3      H1            -36.4193379189      -25.1266141357       32.7980366181  TIP3      133             0.0000000000
     22719       325  TIP3      H2            -35.9647703469      -26.0189327433       33.8510054222  TIP3      133             0.0000000000
     22720       326  TIP3      OH2           -36.2011644057      -22.1867937616       30.2457860621  TIP3      134             0.0000000000
     22721       326  TIP3      H1            -35.3140656579      -22.5096864337       30.4514357313  TIP3      134             0.0000000000
     22722       326  TIP3      H2            -36.3892422145      -21.6084792299       30.9937240849  TIP3      134             0.0000000000
     22723       327  TIP3      OH2           -18.1464581961      -21.6472023711       36.0963834351  TIP3      135             0.0000000000
     22724       327  TIP3      H1            -18.2501114491      -22.6117252935       36.1180939538  TIP3      135             0.0000000000
     22725       327  TIP3      H2            -19.0060753163      -21.3961617912       36.5158572039  TIP3      135             0.0000000000
     22726       328  TIP3      OH2           -27.1895000396      -22.1266398205       35.0156709961  TIP3      136             0.0000000000
     22727       328  TIP3      H1            -27.1097728847      -21.2703038925       35.5034329989  TIP3      136             0.0000000000
     22728       328  TIP3      H2            -28.0708327837      -22.4662740626       35.2595687898  TIP3      136             0.0000000000
     22729       329  TIP3      OH2           -26.7489923929      -18.3399029338       24.8149970649  TIP3      137             0.0000000000
     22730       329  TIP3      H1            -26.8206545328      -18.4380866680       23.8528525602  TIP3      137             0.0000000000
     22731       329  TIP3      H2            -26.6832592881      -17.3858496501       24.9658677926  TIP3      137             0.0000000000
     22732       330  TIP3      OH2           -33.1096816807      -19.4685426097       26.6086389787  TIP3      138             0.0000000000
     22733       330  TIP3      H1            -32.9533953237      -19.9074389559       27.4704346969  TIP3      138             0.0000000000
     22734       330  TIP3      H2            -33.9219562670      -19.9177703871       26.3357017422  TIP3      138             0.0000000000
     22735       331  TIP3      OH2           -20.9984320549      -30.1726082866       36.6040155165  TIP3      139             0.0000000000
     22736       331  TIP3      H1            -21.4644552337      -29.7233363482       35.8783431745  TIP3      139             0.0000000000
     22737       331  TIP3      H2            -20.9999092696      -31.0888611029       36.2916480021  TIP3      139             0.0000000000
     22738       332  TIP3      OH2           -33.8317483483      -23.7092486112       34.6306857799  TIP3      140             0.0000000000
     22739       332  TIP3      H1            -33.6715314418      -24.1214360134       35.5042828260  TIP3      140             0.0000000000
     22740       332  TIP3      H2            -34.6772731920      -24.1364624808       34.3520110672  TIP3      140             0.0000000000
     22741       333  TIP3      OH2           -31.2070990322      -35.1206573363       30.6134310665  TIP3      141             0.0000000000
     22742       333  TIP3      H1            -32.0756313013      -35.3308999286       30.2106862260  TIP3      141             0.0000000000
     22743       333  TIP3      H2            -31.3895756663      -34.3132952929       31.0990747404  TIP3      141             0.0000000000
     22744       334  TIP3      OH2           -26.5373567539      -35.6439975160       33.9242533400  TIP3      142             0.0000000000
     22745       334  TIP3      H1            -26.1432419500      -36.0032838318       34.7206637812  TIP3      142             0.0000000000
     22746       334  TIP3      H2            -27.4978889114      -35.7105085055       34.0882764380  TIP3      142             0.0000000000
     22747       335  TIP3      OH2           -23.2418183992      -31.8110998803       34.8200773953  TIP3      143             0.0000000000
     22748       335  TIP3      H1            -23.8108360882      -31.9768483266       35.6085236314  TIP3      143             0.0000000000
     22749       335  TIP3      H2            -23.4035059303      -30.8773463646       34.5850571318  TIP3      143             0.0000000000
     22750       336  TIP3      OH2           -31.0523802256      -30.3205329004       31.8161577672  TIP3      144             0.0000000000
     22751       336  TIP3      H1            -31.7928538695      -30.3327309269       32.4534781283  TIP3      144             0.0000000000
     22752       336  TIP3      H2            -31.1241041968      -29.4119748467       31.4449289981  TIP3      144             0.0000000000
     22753       337  TIP3      OH2           -31.0859345061      -30.2350806765       26.6876239141  TIP3      145             0.0000000000
     22754       337  TIP3      H1            -32.0379809259      -30.4247380878       26.5271560541  TIP3      145             0.0000000000
     22755       337  TIP3      H2            -30.7125183252      -30.4978029441       25.8211026389  TIP3      145             0.0000000000
     22756       338  TIP3      OH2           -25.6022760279      -29.7215029982       25.4179930751  TIP3      146             0.0000000000
     22757       338  TIP3      H1            -25.9666518317      -28.8692581340       25.0980841764  TIP3      146             0.0000000000
     22758       338  TIP3      H2            -24.8754006599      -29.8914107815       24.7853265959  TIP3      146             0.0000000000
     22759       339  TIP3      OH2           -26.5307604730      -29.4917458308       36.8754932201  TIP3      147             0.0000000000
     22760       339  TIP3      H1            -27.0453134337      -30.2756782199       37.1810170373  TIP3      147             0.0000000000
     22761       339  TIP3      H2            -25.6919772321      -29.6073107562       37.3531405200  TIP3      147             0.0000000000
     22762       340  TIP3      OH2           -24.5432242904      -30.2021842662       28.2676449326  TIP3      148             0.0000000000
     22763       340  TIP3      H1            -24.8307962464      -29.6529042554       27.5198717279  TIP3      148             0.0000000000
     22764       340  TIP3      H2            -24.4547300516      -31.0630270750       27.8133821269  TIP3      148             0.0000000000
     22765       341  TIP3      OH2           -33.4184680352      -30.0868099450       33.4866301907  TIP3      149             0.0000000000
     22766       341  TIP3      H1            -33.3785002330      -29.6691439512       34.3634049647  TIP3      149             0.0000000000
     22767       341  TIP3      H2            -33.8857736810      -30.9152342714       33.6787143715  TIP3      149             0.0000000000
     22768       342  TIP3      OH2           -36.5871517791      -32.7141311397       27.4174933371  TIP3      150             0.0000000000
     22769       342  TIP3      H1            -36.0793480915      -32.9825800285       28.2103850253  TIP3      150             0.0000000000
     22770       342  TIP3      H2            -36.2721924048      -33.3539960054       26.7513866339  TIP3      150             0.0000000000
     22771       343  TIP3      OH2           -35.3836210045      -32.0540634328       22.9411182474  TIP3      151             0.0000000000
     22772       343  TIP3      H1            -34.9425334162      -31.5320194470       22.2465830778  TIP3      151             0.0000000000
     22773       343  TIP3      H2            -36.1712511320      -31.5339270037       23.1016772066  TIP3      151             0.0000000000
     22774       344  TIP3      OH2           -25.3521500340      -28.6292903166       32.8383468740  TIP3      152             0.0000000000
     22775       344  TIP3      H1            -24.9672924298      -29.3169185429       32.2572256921  TIP3      152             0.0000000000
     22776       344  TIP3      H2            -25.8196966234      -29.1549886179       33.5115028731  TIP3      152             0.0000000000
     22777       345  TIP3      OH2           -28.5697461638      -32.7116862942       27.6758502189  TIP3      153             0.0000000000
     22778       345  TIP3      H1            -29.4941928061      -32.6662254470       28.0089707573  TIP3      153             0.0000000000
     22779       345  TIP3      H2            -28.0569325632      -32.7986142341       28.4944977371  TIP3      153             0.0000000000
     22780       346  TIP3      OH2           -33.6491664254      -31.1134820283       26.5294392731  TIP3      154             0.0000000000
     22781       346  TIP3      H1            -34.5478384549      -30.9186778169       26.1969809773  TIP3      154             0.0000000000
     22782       346  TIP3      H2            -33.4355627260      -31.9757881044       26.1280898999  TIP3      154             0.0000000000
     22783       347  TIP3      OH2           -30.1566626861      -31.0518187954       24.2370031157  TIP3      155             0.0000000000
     22784       347  TIP3      H1            -29.1775342724      -31.0058607942       24.3646860401  TIP3      155             0.0000000000
     22785       347  TIP3      H2            -30.3123970331      -30.4008274412       23.5429843544  TIP3      155             0.0000000000
     22786       348  TIP3      OH2           -24.1338643656      -33.4229359772       30.9011636148  TIP3      156             0.0000000000
     22787       348  TIP3      H1            -24.8244392533      -33.3709910628       31.5961027526  TIP3      156             0.0000000000
     22788       348  TIP3      H2            -24.6381027911      -33.6726880406       30.1119618615  TIP3      156             0.0000000000
     22789       349  TIP3      OH2           -20.9328966275      -17.7748608982       37.3028242860  TIP3      157             0.0000000000
     22790       349  TIP3      H1            -20.6760427607      -17.4353848479       36.4247308827  TIP3      157             0.0000000000
     22791       349  TIP3      H2            -20.1972902425      -17.4510996630       37.8481545952  TIP3      157             0.0000000000
     22792       350  TIP3      OH2           -33.2311538124      -25.3101648107       36.8002834275  TIP3      158             0.0000000000
     22793       350  TIP3      H1            -32.5459173051      -25.0668144087       37.4463115293  TIP3      158             0.0000000000
     22794       350  TIP3      H2            -34.0205550839      -25.2096408569       37.3807497824  TIP3      158             0.0000000000
     22795       351  TIP3      OH2           -27.2605853810      -29.9110352389       29.5603447017  TIP3      159             0.0000000000
     22796       351  TIP3      H1            -26.6763706128      -30.4710597735       29.0303764174  TIP3      159             0.0000000000
     22797       351  TIP3      H2            -27.4137000702      -30.4438345768       30.3519001603  TIP3      159             0.0000000000
     22798       352  TIP3      OH2           -32.2758894380      -33.6970985098       25.9459835754  TIP3      160             0.0000000000
     22799       352  TIP3      H1            -32.6025309849      -34.6125948967       26.0510962423  TIP3      160             0.0000000000
     22800       352  TIP3      H2            -31.4596720557      -33.7828779479       25.4558558580  TIP3      160             0.0000000000
     22801       353  TIP3      OH2           -28.6280852388      -31.5838353528       31.9883505225  TIP3      161             0.0000000000
     22802       353  TIP3      H1            -29.4498431719      -31.0515882023       32.0694265827  TIP3      161             0.0000000000
     22803       353  TIP3      H2            -28.0687676512      -31.2192970378       32.6991508939  TIP3      161             0.0000000000
     22804       354  TIP3      OH2           -27.9818965697      -25.4961980606       23.7074714436  TIP3      162             0.0000000000
     22805       354  TIP3      H1            -28.8522674244      -25.7446690009       23.3382777653  TIP3      162             0.0000000000
     22806       354  TIP3      H2            -28.2549060573      -25.1498358978       24.5793523822  TIP3      162             0.0000000000
     22807       355  TIP3      OH2           -20.8493245532      -26.1254580928       32.4842853088  TIP3      163             0.0000000000
     22808       355  TIP3      H1            -20.2894114053      -25.6350326247       31.8540869111  TIP3      163             0.0000000000
     22809       355  TIP3      H2            -21.7109137868      -26.0709253958       32.0240868290  TIP3      163             0.0000000000
     22810       356  TIP3      OH2           -26.5450673610      -25.0762877504       34.9236824333  TIP3      164             0.0000000000
     22811       356  TIP3      H1            -26.8989085824      -25.5029822528       35.7105703074  TIP3      164             0.0000000000
     22812       356  TIP3      H2            -26.8040472121      -24.1528136040       35.0354452733  TIP3      164             0.0000000000
     22813       357  TIP3      OH2           -23.5239008011      -30.5026807330       23.6300076069  TIP3      165             0.0000000000
     22814       357  TIP3      H1            -22.6193829858      -30.7548188872       23.8794059936  TIP3      165             0.0000000000
     22815       357  TIP3      H2            -23.3851683918      -29.8783503746       22.9150975288  TIP3      165             0.0000000000
     22816       358  TIP3      OH2           -32.9033483432      -25.9328946999       29.4811022182  TIP3      166             0.0000000000
     22817       358  TIP3      H1            -32.2441035907      -26.0345435826       28.7785279159  TIP3      166             0.0000000000
     22818       358  TIP3      H2            -32.8596236258      -26.7879510539       29.9424874124  TIP3      166             0.0000000000
     22819       359  TIP3      OH2           -25.8903764989      -23.8892742710       22.8124677453  TIP3      167             0.0000000000
     22820       359  TIP3      H1            -26.3301406390      -23.0527622601       23.0246201334  TIP3      167             0.0000000000
     22821       359  TIP3      H2            -26.6779593568      -24.4570257925       22.9081033776  TIP3      167             0.0000000000
     22822       360  TIP3      OH2           -35.6972816401      -27.7697462293       34.4830449440  TIP3      168             0.0000000000
     22823       360  TIP3      H1            -35.6131017303      -27.9953944984       35.4219037217  TIP3      168             0.0000000000
     22824       360  TIP3      H2            -36.5472719652      -28.1749188794       34.2628753346  TIP3      168             0.0000000000
     22825       361  TIP3      OH2           -28.9273386339      -27.9831430586       36.9142619279  TIP3      169             0.0000000000
     22826       361  TIP3      H1            -29.2480435617      -28.3029602866       36.0577594176  TIP3      169             0.0000000000
     22827       361  TIP3      H2            -28.0024658189      -28.3017276580       36.9094236439  TIP3      169             0.0000000000
     22828       362  TIP3      OH2           -24.2364840660      -22.6835021451       34.8859876687  TIP3      170             0.0000000000
     22829       362  TIP3      H1            -25.1436803584      -22.4543863559       34.6234122207  TIP3      170             0.0000000000
     22830       362  TIP3      H2            -24.2683410594      -22.3442559468       35.8006186628  TIP3      170             0.0000000000
     22831       363  TIP3      OH2           -18.5622380168      -30.4488437429       23.2545627489  TIP3      171             0.0000000000
     22832       363  TIP3      H1            -19.1382955462      -30.7992570932       22.5607294498  TIP3      171             0.0000000000
     22833       363  TIP3      H2            -18.5284740457      -29.5036740530       23.0419024554  TIP3      171             0.0000000000
     22834       364  TIP3      OH2           -18.5737298835      -24.6258303880       36.0708041163  TIP3      172             0.0000000000
     22835       364  TIP3      H1            -19.4756550604      -24.4024928029       35.7352339576  TIP3      172             0.0000000000
     22836       364  TIP3      H2            -18.0380949784      -24.6643466010       35.2519209206  TIP3      172             0.0000000000
     22837       365  TIP3      OH2           -23.0704439980      -26.8263933043       30.7669336619  TIP3      173             0.0000000000
     22838       365  TIP3      H1            -24.0114549288      -27.0288552595       30.6516261056  TIP3      173             0.0000000000
     22839       365  TIP3      H2            -22.6441137538      -27.5897505945       30.3285995321  TIP3      173             0.0000000000
     22840       366  TIP3      OH2           -30.5668336950      -22.4780162446       26.9158149081  TIP3      174             0.0000000000
     22841       366  TIP3      H1            -30.0530531007      -21.6981413554       26.6421489342  TIP3      174             0.0000000000
     22842       366  TIP3      H2            -31.4234139345      -22.2677807212       26.5200726398  TIP3      174             0.0000000000
     22843       367  TIP3      OH2           -29.1186858025      -24.8300101916       26.4197019587  TIP3      175             0.0000000000
     22844       367  TIP3      H1            -29.4499025849      -23.9143678812       26.4764999949  TIP3      175             0.0000000000
     22845       367  TIP3      H2            -29.8558385802      -25.3199474483       26.8230023525  TIP3      175             0.0000000000
     22846       368  TIP3      OH2           -28.6659054413      -20.6417832938       32.7975613757  TIP3      176             0.0000000000
     22847       368  TIP3      H1            -28.2033092340      -19.8406526060       32.5034260938  TIP3      176             0.0000000000
     22848       368  TIP3      H2            -28.0314857462      -20.9876684583       33.4504189912  TIP3      176             0.0000000000
     22849       369  TIP3      OH2           -30.4776227844      -19.8521720824       26.0142313779  TIP3      177             0.0000000000
     22850       369  TIP3      H1            -31.4445259739      -19.6994107660       26.0687676342  TIP3      177             0.0000000000
     22851       369  TIP3      H2            -30.0977534158      -18.9890347474       26.2412172011  TIP3      177             0.0000000000
     22852       370  TIP3      OH2           -25.1975160668      -24.6936791720       32.4134409936  TIP3      178             0.0000000000
     22853       370  TIP3      H1            -25.4800710833      -24.8410167441       33.3373579753  TIP3      178             0.0000000000
     22854       370  TIP3      H2            -24.5158786520      -25.3644914992       32.2521243508  TIP3      178             0.0000000000
     22855       371  TIP3      OH2           -22.3736152533      -20.0315669926       34.9801612373  TIP3      179             0.0000000000
     22856       371  TIP3      H1            -22.9937727978      -20.5528209092       34.4276827453  TIP3      179             0.0000000000
     22857       371  TIP3      H2            -22.1540550738      -19.4071642762       34.2537469046  TIP3      179             0.0000000000
     22858       372  TIP3      OH2           -34.2914806601      -32.8466854717       34.2483123038  TIP3      180             0.0000000000
     22859       372  TIP3      H1            -35.1771213719      -32.4625201743       34.3084198678  TIP3      180             0.0000000000
     22860       372  TIP3      H2            -34.4143348333      -33.6873037026       34.7371974038  TIP3      180             0.0000000000
     22861       373  TIP3      OH2           -22.0676344313      -24.9103165402       23.9374738903  TIP3      181             0.0000000000
     22862       373  TIP3      H1            -22.2656213978      -25.7961711202       24.2890705731  TIP3      181             0.0000000000
     22863       373  TIP3      H2            -21.0912397310      -24.9227298508       23.9029906780  TIP3      181             0.0000000000
     22864       374  TIP3      OH2           -34.6244113180      -20.9925035433       32.6788020013  TIP3      182             0.0000000000
     22865       374  TIP3      H1            -34.4054166834      -21.9383596682       32.7145413343  TIP3      182             0.0000000000
     22866       374  TIP3      H2            -34.4404365811      -20.7484440899       33.5906382473  TIP3      182             0.0000000000
     22867       375  TIP3      OH2           -33.3810128812      -25.6916018654       22.8948927887  TIP3      183             0.0000000000
     22868       375  TIP3      H1            -34.0872424063      -25.3403735618       23.4808119484  TIP3      183             0.0000000000
     22869       375  TIP3      H2            -32.8605463355      -24.8991274830       22.7291946667  TIP3      183             0.0000000000
     22870       376  TIP3      OH2           -25.5416323210      -33.0652278602       33.2646264579  TIP3      184             0.0000000000
     22871       376  TIP3      H1            -24.8202642954      -32.9765080996       33.9045164079  TIP3      184             0.0000000000
     22872       376  TIP3      H2            -25.9069957011      -33.9535899528       33.4469861608  TIP3      184             0.0000000000
     22873       377  TIP3      OH2           -24.7211088926      -33.4879256077       24.3415481448  TIP3      185             0.0000000000
     22874       377  TIP3      H1            -24.6703697133      -32.9617743242       23.5149061862  TIP3      185             0.0000000000
     22875       377  TIP3      H2            -24.2297058575      -32.9549050340       24.9794337684  TIP3      185             0.0000000000
     22876       378  TIP3      OH2           -27.6186318143      -31.6955656493       25.1260357523  TIP3      186             0.0000000000
     22877       378  TIP3      H1            -26.7965272336      -31.1654822172       25.1671473714  TIP3      186             0.0000000000
     22878       378  TIP3      H2            -27.8197194450      -31.8753696926       26.0600330950  TIP3      186             0.0000000000
     22879       379  TIP3      OH2           -27.0330805801      -30.7007218276       34.3568081688  TIP3      187             0.0000000000
     22880       379  TIP3      H1            -26.9472929994      -30.1441677111       35.1554201940  TIP3      187             0.0000000000
     22881       379  TIP3      H2            -26.3611426622      -31.3909930589       34.4340289052  TIP3      187             0.0000000000
     22882       380  TIP3      OH2           -26.6930438126      -34.7003592073       26.1176022439  TIP3      188             0.0000000000
     22883       380  TIP3      H1            -27.0743693077      -34.0160711510       26.6862847868  TIP3      188             0.0000000000
     22884       380  TIP3      H2            -26.0690269192      -34.1430548837       25.6000706935  TIP3      188             0.0000000000
     22885       381  TIP3      OH2           -29.8595439758      -20.2492205425       23.2233644764  TIP3      189             0.0000000000
     22886       381  TIP3      H1            -29.6039314648      -19.4986932107       22.6514436704  TIP3      189             0.0000000000
     22887       381  TIP3      H2            -29.9859151778      -19.8786818248       24.0989587987  TIP3      189             0.0000000000
     22888       382  TIP3      OH2           -20.8596054091      -32.8509527180       35.2009222375  TIP3      190             0.0000000000
     22889       382  TIP3      H1            -21.7771913678      -32.5093833296       35.0694286892  TIP3      190             0.0000000000
     22890       382  TIP3      H2            -20.5474791246      -32.8596144035       34.2780739587  TIP3      190             0.0000000000
     22891       383  TIP3      OH2           -22.2425435360      -29.0271207001       29.2411718682  TIP3      191             0.0000000000
     22892       383  TIP3      H1            -23.0536809891      -29.4750883448       28.9223976970  TIP3      191             0.0000000000
     22893       383  TIP3      H2            -21.7561577968      -29.7293388983       29.7273397547  TIP3      191             0.0000000000
     22894       384  TIP3      OH2           -32.8403109986      -23.0762425415       21.7405821589  TIP3      192             0.0000000000
     22895       384  TIP3      H1            -32.2232196909      -22.4394089088       22.1485563699  TIP3      192             0.0000000000
     22896       384  TIP3      H2            -32.2278828484      -23.5486356724       21.1756003319  TIP3      192             0.0000000000
     22897       385  TIP3      OH2           -20.5139123299      -19.7841774488       30.0903232882  TIP3      193             0.0000000000
     22898       385  TIP3      H1            -21.2262389678      -19.1218735405       30.1471655385  TIP3      193             0.0000000000
     22899       385  TIP3      H2            -20.1881099927      -19.7323323987       31.0068512756  TIP3      193             0.0000000000
     22900       386  TIP3      OH2           -33.8548886117      -35.5010428333       29.6861766602  TIP3      194             0.0000000000
     22901       386  TIP3      H1            -33.8561768964      -35.6118649304       28.7160559932  TIP3      194             0.0000000000
     22902       386  TIP3      H2            -34.0284217049      -36.4262747241       29.9303490040  TIP3      194             0.0000000000
     22903       387  TIP3      OH2           -34.6981712059      -21.7166952792       25.8478341595  TIP3      195             0.0000000000
     22904       387  TIP3      H1            -35.5725007304      -21.3187559949       25.7666078047  TIP3      195             0.0000000000
     22905       387  TIP3      H2            -34.2453255736      -21.2535156723       25.1283831770  TIP3      195             0.0000000000
     22906       388  TIP3      OH2           -35.3417431997      -19.0782555595       37.0826029651  TIP3      196             0.0000000000
     22907       388  TIP3      H1            -34.8480023466      -19.3068910076       37.8877258605  TIP3      196             0.0000000000
     22908       388  TIP3      H2            -35.8870893285      -19.8852370810       36.9652659598  TIP3      196             0.0000000000
     22909       389  TIP3      OH2           -30.8326924977      -20.2005243344       38.7268429663  TIP3      197             0.0000000000
     22910       389  TIP3      H1            -30.0551504570      -20.6714690080       39.0478373085  TIP3      197             0.0000000000
     22911       389  TIP3      H2            -30.8675727933      -20.4672718078       37.7865939860  TIP3      197             0.0000000000
     22912       390  TIP3      OH2           -24.3720168332      -21.7801648627       37.4691886697  TIP3      198             0.0000000000
     22913       390  TIP3      H1            -24.6632779279      -22.6744001575       37.7376558001  TIP3      198             0.0000000000
     22914       390  TIP3      H2            -23.5751043810      -21.6551200866       38.0254397129  TIP3      198             0.0000000000
     22915       391  TIP3      OH2           -35.4552912783      -25.3228783673       38.0835591180  TIP3      199             0.0000000000
     22916       391  TIP3      H1            -35.4263946628      -26.2563019390       37.8110637040  TIP3      199             0.0000000000
     22917       391  TIP3      H2            -36.2930591804      -25.0162192777       37.6734804828  TIP3      199             0.0000000000
     22918       392  TIP3      OH2           -28.8848818267      -25.3314260875       37.4656634547  TIP3      200             0.0000000000
     22919       392  TIP3      H1            -29.2322590079      -25.0103048614       36.6141438915  TIP3      200             0.0000000000
     22920       392  TIP3      H2            -28.8221824334      -26.3095842178       37.3520111425  TIP3      200             0.0000000000
     22921       393  TIP3      OH2           -23.1955863715      -25.4646678576       34.9024939856  TIP3      201             0.0000000000
     22922       393  TIP3      H1            -22.4108050652      -24.8782839642       34.8179868442  TIP3      201             0.0000000000
     22923       393  TIP3      H2            -23.8816613819      -24.7796222569       34.9258918512  TIP3      201             0.0000000000
     22924       394  TIP3      OH2           -34.7574030917      -28.1021990788       37.4848637819  TIP3      202             0.0000000000
     22925       394  TIP3      H1            -34.2558745990      -28.9351246439       37.4058108839  TIP3      202             0.0000000000
     22926       394  TIP3      H2            -34.8680230866      -28.0571005127       38.4519441395  TIP3      202             0.0000000000
     22927       395  TIP3      OH2           -30.0484719781      -26.9494159484       22.5313979151  TIP3      203             0.0000000000
     22928       395  TIP3      H1            -30.5564207342      -27.4314352309       23.2038475097  TIP3      203             0.0000000000
     22929       395  TIP3      H2            -29.8091912043      -27.6413805359       21.9031582221  TIP3      203             0.0000000000
     22930       396  TIP3      OH2           -30.7962490123      -29.1433608594       34.8479082003  TIP3      204             0.0000000000
     22931       396  TIP3      H1            -31.4131858493      -28.4311329223       35.1019640898  TIP3      204             0.0000000000
     22932       396  TIP3      H2            -30.3968156495      -28.7713766411       34.0406707931  TIP3      204             0.0000000000
     22933       397  TIP3      OH2           -25.7196753587      -26.5599159480       38.2491701564  TIP3      205             0.0000000000
     22934       397  TIP3      H1            -24.7726237554      -26.5978842878       38.0514089488  TIP3      205             0.0000000000
     22935       397  TIP3      H2            -25.8822577496      -27.3407494102       38.7934339825  TIP3      205             0.0000000000
     22936       398  TIP3      OH2           -30.3530869714      -31.7516748244       35.8923604439  TIP3      206             0.0000000000
     22937       398  TIP3      H1            -30.2700371436      -32.4608585928       35.2309342036  TIP3      206             0.0000000000
     22938       398  TIP3      H2            -30.4594240476      -30.9448006260       35.3560603665  TIP3      206             0.0000000000
     22939       399  TIP3      OH2           -29.9776462005      -33.3627471115       33.4347175516  TIP3      207             0.0000000000
     22940       399  TIP3      H1            -29.4697788968      -32.8925075784       32.7279547502  TIP3      207             0.0000000000
     22941       399  TIP3      H2            -30.8755758158      -33.4759867973       33.0409465536  TIP3      207             0.0000000000
     22942       400  TIP3      OH2           -28.4476903010      -27.8886874549       33.6966093448  TIP3      208             0.0000000000
     22943       400  TIP3      H1            -27.6917029259      -28.0536701429       33.1238784238  TIP3      208             0.0000000000
     22944       400  TIP3      H2            -28.8065235292      -27.0511978185       33.3577626148  TIP3      208             0.0000000000
     22945       401  TIP3      OH2           -24.0616625285      -30.1764361571       38.6715915546  TIP3      209             0.0000000000
     22946       401  TIP3      H1            -23.8115987952      -31.1003903902       38.5404052734  TIP3      209             0.0000000000
     22947       401  TIP3      H2            -23.1960501883      -29.7282257549       38.6710363910  TIP3      209             0.0000000000
     22948       402  TIP3      OH2           -22.7052094908      -27.3497388925       36.8166472118  TIP3      210             0.0000000000
     22949       402  TIP3      H1            -22.9551506130      -26.6203149064       36.2074428791  TIP3      210             0.0000000000
     22950       402  TIP3      H2            -21.7411016963      -27.3762765658       36.6344638425  TIP3      210             0.0000000000
     22951       403  TIP3      OH2           -31.9416919624      -30.5055765359       37.8323230899  TIP3      211             0.0000000000
     22952       403  TIP3      H1            -32.7181494806      -31.0816340160       37.6480671335  TIP3      211             0.0000000000
     22953       403  TIP3      H2            -31.3060971724      -30.8511886475       37.1772360919  TIP3      211             0.0000000000
     22954       404  TIP3      OH2           -29.2785309169      -35.7922337795       34.0205960878  TIP3      212             0.0000000000
     22955       404  TIP3      H1            -29.3736650578      -34.8327534419       33.7990815627  TIP3      212             0.0000000000
     22956       404  TIP3      H2            -29.9325472335      -36.1881460980       33.4201117421  TIP3      212             0.0000000000
     22957       405  TIP3      OH2           -27.9061210686      -31.6321485820       37.5045329440  TIP3      213             0.0000000000
     22958       405  TIP3      H1            -28.2765808490      -31.8680321964       38.3685433295  TIP3      213             0.0000000000
     22959       405  TIP3      H2            -28.6770193141      -31.8081625616       36.9255143604  TIP3      213             0.0000000000
     22960       406  TIP3      OH2           -25.2063150711      -32.4095247232       36.5939670941  TIP3      214             0.0000000000
     22961       406  TIP3      H1            -26.1769919613      -32.4208985794       36.6738692488  TIP3      214             0.0000000000
     22962       406  TIP3      H2            -24.9322782507      -33.0912333523       37.2374107866  TIP3      214             0.0000000000
     22963       407  TIP3      OH2           -23.6330171869      -33.7483117190       38.4910592564  TIP3      215             0.0000000000
     22964       407  TIP3      H1            -23.6441995899      -34.7387758935       38.4501421483  TIP3      215             0.0000000000
     22965       407  TIP3      H2            -23.8810829473      -33.5490102397       39.4067544668  TIP3      215             0.0000000000
     22966       408  TIP3      OH2           -33.7809766865      -32.6166872931       37.5850422403  TIP3      216             0.0000000000
     22967       408  TIP3      H1            -33.5684003386      -33.3538743799       36.9921980924  TIP3      216             0.0000000000
     22968       408  TIP3      H2            -33.9009325580      -33.0662474046       38.4479172174  TIP3      216             0.0000000000
     22969       409  TIP3      OH2           -29.0025916890       36.8511699693       36.5314215586  TIP3      217             0.0000000000
     22970       409  TIP3      H1            -28.3336082164       36.1631743230       36.6118318656  TIP3      217             0.0000000000
     22971       409  TIP3      H2            -29.0679800551       37.0700968479       35.5734751190  TIP3      217             0.0000000000
     22972       410  TIP3      OH2           -28.6137748685      -34.8877853624       38.6224410816  TIP3      218             0.0000000000
     22973       410  TIP3      H1            -28.7739135113      -35.4598241352       37.8333546686  TIP3      218             0.0000000000
     22974       410  TIP3      H2            -29.2259070921      -34.1470607399       38.5058432635  TIP3      218             0.0000000000
     22975       411  TIP3      OH2           -29.1195386038      -17.9914528087       21.8260399432  TIP3      219             0.0000000000
     22976       411  TIP3      H1            -28.1543191221      -17.9336728448       21.8939031864  TIP3      219             0.0000000000
     22977       411  TIP3      H2            -29.3484083231      -17.3653403624       21.1331229846  TIP3      219             0.0000000000
     22978       412  TIP3      OH2           -35.5419944121      -23.4476702007       21.3078965618  TIP3      220             0.0000000000
     22979       412  TIP3      H1            -34.5974058765      -23.3242436693       21.5348779015  TIP3      220             0.0000000000
     22980       412  TIP3      H2            -35.5207908218      -24.1041408591       20.6126789868  TIP3      220             0.0000000000
     22981       413  TIP3      OH2            36.8683662330      -17.9655752739       26.1675318706  TIP3      221             0.0000000000
     22982       413  TIP3      H1             36.0078041314      -18.2226229061       25.7983535582  TIP3      221             0.0000000000
     22983       413  TIP3      H2             37.0064979587      -18.6333866221       26.8816901577  TIP3      221             0.0000000000
     22984       414  TIP3      OH2           -36.0491920019      -19.8859581153       28.1024416932  TIP3      222             0.0000000000
     22985       414  TIP3      H1            -36.3255642748      -20.7936631827       28.3327873544  TIP3      222             0.0000000000
     22986       414  TIP3      H2            -35.7297375713      -19.5922562179       28.9737829272  TIP3      222             0.0000000000
     22987       415  TIP3      OH2           -18.2095522526      -19.2113240746       31.1771403703  TIP3      223             0.0000000000
     22988       415  TIP3      H1            -18.4028142220      -18.9266219146       32.0756627662  TIP3      223             0.0000000000
     22989       415  TIP3      H2            -17.7223184510      -18.4806090405       30.7926422319  TIP3      223             0.0000000000
     22990       416  TIP3      OH2           -18.8914995352      -19.5402029903       34.0415691136  TIP3      224             0.0000000000
     22991       416  TIP3      H1            -19.3509458808      -20.2959907950       33.6266567975  TIP3      224             0.0000000000
     22992       416  TIP3      H2            -18.3975061657      -20.0161172262       34.7305601149  TIP3      224             0.0000000000
     22993       417  TIP3      OH2           -20.4520279992      -23.7813158945       38.6481080009  TIP3      225             0.0000000000
     22994       417  TIP3      H1            -21.3198894547      -23.8441896744       39.0871866753  TIP3      225             0.0000000000
     22995       417  TIP3      H2            -20.0631778434      -23.0122586059       39.1129245387  TIP3      225             0.0000000000
     22996       418  TIP3      OH2           -19.1472321711      -25.4754447217       24.1984734220  TIP3      226             0.0000000000
     22997       418  TIP3      H1            -18.2466084011      -25.1266467888       24.2548860510  TIP3      226             0.0000000000
     22998       418  TIP3      H2            -19.0991732259      -26.2408578799       24.7924214980  TIP3      226             0.0000000000
     22999       419  TIP3      OH2           -18.7078319855      -27.4533883989       25.9893422446  TIP3      227             0.0000000000
     23000       419  TIP3      H1            -19.5052307528      -27.8821083760       26.3727188782  TIP3      227             0.0000000000
     23001       419  TIP3      H2            -18.1584889444      -27.2750223463       26.7760294782  TIP3      227             0.0000000000
     23002       420  TIP3      OH2           -18.9891025184      -24.7188838160       31.0121029596  TIP3      228             0.0000000000
     23003       420  TIP3      H1            -18.1822678714      -25.0738295745       30.6033327192  TIP3      228             0.0000000000
     23004       420  TIP3      H2            -18.8798869430      -23.7611497179       30.8328088708  TIP3      228             0.0000000000
     23005       421  TIP3      OH2           -20.4024149560      -21.9221648957       33.3490551833  TIP3      229             0.0000000000
     23006       421  TIP3      H1            -21.1077026455      -21.4334987773       33.8065498688  TIP3      229             0.0000000000
     23007       421  TIP3      H2            -20.9549040332      -22.1576720634       32.5734123821  TIP3      229             0.0000000000
     23008       422  TIP3      OH2           -20.9161851843      -28.9425851207       26.5706348117  TIP3      230             0.0000000000
     23009       422  TIP3      H1            -21.0959010640      -29.8938481778       26.5455112396  TIP3      230             0.0000000000
     23010       422  TIP3      H2            -21.2700156906      -28.7140900691       27.4501899986  TIP3      230             0.0000000000
     23011       423  TIP3      OH2           -35.9599200868      -26.8713884439       30.6245129552  TIP3      231             0.0000000000
     23012       423  TIP3      H1            -35.7654325205      -26.9057645537       29.6604078037  TIP3      231             0.0000000000
     23013       423  TIP3      H2            -35.0660090759      -27.0022268002       31.0053722325  TIP3      231             0.0000000000
     23014       424  TIP3      OH2           -20.0742438572      -26.9920484526       36.2377042876  TIP3      232             0.0000000000
     23015       424  TIP3      H1            -19.4534698375      -27.7330833835       36.4236201182  TIP3      232             0.0000000000
     23016       424  TIP3      H2            -19.4853846551      -26.2031404739       36.2704013609  TIP3      232             0.0000000000
     23017       425  TIP3      OH2           -18.5761267296      -29.0875198125       36.8660863980  TIP3      233             0.0000000000
     23018       425  TIP3      H1            -19.4595073435      -29.4976969114       36.7790017688  TIP3      233             0.0000000000
     23019       425  TIP3      H2            -17.9908135636      -29.8686375270       36.8856459938  TIP3      233             0.0000000000
     23020       426  TIP3      OH2           -21.2459611568      -31.3481786248       25.0845534890  TIP3      234             0.0000000000
     23021       426  TIP3      H1            -20.9933683695      -32.2966328568       25.1532882791  TIP3      234             0.0000000000
     23022       426  TIP3      H2            -20.4660682858      -30.9630793109       24.6666583503  TIP3      234             0.0000000000
     23023       427  TIP3      OH2           -20.6317006768      -30.7932869485       30.4765454970  TIP3      235             0.0000000000
     23024       427  TIP3      H1            -19.6699433908      -30.5734030701       30.4640435327  TIP3      235             0.0000000000
     23025       427  TIP3      H2            -20.8171065445      -30.6796541472       31.4212521667  TIP3      235             0.0000000000
     23026       428  TIP3      OH2           -20.5669949158      -30.0685547430       33.2645078673  TIP3      236             0.0000000000
     23027       428  TIP3      H1            -21.4522262254      -29.7945679390       33.5801522777  TIP3      236             0.0000000000
     23028       428  TIP3      H2            -20.1325360016      -29.2140187804       33.0404287265  TIP3      236             0.0000000000
     23029       429  TIP3      OH2           -36.1131839288      -31.6119477692       36.8015979577  TIP3      237             0.0000000000
     23030       429  TIP3      H1            -35.2112602969      -31.8886012221       37.0391688931  TIP3      237             0.0000000000
     23031       429  TIP3      H2            -36.6882277029      -32.3374222056       37.1258803400  TIP3      237             0.0000000000
     23032       430  TIP3      OH2           -18.1956006051      -36.0521891072       38.6014132167  TIP3      238             0.0000000000
     23033       430  TIP3      H1            -17.9548713214      -36.7178229150       37.9556713742  TIP3      238             0.0000000000
     23034       430  TIP3      H2            -18.2208306076      -35.2075982915       38.1056602949  TIP3      238             0.0000000000
     23035       431  TIP3      OH2           -20.6217780991      -34.0573077726       25.0668225270  TIP3      239             0.0000000000
     23036       431  TIP3      H1            -20.3956746716      -34.5240059537       25.8991244924  TIP3      239             0.0000000000
     23037       431  TIP3      H2            -21.2241959503      -34.7134140758       24.6492376531  TIP3      239             0.0000000000
     23038       432  TIP3      OH2           -35.1602169880      -33.2232333610       29.6657401060  TIP3      240             0.0000000000
     23039       432  TIP3      H1            -34.6573667324      -34.0406048574       29.8962792876  TIP3      240             0.0000000000
     23040       432  TIP3      H2            -34.5706854401      -32.5752441599       30.0760521600  TIP3      240             0.0000000000
     23041       433  TIP3      OH2           -36.1174527924      -29.7528082945       31.0920872902  TIP3      241             0.0000000000
     23042       433  TIP3      H1            -36.0286843905      -30.1162516630       30.1900176888  TIP3      241             0.0000000000
     23043       433  TIP3      H2            -36.3303751661      -28.8500143691       30.8462712555  TIP3      241             0.0000000000
     23044       434  TIP3      OH2           -18.7532144882      -33.9668638961       36.9294408567  TIP3      242             0.0000000000
     23045       434  TIP3      H1            -19.6866751871      -33.6751402816       36.9320102053  TIP3      242             0.0000000000
     23046       434  TIP3      H2            -18.7724954193      -34.5181520526       36.1300328675  TIP3      242             0.0000000000
     23047       435  TIP3      OH2            37.4199968298      -33.9963989282       25.3131490774  TIP3      243             0.0000000000
     23048       435  TIP3      H1             36.4546662698      -33.9325758462       25.1730876430  TIP3      243             0.0000000000
     23049       435  TIP3      H2             37.7021827147      -33.5128022212       24.5225970665  TIP3      243             0.0000000000
     23050       436  TIP3      OH2           -21.7348276547      -18.9799881182       26.6326757882  TIP3      244             0.0000000000
     23051       436  TIP3      H1            -21.0333227452      -19.3701759036       26.0929708283  TIP3      244             0.0000000000
     23052       436  TIP3      H2            -21.2345423852      -18.6015282565       27.3732110322  TIP3      244             0.0000000000
     23053       437  TIP3      OH2            37.0439706736      -35.3515957227       33.1921666857  TIP3      245             0.0000000000
     23054       437  TIP3      H1             36.3047541834      -35.5974191565       33.7400582172  TIP3      245             0.0000000000
     23055       437  TIP3      H2             36.5559038485      -34.8112767739       32.5488226216  TIP3      245             0.0000000000
     23056       438  TIP3      OH2           -34.2629569904      -22.0950883576       37.2422044842  TIP3      246             0.0000000000
     23057       438  TIP3      H1            -35.1041268512      -21.9365817168       36.8026855903  TIP3      246             0.0000000000
     23058       438  TIP3      H2            -34.5412459207      -22.2363551541       38.1514737567  TIP3      246             0.0000000000
     23059       439  TIP3      OH2           -31.3584404019      -21.1233004916       33.4997468030  TIP3      247             0.0000000000
     23060       439  TIP3      H1            -31.7429941487      -20.2739263519       33.2192133928  TIP3      247             0.0000000000
     23061       439  TIP3      H2            -30.4363646651      -21.0282255704       33.1781727257  TIP3      247             0.0000000000
     23062       440  TIP3      OH2           -27.0604305491      -19.7206379690       36.3857986236  TIP3      248             0.0000000000
     23063       440  TIP3      H1            -26.9276425783      -20.0623317751       37.3013243401  TIP3      248             0.0000000000
     23064       440  TIP3      H2            -26.1542569871      -19.4207705062       36.1491590851  TIP3      248             0.0000000000
     23065       441  TIP3      OH2           -24.7706562182      -18.4203891726       35.7526724338  TIP3      249             0.0000000000
     23066       441  TIP3      H1            -24.0682044723      -19.0221904384       35.4452544205  TIP3      249             0.0000000000
     23067       441  TIP3      H2            -24.3600842310      -18.0050158419       36.5254360588  TIP3      249             0.0000000000
     23068       442  TIP3      OH2           -19.7396113507      -35.8119669239       34.7842210140  TIP3      250             0.0000000000
     23069       442  TIP3      H1            -20.5729044060      -35.4842455710       34.4196679274  TIP3      250             0.0000000000
     23070       442  TIP3      H2            -19.5803623276      -36.6366520842       34.2855304899  TIP3      250             0.0000000000
     23071       443  TIP3      OH2           -33.9340124923      -17.8890765619       33.5174791908  TIP3      251             0.0000000000
     23072       443  TIP3      H1            -34.6901710768      -17.4294813400       33.0993235343  TIP3      251             0.0000000000
     23073       443  TIP3      H2            -34.2967567526      -18.0999138890       34.3917174591  TIP3      251             0.0000000000
     23074       444  TIP3      OH2           -31.4811604305      -18.3173605363       32.5549742581  TIP3      252             0.0000000000
     23075       444  TIP3      H1            -32.3677117702      -18.1603642617       32.9568068918  TIP3      252             0.0000000000
     23076       444  TIP3      H2            -31.5301464496      -17.7278824694       31.7829515855  TIP3      252             0.0000000000
     23077       445  TIP3      OH2           -26.8431907313      -18.4165741751       31.6758301962  TIP3      253             0.0000000000
     23078       445  TIP3      H1            -27.2510973075      -17.8148018700       31.0504022540  TIP3      253             0.0000000000
     23079       445  TIP3      H2            -26.6229015383      -17.8268004805       32.4372737246  TIP3      253             0.0000000000
     23080       446  TIP3      OH2           -24.9147463244      -19.2623729810       33.1368258935  TIP3      254             0.0000000000
     23081       446  TIP3      H1            -25.4510744541      -19.2894019857       32.3296427890  TIP3      254             0.0000000000
     23082       446  TIP3      H2            -24.0923707732      -18.9324791125       32.7162634200  TIP3      254             0.0000000000
     23083       447  TIP3      OH2           -21.6526903021      -17.7903079807       33.0511687304  TIP3      255             0.0000000000
     23084       447  TIP3      H1            -22.0074968873      -16.9543459413       32.7209570597  TIP3      255             0.0000000000
     23085       447  TIP3      H2            -21.7645061844      -18.3893571024       32.2651715151  TIP3      255             0.0000000000
     23086       448  TIP3      OH2           -34.5146786822      -19.2529799733       30.4073643077  TIP3      256             0.0000000000
     23087       448  TIP3      H1            -34.5542212228      -19.6855199721       31.2839344474  TIP3      256             0.0000000000
     23088       448  TIP3      H2            -33.7015943982      -19.6455725989       30.0292100759  TIP3      256             0.0000000000
     23089       449  TIP3      OH2           -32.4192510829      -20.5530908152       29.0706530758  TIP3      257             0.0000000000
     23090       449  TIP3      H1            -32.5974295933      -21.4810104263       29.3195923988  TIP3      257             0.0000000000
     23091       449  TIP3      H2            -31.5641728370      -20.3891104285       29.5262681523  TIP3      257             0.0000000000
     23092       450  TIP3      OH2           -29.8719374165      -20.0706136442       29.9600911008  TIP3      258             0.0000000000
     23093       450  TIP3      H1            -29.6688211750      -20.9835159199       29.6900124660  TIP3      258             0.0000000000
     23094       450  TIP3      H2            -29.7870157614      -20.1269469654       30.9233356418  TIP3      258             0.0000000000
     23095       451  TIP3      OH2           -26.3743509929      -34.3112146344       29.0761263546  TIP3      259             0.0000000000
     23096       451  TIP3      H1            -27.0165419015      -35.0015764366       29.3546077944  TIP3      259             0.0000000000
     23097       451  TIP3      H2            -25.7715786953      -34.8654140509       28.5630667051  TIP3      259             0.0000000000
     23098       452  TIP3      OH2           -21.2383264870      -36.3296551263       29.1790486549  TIP3      260             0.0000000000
     23099       452  TIP3      H1            -20.6260177472      -35.7963764975       28.6276645965  TIP3      260             0.0000000000
     23100       452  TIP3      H2            -22.1095214439      -36.0023300854       28.9277727636  TIP3      260             0.0000000000
     23101       453  TIP3      OH2           -19.5370311416      -35.0797224203       27.3858394997  TIP3      261             0.0000000000
     23102       453  TIP3      H1            -18.8553405590      -35.6943083263       27.0565312426  TIP3      261             0.0000000000
     23103       453  TIP3      H2            -19.0247620927      -34.2588008211       27.5356099458  TIP3      261             0.0000000000
     23104       454  TIP3      OH2           -33.8706803387      -35.7556240266       26.7184428082  TIP3      262             0.0000000000
     23105       454  TIP3      H1            -34.8078573627      -35.9956858962       26.5544395899  TIP3      262             0.0000000000
     23106       454  TIP3      H2            -33.5728190632      -36.6309372942       27.0194478093  TIP3      262             0.0000000000
     23107       455  TIP3      OH2           -34.2173742486      -35.5285384070       22.2662740472  TIP3      263             0.0000000000
     23108       455  TIP3      H1            -34.4744303924      -34.9669150932       21.5502967032  TIP3      263             0.0000000000
     23109       455  TIP3      H2            -35.0693715484      -35.4844993547       22.6957374232  TIP3      263             0.0000000000
     23110       456  TIP3      OH2           -23.9859116825      -35.5946513081       28.3977515910  TIP3      264             0.0000000000
     23111       456  TIP3      H1            -23.9023680587      -35.5794695887       27.4419928032  TIP3      264             0.0000000000
     23112       456  TIP3      H2            -24.1044937351      -36.5629769554       28.5343912401  TIP3      264             0.0000000000
     23113       457  TIP3      OH2           -22.5407773138      -35.8233682303       24.1397933844  TIP3      265             0.0000000000
     23114       457  TIP3      H1            -23.2241302374      -35.1997811558       23.8237975904  TIP3      265             0.0000000000
     23115       457  TIP3      H2            -23.0171184369      -36.6588568860       24.1664092486  TIP3      265             0.0000000000
     23116       458  TIP3      OH2           -35.1371852305      -19.9911931449       23.5450396308  TIP3      266             0.0000000000
     23117       458  TIP3      H1            -35.9555851834      -20.0812836576       23.0146258920  TIP3      266             0.0000000000
     23118       458  TIP3      H2            -35.2744180195      -19.0819064752       23.8326485799  TIP3      266             0.0000000000
     23119       459  TIP3      OH2           -26.4369092604      -18.7768347284       21.9960500348  TIP3      267             0.0000000000
     23120       459  TIP3      H1            -25.5573450225      -18.4686482046       21.8018207929  TIP3      267             0.0000000000
     23121       459  TIP3      H2            -26.6966963211      -19.2831813598       21.2161747566  TIP3      267             0.0000000000
     23122       460  TIP3      OH2           -19.8432989307      -19.2921668517       24.7117970495  TIP3      268             0.0000000000
     23123       460  TIP3      H1            -19.8843924799      -20.0670320937       24.1346945939  TIP3      268             0.0000000000
     23124       460  TIP3      H2            -19.7635960801      -18.5502360468       24.0971417724  TIP3      268             0.0000000000
     23125       461  TIP3      OH2           -34.2240986811      -35.1888150107       36.4084593006  TIP3      269             0.0000000000
     23126       461  TIP3      H1            -34.5286211538      -36.0174556968       36.7969682262  TIP3      269             0.0000000000
     23127       461  TIP3      H2            -33.2835787897      -35.2366476932       36.7075607983  TIP3      269             0.0000000000
     23128       462  TIP3      OH2           -32.2869749492      -35.7081292299       37.9213820433  TIP3      270             0.0000000000
     23129       462  TIP3      H1            -31.3432979875      -35.9420548043       37.8344469443  TIP3      270             0.0000000000
     23130       462  TIP3      H2            -32.4969833544      -36.5296908505       38.4015768312  TIP3      270             0.0000000000
     23131       463  TIP3      OH2           -33.4676743493      -19.1678124221       20.6302820323  TIP3      271             0.0000000000
     23132       463  TIP3      H1            -33.7592380519      -18.8231164562       21.4891140950  TIP3      271             0.0000000000
     23133       463  TIP3      H2            -32.6728407872      -19.6274247838       20.8745629336  TIP3      271             0.0000000000
     23134       464  TIP3      OH2           -23.7417110062       37.1413900031       38.1574853732  TIP3      272             0.0000000000
     23135       464  TIP3      H1            -23.6889720190       36.4689881319       38.8659170710  TIP3      272             0.0000000000
     23136       464  TIP3      H2            -22.8919467578       36.9039334156       37.7418447427  TIP3      272             0.0000000000
     23137       465  TIP3      OH2           -20.4973457482      -20.5204804630       36.8870043628  TIP3      273             0.0000000000
     23138       465  TIP3      H1            -21.2758570429      -20.6636523336       36.3017254864  TIP3      273             0.0000000000
     23139       465  TIP3      H2            -20.6049484842      -19.5597705381       37.0144922156  TIP3      273             0.0000000000
     23140       466  TIP3      OH2            -6.0523816456      -26.6492885966       26.8262723918  TIP3      274             0.0000000000
     23141       466  TIP3      H1             -6.0593063201      -25.6700072332       26.7663278430  TIP3      274             0.0000000000
     23142       466  TIP3      H2             -6.7613493924      -26.8797386877       26.2080452252  TIP3      274             0.0000000000
     23143       467  TIP3      OH2            -7.1966372724      -27.3826199552       30.2904859208  TIP3      275             0.0000000000
     23144       467  TIP3      H1             -7.2120283231      -28.0372241797       30.9971747091  TIP3      275             0.0000000000
     23145       467  TIP3      H2             -7.5439080093      -27.8902327677       29.5367337935  TIP3      275             0.0000000000
     23146       468  TIP3      OH2           -14.8454863620      -27.7161846041       31.8512620279  TIP3      276             0.0000000000
     23147       468  TIP3      H1            -14.7578323466      -28.3995029712       32.5442672616  TIP3      276             0.0000000000
     23148       468  TIP3      H2            -14.0950735327      -27.1418471646       32.0743494969  TIP3      276             0.0000000000
     23149       469  TIP3      OH2            -3.5108234463      -24.4363371715       28.5869429561  TIP3      277             0.0000000000
     23150       469  TIP3      H1             -3.9184562220      -25.1520828027       29.0812367600  TIP3      277             0.0000000000
     23151       469  TIP3      H2             -3.4845867098      -23.7309828701       29.2576922060  TIP3      277             0.0000000000
     23152       470  TIP3      OH2           -13.9163226561      -23.2769324694       30.3654952420  TIP3      278             0.0000000000
     23153       470  TIP3      H1            -14.2234676379      -24.1397133081       30.0350962792  TIP3      278             0.0000000000
     23154       470  TIP3      H2            -12.9593516675      -23.4454593723       30.3937162031  TIP3      278             0.0000000000
     23155       471  TIP3      OH2           -17.2486570648      -29.6889430291       25.7959168687  TIP3      279             0.0000000000
     23156       471  TIP3      H1            -17.7242796657      -28.8306023284       25.7947025877  TIP3      279             0.0000000000
     23157       471  TIP3      H2            -17.8498559706      -30.2427434359       25.2884490855  TIP3      279             0.0000000000
     23158       472  TIP3      OH2           -16.5651674292      -27.4745517291       27.9719765336  TIP3      280             0.0000000000
     23159       472  TIP3      H1            -16.2903152305      -28.2961782230       28.4258937712  TIP3      280             0.0000000000
     23160       472  TIP3      H2            -15.8558112024      -27.3646376440       27.3268138733  TIP3      280             0.0000000000
     23161       473  TIP3      OH2            -6.3845087854      -19.2777583010       28.8228828175  TIP3      281             0.0000000000
     23162       473  TIP3      H1             -5.7379145597      -19.9646854602       28.5259837750  TIP3      281             0.0000000000
     23163       473  TIP3      H2             -6.6068257480      -19.6231717176       29.6874191577  TIP3      281             0.0000000000
     23164       474  TIP3      OH2            -8.8179299129      -24.9964997155       30.7780684206  TIP3      282             0.0000000000
     23165       474  TIP3      H1             -8.4825588359      -25.6157465306       30.1117156769  TIP3      282             0.0000000000
     23166       474  TIP3      H2             -8.0056038150      -24.8311261218       31.2841976694  TIP3      282             0.0000000000
     23167       475  TIP3      OH2            -0.2072681861      -33.3431438289       31.4901763446  TIP3      283             0.0000000000
     23168       475  TIP3      H1             -0.0546838242      -32.7325505829       32.2523635993  TIP3      283             0.0000000000
     23169       475  TIP3      H2              0.3410894277      -32.9104599458       30.8250209048  TIP3      283             0.0000000000
     23170       476  TIP3      OH2            -5.6719017377      -30.5392858355       31.1163533711  TIP3      284             0.0000000000
     23171       476  TIP3      H1             -5.4880955394      -31.5016436235       31.0833949463  TIP3      284             0.0000000000
     23172       476  TIP3      H2             -5.7524243856      -30.3729729260       30.1524522027  TIP3      284             0.0000000000
     23173       477  TIP3      OH2           -12.5416669778      -32.3974721246       28.2994945802  TIP3      285             0.0000000000
     23174       477  TIP3      H1            -12.4191428258      -31.5726212668       27.7865401660  TIP3      285             0.0000000000
     23175       477  TIP3      H2            -12.9321545792      -32.9872709288       27.6198988100  TIP3      285             0.0000000000
     23176       478  TIP3      OH2            -4.8009910520      -32.3685332471       26.6584542504  TIP3      286             0.0000000000
     23177       478  TIP3      H1             -4.1522890475      -32.6528064845       27.3426969732  TIP3      286             0.0000000000
     23178       478  TIP3      H2             -4.2487485736      -31.7723806878       26.1254421597  TIP3      286             0.0000000000
     23179       479  TIP3      OH2           -15.9191284179      -30.0155386186       29.0355929263  TIP3      287             0.0000000000
     23180       479  TIP3      H1            -15.2493060698      -30.5615966777       29.4869416169  TIP3      287             0.0000000000
     23181       479  TIP3      H2            -15.8113177134      -30.3311712517       28.1226536603  TIP3      287             0.0000000000
     23182       480  TIP3      OH2           -10.7589702521      -28.4722923928       28.3764121210  TIP3      288             0.0000000000
     23183       480  TIP3      H1            -10.0805903887      -29.0527070930       28.7650492228  TIP3      288             0.0000000000
     23184       480  TIP3      H2            -11.2647467979      -29.1237160571       27.8481238615  TIP3      288             0.0000000000
     23185       481  TIP3      OH2             0.2005140639      -31.9419266129       33.7633694934  TIP3      289             0.0000000000
     23186       481  TIP3      H1             -0.3910653582      -31.1688873118       33.6625266262  TIP3      289             0.0000000000
     23187       481  TIP3      H2              0.2686371653      -32.0104299179       34.7255590945  TIP3      289             0.0000000000
     23188       482  TIP3      OH2           -13.6266431210      -33.5034957637       32.3632701520  TIP3      290             0.0000000000
     23189       482  TIP3      H1            -13.9178625896      -32.9619753735       31.5993464253  TIP3      290             0.0000000000
     23190       482  TIP3      H2            -14.3353716706      -33.2756542928       33.0131630292  TIP3      290             0.0000000000
     23191       483  TIP3      OH2            -6.3387399403      -24.0399090754       25.8925685788  TIP3      291             0.0000000000
     23192       483  TIP3      H1             -6.6368095512      -24.3083967514       25.0142615028  TIP3      291             0.0000000000
     23193       483  TIP3      H2             -6.6259276962      -23.1022744342       25.9384576597  TIP3      291             0.0000000000
     23194       484  TIP3      OH2           -11.1102655278      -25.8842936871       32.5737591844  TIP3      292             0.0000000000
     23195       484  TIP3      H1            -11.8200260026      -25.2466537465       32.8009115437  TIP3      292             0.0000000000
     23196       484  TIP3      H2            -10.4131012588      -25.2806246601       32.2778415519  TIP3      292             0.0000000000
     23197       485  TIP3      OH2            -2.9970944366      -32.9963462598       28.6688552735  TIP3      293             0.0000000000
     23198       485  TIP3      H1             -3.2123571984      -33.7679139226       29.1959139912  TIP3      293             0.0000000000
     23199       485  TIP3      H2             -2.2918970470      -32.5825346759       29.1968478470  TIP3      293             0.0000000000
     23200       486  TIP3      OH2           -14.0641654001      -31.6678805827       30.3619133254  TIP3      294             0.0000000000
     23201       486  TIP3      H1            -13.4293622050      -30.9931934892       30.6894587206  TIP3      294             0.0000000000
     23202       486  TIP3      H2            -13.5372745511      -32.0930493291       29.6412216409  TIP3      294             0.0000000000
     23203       487  TIP3      OH2           -12.6607596042      -23.8855606456       33.4042193429  TIP3      295             0.0000000000
     23204       487  TIP3      H1            -12.7137932715      -22.9746294013       33.0595893193  TIP3      295             0.0000000000
     23205       487  TIP3      H2            -13.5487325742      -23.9649506890       33.8393697738  TIP3      295             0.0000000000
     23206       488  TIP3      OH2           -16.5843059320      -24.2682285407       24.1822510256  TIP3      296             0.0000000000
     23207       488  TIP3      H1            -16.9143743069      -23.9597210686       23.3210812808  TIP3      296             0.0000000000
     23208       488  TIP3      H2            -16.4850847897      -23.4348300790       24.6707329129  TIP3      296             0.0000000000
     23209       489  TIP3      OH2            -2.9747386623      -22.5910214330       30.9946202928  TIP3      297             0.0000000000
     23210       489  TIP3      H1             -3.9505355634      -22.4911309756       31.0521800901  TIP3      297             0.0000000000
     23211       489  TIP3      H2             -2.7108210901      -21.6902900578       30.7228236667  TIP3      297             0.0000000000
     23212       490  TIP3      OH2            -2.6301720376      -34.3076991129       32.4079797329  TIP3      298             0.0000000000
     23213       490  TIP3      H1             -3.3700517931      -33.7200158845       32.2001372231  TIP3      298             0.0000000000
     23214       490  TIP3      H2             -1.9398488807      -33.9400029070       31.8158393119  TIP3      298             0.0000000000
     23215       491  TIP3      OH2            -9.4049775050      -36.0139127966       29.7641981266  TIP3      299             0.0000000000
     23216       491  TIP3      H1             -9.5318207013      -36.9679097714       29.7568811778  TIP3      299             0.0000000000
     23217       491  TIP3      H2            -10.3126884638      -35.7480320396       29.9841251348  TIP3      299             0.0000000000
     23218       492  TIP3      OH2            -4.7012759326      -20.8235259182       27.5705618770  TIP3      300             0.0000000000
     23219       492  TIP3      H1             -4.2840822351      -21.5276970255       27.0329485339  TIP3      300             0.0000000000
     23220       492  TIP3      H2             -4.2944517856      -20.0381289452       27.1401814010  TIP3      300             0.0000000000
     23221       493  TIP3      OH2            -3.4848349576      -22.8875488632       26.0268799767  TIP3      301             0.0000000000
     23222       493  TIP3      H1             -3.8002591631      -23.6119618603       25.4678474392  TIP3      301             0.0000000000
     23223       493  TIP3      H2             -3.4638053310      -23.3532889596       26.8802840151  TIP3      301             0.0000000000
     23224       494  TIP3      OH2            -1.9312117064      -24.2608766683       34.5494577978  TIP3      302             0.0000000000
     23225       494  TIP3      H1             -1.7482844780      -24.9524604651       33.8644842460  TIP3      302             0.0000000000
     23226       494  TIP3      H2             -1.6463944185      -23.4596003198       34.0720217443  TIP3      302             0.0000000000
     23227       495  TIP3      OH2            -7.3937414213      -27.4261673593       24.3131695205  TIP3      303             0.0000000000
     23228       495  TIP3      H1             -8.0860131076      -26.8535883075       23.9417959786  TIP3      303             0.0000000000
     23229       495  TIP3      H2             -6.6834793644      -27.3264745560       23.6495247235  TIP3      303             0.0000000000
     23230       496  TIP3      OH2            -0.0337686964      -28.0085176537       32.5607584061  TIP3      304             0.0000000000
     23231       496  TIP3      H1             -0.6454393608      -27.2463294209       32.6329546534  TIP3      304             0.0000000000
     23232       496  TIP3      H2              0.4957740326      -27.7503495802       31.7825979807  TIP3      304             0.0000000000
     23233       497  TIP3      OH2            -3.9335179950      -27.2097020354       25.2563988058  TIP3      305             0.0000000000
     23234       497  TIP3      H1             -4.6751388446      -26.9519921800       25.8542646597  TIP3      305             0.0000000000
     23235       497  TIP3      H2             -3.4579646423      -27.8601306039       25.8005018082  TIP3      305             0.0000000000
     23236       498  TIP3      OH2            -4.1116548355      -29.0703968740       34.4298637334  TIP3      306             0.0000000000
     23237       498  TIP3      H1             -3.9799325171      -28.2028432206       34.8615348005  TIP3      306             0.0000000000
     23238       498  TIP3      H2             -4.6026873703      -28.7203839122       33.6461188161  TIP3      306             0.0000000000
     23239       499  TIP3      OH2           -12.3289595973      -26.5291991595       27.1441772730  TIP3      307             0.0000000000
     23240       499  TIP3      H1            -12.6459577772      -26.9324303264       26.3051099901  TIP3      307             0.0000000000
     23241       499  TIP3      H2            -11.7146205992      -27.2188739774       27.4858349426  TIP3      307             0.0000000000
     23242       500  TIP3      OH2           -11.0185919377      -23.1603264227       29.8291811559  TIP3      308             0.0000000000
     23243       500  TIP3      H1            -11.0189441677      -23.6740100947       29.0117378760  TIP3      308             0.0000000000
     23244       500  TIP3      H2            -10.2324921872      -23.5118545389       30.2864182612  TIP3      308             0.0000000000
     23245       501  TIP3      OH2           -11.9998952364      -27.7951141946       30.8198128422  TIP3      309             0.0000000000
     23246       501  TIP3      H1            -11.4595067197      -27.6910591659       30.0123468789  TIP3      309             0.0000000000
     23247       501  TIP3      H2            -11.6208833193      -27.1207543520       31.4231892729  TIP3      309             0.0000000000
     23248       502  TIP3      OH2            -5.5634644531      -22.2045951264       31.5612464385  TIP3      310             0.0000000000
     23249       502  TIP3      H1             -5.9186570375      -21.5627305564       32.1778523799  TIP3      310             0.0000000000
     23250       502  TIP3      H2             -5.8566700653      -23.0702603943       31.9374444026  TIP3      310             0.0000000000
     23251       503  TIP3      OH2           -11.0632207242      -23.3626801602       35.5063921976  TIP3      311             0.0000000000
     23252       503  TIP3      H1            -11.4806441821      -22.6263686391       36.0007052131  TIP3      311             0.0000000000
     23253       503  TIP3      H2            -11.7306728216      -23.5623074827       34.8073757173  TIP3      311             0.0000000000
     23254       504  TIP3      OH2            -5.0405502882      -28.0084560427       22.9165080581  TIP3      312             0.0000000000
     23255       504  TIP3      H1             -4.5095409024      -27.8017618166       23.7186944658  TIP3      312             0.0000000000
     23256       504  TIP3      H2             -4.6674813187      -27.4708908934       22.1983576971  TIP3      312             0.0000000000
     23257       505  TIP3      OH2           -14.0960963429      -27.1774465119       34.6307869221  TIP3      313             0.0000000000
     23258       505  TIP3      H1            -14.0538191672      -26.5546547092       35.3823293137  TIP3      313             0.0000000000
     23259       505  TIP3      H2            -15.0482761878      -27.1167557983       34.4572961034  TIP3      313             0.0000000000
     23260       506  TIP3      OH2            -7.3714466634      -21.2673713971       26.3707964598  TIP3      314             0.0000000000
     23261       506  TIP3      H1             -6.9224149538      -20.9629135787       27.1706145232  TIP3      314             0.0000000000
     23262       506  TIP3      H2             -7.9304140427      -20.5120680807       26.1518519166  TIP3      314             0.0000000000
     23263       507  TIP3      OH2           -12.8027640597      -21.3258140501       36.2544667702  TIP3      315             0.0000000000
     23264       507  TIP3      H1            -12.8662694370      -21.4234759822       35.2890542990  TIP3      315             0.0000000000
     23265       507  TIP3      H2            -13.7328167122      -21.4607743189       36.5240405125  TIP3      315             0.0000000000
     23266       508  TIP3      OH2            -1.3030047327      -36.1909852261       22.6766409532  TIP3      316             0.0000000000
     23267       508  TIP3      H1             -2.2212040025      -36.1879312129       23.0292518805  TIP3      316             0.0000000000
     23268       508  TIP3      H2             -1.1991938086      -35.2826838284       22.3730935800  TIP3      316             0.0000000000
     23269       509  TIP3      OH2           -13.3675744594      -27.5152443261       24.7434806364  TIP3      317             0.0000000000
     23270       509  TIP3      H1            -13.6566905817      -26.7042623841       24.3193154280  TIP3      317             0.0000000000
     23271       509  TIP3      H2            -14.0418510131      -28.1659765737       24.5425130071  TIP3      317             0.0000000000
     23272       510  TIP3      OH2           -17.2583116566      -25.0813300036       33.6489119677  TIP3      318             0.0000000000
     23273       510  TIP3      H1            -17.7150972273      -25.1656872267       32.7935733772  TIP3      318             0.0000000000
     23274       510  TIP3      H2            -17.1913018300      -26.0265742390       33.8802803570  TIP3      318             0.0000000000
     23275       511  TIP3      OH2           -17.4841504236      -22.3535082399       30.4138237779  TIP3      319             0.0000000000
     23276       511  TIP3      H1            -16.5256391484      -22.4472504472       30.4213485619  TIP3      319             0.0000000000
     23277       511  TIP3      H2            -17.6268626481      -21.5332816493       30.9204256363  TIP3      319             0.0000000000
     23278       512  TIP3      OH2             0.6622030634      -21.6307988295       36.0830959901  TIP3      320             0.0000000000
     23279       512  TIP3      H1              0.6418853208      -22.5979072847       36.1200126588  TIP3      320             0.0000000000
     23280       512  TIP3      H2             -0.1576940945      -21.4079306879       36.5661536859  TIP3      320             0.0000000000
     23281       513  TIP3      OH2            -8.2840487865      -22.1239060456       35.0435225888  TIP3      321             0.0000000000
     23282       513  TIP3      H1             -8.2792612131      -21.2586999769       35.5205465014  TIP3      321             0.0000000000
     23283       513  TIP3      H2             -9.1886491140      -22.4588010918       35.2219994155  TIP3      321             0.0000000000
     23284       514  TIP3      OH2            -7.9165998288      -18.3630898176       24.7696452258  TIP3      322             0.0000000000
     23285       514  TIP3      H1             -7.9730849038      -18.4300405837       23.8004335028  TIP3      322             0.0000000000
     23286       514  TIP3      H2             -7.8324710585      -17.4086595800       24.9414537119  TIP3      322             0.0000000000
     23287       515  TIP3      OH2           -14.2929682260      -19.4173366960       26.6562543154  TIP3      323             0.0000000000
     23288       515  TIP3      H1            -14.0842050395      -19.9030015302       27.4846488221  TIP3      323             0.0000000000
     23289       515  TIP3      H2            -15.0651139098      -19.9278311726       26.3689562819  TIP3      323             0.0000000000
     23290       516  TIP3      OH2            -5.1893661641      -19.1560721653       24.6161215250  TIP3      324             0.0000000000
     23291       516  TIP3      H1             -6.1440229566      -19.1448866836       24.7730057689  TIP3      324             0.0000000000
     23292       516  TIP3      H2             -4.8705846037      -19.9497953611       25.0679184060  TIP3      324             0.0000000000
     23293       517  TIP3      OH2            -2.1711418437      -30.1777517088       36.6130226593  TIP3      325             0.0000000000
     23294       517  TIP3      H1             -2.5407443916      -29.6936289828       35.8657999342  TIP3      325             0.0000000000
     23295       517  TIP3      H2             -2.1061568181      -31.0853325838       36.2900700992  TIP3      325             0.0000000000
     23296       518  TIP3      OH2           -14.9841877880      -23.7641792624       34.6126236567  TIP3      326             0.0000000000
     23297       518  TIP3      H1            -14.7710828256      -24.1431013959       35.4982429167  TIP3      326             0.0000000000
     23298       518  TIP3      H2            -15.8510089100      -24.1632848941       34.3903808412  TIP3      326             0.0000000000
     23299       519  TIP3      OH2           -12.3766337548      -35.1667376059       30.6926586673  TIP3      327             0.0000000000
     23300       519  TIP3      H1            -13.2093049155      -35.3256400934       30.1942782533  TIP3      327             0.0000000000
     23301       519  TIP3      H2            -12.5318404846      -34.3034498752       31.0827073028  TIP3      327             0.0000000000
     23302       520  TIP3      OH2            -7.6960646330      -35.5758675526       33.9655042114  TIP3      328             0.0000000000
     23303       520  TIP3      H1             -7.2901397338      -36.0437391620       34.6997507083  TIP3      328             0.0000000000
     23304       520  TIP3      H2             -8.6439629430      -35.7297535316       34.0875378307  TIP3      328             0.0000000000
     23305       521  TIP3      OH2            -4.4647440888      -31.8184142509       34.7498517845  TIP3      329             0.0000000000
     23306       521  TIP3      H1             -4.8379169545      -32.0146067332       35.6454832078  TIP3      329             0.0000000000
     23307       521  TIP3      H2             -4.3917692194      -30.8580021027       34.5876981232  TIP3      329             0.0000000000
     23308       522  TIP3      OH2            -7.9936712598      -33.1090991075       21.2851434852  TIP3      330             0.0000000000
     23309       522  TIP3      H1             -8.3382792348      -33.1082774540       22.1940364597  TIP3      330             0.0000000000
     23310       522  TIP3      H2             -8.3582437321      -33.9193081942       20.9416485703  TIP3      330             0.0000000000
     23311       523  TIP3      OH2           -12.2030122693      -30.3143597536       31.8036731857  TIP3      331             0.0000000000
     23312       523  TIP3      H1            -12.9375010391      -30.3300894488       32.4460675143  TIP3      331             0.0000000000
     23313       523  TIP3      H2            -12.2721217958      -29.4101701107       31.4248659905  TIP3      331             0.0000000000
     23314       524  TIP3      OH2           -12.2515137259      -30.2227912474       26.6863595670  TIP3      332             0.0000000000
     23315       524  TIP3      H1            -13.1898206733      -30.4507240825       26.5232491634  TIP3      332             0.0000000000
     23316       524  TIP3      H2            -11.8689846716      -30.4902529136       25.8290503079  TIP3      332             0.0000000000
     23317       525  TIP3      OH2            -6.7191396158      -29.7075642108       25.4478093975  TIP3      333             0.0000000000
     23318       525  TIP3      H1             -7.1204379168      -28.8864100430       25.0886340087  TIP3      333             0.0000000000
     23319       525  TIP3      H2             -6.0438044586      -29.8787428549       24.7720489733  TIP3      333             0.0000000000
     23320       526  TIP3      OH2            -7.6267878028      -29.5337511207       36.8487794647  TIP3      334             0.0000000000
     23321       526  TIP3      H1             -8.2296075945      -30.2235299322       37.2391471615  TIP3      334             0.0000000000
     23322       526  TIP3      H2             -6.8798130346      -29.5350893212       37.4811942131  TIP3      334             0.0000000000
     23323       527  TIP3      OH2            -5.6839442308      -30.2001650218       28.2877590718  TIP3      335             0.0000000000
     23324       527  TIP3      H1             -5.9751374394      -29.6454890401       27.5439229297  TIP3      335             0.0000000000
     23325       527  TIP3      H2             -5.5896104493      -31.0517367971       27.8232878858  TIP3      335             0.0000000000
     23326       528  TIP3      OH2           -14.5800078701      -30.0849135595       33.4913209173  TIP3      336             0.0000000000
     23327       528  TIP3      H1            -14.5006472600      -29.6550981982       34.3607974900  TIP3      336             0.0000000000
     23328       528  TIP3      H2            -15.0222522385      -30.9162958595       33.7105374324  TIP3      336             0.0000000000
     23329       529  TIP3      OH2           -17.9139745783      -32.9305478505       27.4718716484  TIP3      337             0.0000000000
     23330       529  TIP3      H1            -17.2322625888      -32.9830890852       28.1727391356  TIP3      337             0.0000000000
     23331       529  TIP3      H2            -17.4783214472      -33.3231916227       26.6984274958  TIP3      337             0.0000000000
     23332       530  TIP3      OH2           -16.6065766671      -32.1856794035       22.9181778907  TIP3      338             0.0000000000
     23333       530  TIP3      H1            -16.1854478886      -31.6136736083       22.2735313575  TIP3      338             0.0000000000
     23334       530  TIP3      H2            -17.3591003852      -31.6211054532       23.1800351629  TIP3      338             0.0000000000
     23335       531  TIP3      OH2            -6.4274122358      -28.6389265475       32.8756961645  TIP3      339             0.0000000000
     23336       531  TIP3      H1             -6.1149718329      -29.2882355819       32.2068989878  TIP3      339             0.0000000000
     23337       531  TIP3      H2             -7.0364596211      -29.1365223456       33.4350242365  TIP3      339             0.0000000000
     23338       532  TIP3      OH2            -9.6838278127      -32.6537922958       27.6645899149  TIP3      340             0.0000000000
     23339       532  TIP3      H1            -10.6147925444      -32.6926364168       27.9695766467  TIP3      340             0.0000000000
     23340       532  TIP3      H2             -9.2013776874      -32.8093430423       28.4872610077  TIP3      340             0.0000000000
     23341       533  TIP3      OH2           -14.9001242199      -31.1391808660       26.5655219044  TIP3      341             0.0000000000
     23342       533  TIP3      H1            -15.7669674348      -30.9544690669       26.1486011660  TIP3      341             0.0000000000
     23343       533  TIP3      H2            -14.5997678544      -31.9709569334       26.1507393338  TIP3      341             0.0000000000
     23344       534  TIP3      OH2           -11.2602492684      -31.0331639465       24.1657440477  TIP3      342             0.0000000000
     23345       534  TIP3      H1            -10.3027150749      -30.9479326321       24.3245483283  TIP3      342             0.0000000000
     23346       534  TIP3      H2            -11.4704808439      -30.3788476126       23.4904145014  TIP3      342             0.0000000000
     23347       535  TIP3      OH2            -5.2829471986      -33.3897395401       30.9290769780  TIP3      343             0.0000000000
     23348       535  TIP3      H1             -5.9878968325      -33.3831660146       31.5946663845  TIP3      343             0.0000000000
     23349       535  TIP3      H2             -5.7608512032      -33.6624074354       30.1271752705  TIP3      343             0.0000000000
     23350       536  TIP3      OH2           -12.5551751695      -29.8299174751       21.7310117764  TIP3      344             0.0000000000
     23351       536  TIP3      H1            -13.0561383003      -30.2667418057       21.0511968631  TIP3      344             0.0000000000
     23352       536  TIP3      H2            -11.6812167722      -29.6557173152       21.3341241489  TIP3      344             0.0000000000
     23353       537  TIP3      OH2            -2.0791248652      -17.7918333734       37.2775360090  TIP3      345             0.0000000000
     23354       537  TIP3      H1             -1.8102941681      -17.3898621757       36.4266947130  TIP3      345             0.0000000000
     23355       537  TIP3      H2             -1.3625333874      -17.4442786691       37.8419649877  TIP3      345             0.0000000000
     23356       538  TIP3      OH2           -14.4044245893      -25.2493295901       36.8119345864  TIP3      346             0.0000000000
     23357       538  TIP3      H1            -13.7039620240      -25.0675250502       37.4590042598  TIP3      346             0.0000000000
     23358       538  TIP3      H2            -15.1896622769      -25.2444219144       37.4060930159  TIP3      346             0.0000000000
     23359       539  TIP3      OH2            -8.3978887363      -29.9028911803       29.5587189216  TIP3      347             0.0000000000
     23360       539  TIP3      H1             -7.8155995858      -30.4686910754       29.0339655888  TIP3      347             0.0000000000
     23361       539  TIP3      H2             -8.5727245711      -30.4476720840       30.3339837103  TIP3      347             0.0000000000
     23362       540  TIP3      OH2           -13.4134595084      -33.7072555650       25.9839267432  TIP3      348             0.0000000000
     23363       540  TIP3      H1            -13.7362932871      -34.6261944825       26.0489350035  TIP3      348             0.0000000000
     23364       540  TIP3      H2            -12.6106461285      -33.8111766839       25.4560175264  TIP3      348             0.0000000000
     23365       541  TIP3      OH2            -9.7831561540      -31.5891858956       31.9828198645  TIP3      349             0.0000000000
     23366       541  TIP3      H1            -10.6066030660      -31.0615930298       32.0480456270  TIP3      349             0.0000000000
     23367       541  TIP3      H2             -9.2351000547      -31.2082288769       32.6964021772  TIP3      349             0.0000000000
     23368       542  TIP3      OH2            -9.1829697748      -25.4039962258       23.6868639244  TIP3      350             0.0000000000
     23369       542  TIP3      H1            -10.0068033347      -25.7990151724       23.3981399357  TIP3      350             0.0000000000
     23370       542  TIP3      H2             -9.3888363085      -25.1899424599       24.6208878454  TIP3      350             0.0000000000
     23371       543  TIP3      OH2            -1.9817254346      -26.1438485530       32.4901136193  TIP3      351             0.0000000000
     23372       543  TIP3      H1             -1.4177921373      -25.6484329056       31.8653278042  TIP3      351             0.0000000000
     23373       543  TIP3      H2             -2.8428409662      -26.0951644545       32.0268021536  TIP3      351             0.0000000000
     23374       544  TIP3      OH2            -5.3479854487      -32.4905854527       21.8461787141  TIP3      352             0.0000000000
     23375       544  TIP3      H1             -6.2938897522      -32.3329250766       21.6811076014  TIP3      352             0.0000000000
     23376       544  TIP3      H2             -5.0228702640      -31.6455078897       22.2045779744  TIP3      352             0.0000000000
     23377       545  TIP3      OH2            -7.6324685878      -25.0775720959       34.9525080225  TIP3      353             0.0000000000
     23378       545  TIP3      H1             -8.0663729482      -25.5011422260       35.7028782286  TIP3      353             0.0000000000
     23379       545  TIP3      H2             -7.9624933084      -24.1730842288       35.0161370622  TIP3      353             0.0000000000
     23380       546  TIP3      OH2            -4.6036379296      -30.6218717438       23.5390303039  TIP3      354             0.0000000000
     23381       546  TIP3      H1             -3.7042678741      -30.7412383988       23.8962929374  TIP3      354             0.0000000000
     23382       546  TIP3      H2             -4.5545758548      -29.7929906178       23.0255329514  TIP3      354             0.0000000000
     23383       547  TIP3      OH2           -14.0664333859      -25.9498751568       29.4824155168  TIP3      355             0.0000000000
     23384       547  TIP3      H1            -13.3939455355      -26.0315883370       28.7809063966  TIP3      355             0.0000000000
     23385       547  TIP3      H2            -14.0110069938      -26.8069607877       29.9385404392  TIP3      355             0.0000000000
     23386       548  TIP3      OH2           -17.0864264112      -27.5429404424       34.7529722001  TIP3      356             0.0000000000
     23387       548  TIP3      H1            -16.9118897260      -27.9871108273       35.6063372816  TIP3      356             0.0000000000
     23388       548  TIP3      H2            -17.6975492891      -28.1673020177       34.3233424143  TIP3      356             0.0000000000
     23389       549  TIP3      OH2           -10.0721731780      -28.0037483471       36.9183597164  TIP3      357             0.0000000000
     23390       549  TIP3      H1            -10.4113843280      -28.2886863493       36.0570851187  TIP3      357             0.0000000000
     23391       549  TIP3      H2             -9.1450536433      -28.2859753413       36.9120756590  TIP3      357             0.0000000000
     23392       550  TIP3      OH2            -5.3538625604      -22.5827755979       34.9347420875  TIP3      358             0.0000000000
     23393       550  TIP3      H1             -6.2610039265      -22.5098923434       34.5680582805  TIP3      358             0.0000000000
     23394       550  TIP3      H2             -5.6415419501      -22.4307025349       35.8427435126  TIP3      358             0.0000000000
     23395       551  TIP3      OH2             0.2426325892      -30.4662037038       23.2836484265  TIP3      359             0.0000000000
     23396       551  TIP3      H1             -0.2713661225      -30.7978810833       22.5532102625  TIP3      359             0.0000000000
     23397       551  TIP3      H2              0.4103499484      -29.5365571611       23.0130170873  TIP3      359             0.0000000000
     23398       552  TIP3      OH2             0.2557985694      -24.6274987681       36.0641598307  TIP3      360             0.0000000000
     23399       552  TIP3      H1             -0.6150531308      -24.4133584220       35.6657133234  TIP3      360             0.0000000000
     23400       552  TIP3      H2              0.8382434425      -24.6696888342       35.2689099675  TIP3      360             0.0000000000
     23401       553  TIP3      OH2            -1.2653278901      -21.7125542596       23.7349304893  TIP3      361             0.0000000000
     23402       553  TIP3      H1             -1.8250314842      -22.4587727889       23.9677613465  TIP3      361             0.0000000000
     23403       553  TIP3      H2             -1.1807183122      -21.7769817721       22.7671086361  TIP3      361             0.0000000000
     23404       554  TIP3      OH2            -4.2106484955      -26.8164743603       30.7771324545  TIP3      362             0.0000000000
     23405       554  TIP3      H1             -5.1525063745      -27.0211894417       30.6473858629  TIP3      362             0.0000000000
     23406       554  TIP3      H2             -3.7896913624      -27.5765101074       30.3295591155  TIP3      362             0.0000000000
     23407       555  TIP3      OH2           -11.7170461990      -22.5025401336       26.8674092833  TIP3      363             0.0000000000
     23408       555  TIP3      H1            -11.2107580217      -21.7003466339       26.6362957374  TIP3      363             0.0000000000
     23409       555  TIP3      H2            -12.5845810596      -22.2517051284       26.5325718854  TIP3      363             0.0000000000
     23410       556  TIP3      OH2           -10.2674040810      -24.8137842690       26.3761133244  TIP3      364             0.0000000000
     23411       556  TIP3      H1            -10.5952359602      -23.9005530282       26.4747973522  TIP3      364             0.0000000000
     23412       556  TIP3      H2            -10.9892494317      -25.3082777011       26.8128176478  TIP3      364             0.0000000000
     23413       557  TIP3      OH2            -9.8329133956      -20.6447434721       32.8037995915  TIP3      365             0.0000000000
     23414       557  TIP3      H1             -9.3754949928      -19.8417939291       32.5095826070  TIP3      365             0.0000000000
     23415       557  TIP3      H2             -9.2136335979      -20.9837412999       33.4724786098  TIP3      365             0.0000000000
     23416       558  TIP3      OH2           -11.6004586805      -19.8833177069       26.0358266385  TIP3      366             0.0000000000
     23417       558  TIP3      H1            -12.5623911279      -19.7075987172       26.0539135207  TIP3      366             0.0000000000
     23418       558  TIP3      H2            -11.2383318360      -18.9989310272       26.2168520580  TIP3      366             0.0000000000
     23419       559  TIP3      OH2            -6.2718045261      -24.6170689529       32.4521039811  TIP3      367             0.0000000000
     23420       559  TIP3      H1             -6.6512996877      -24.8725041834       33.3181254728  TIP3      367             0.0000000000
     23421       559  TIP3      H2             -5.6891535661      -25.3650686786       32.2297901481  TIP3      367             0.0000000000
     23422       560  TIP3      OH2            -3.5154762190      -20.1126801062       34.8972208282  TIP3      368             0.0000000000
     23423       560  TIP3      H1             -4.2059289139      -20.5172326478       34.3292333478  TIP3      368             0.0000000000
     23424       560  TIP3      H2             -3.2953684943      -19.3693763741       34.2800308807  TIP3      368             0.0000000000
     23425       561  TIP3      OH2           -15.4201085300      -32.8864520405       34.2803598710  TIP3      369             0.0000000000
     23426       561  TIP3      H1            -16.3059321980      -32.4748825438       34.2680902364  TIP3      369             0.0000000000
     23427       561  TIP3      H2            -15.5900433719      -33.6921467174       34.7857072236  TIP3      369             0.0000000000
     23428       562  TIP3      OH2            -3.1981846776      -24.9842039528       23.7520213045  TIP3      370             0.0000000000
     23429       562  TIP3      H1             -3.4297618355      -25.7614730687       24.2928776875  TIP3      370             0.0000000000
     23430       562  TIP3      H2             -2.2486657010      -24.8934868946       23.9162646640  TIP3      370             0.0000000000
     23431       563  TIP3      OH2           -15.8204526044      -21.0324038195       32.7255693896  TIP3      371             0.0000000000
     23432       563  TIP3      H1            -15.5140800498      -21.9518551022       32.7308075986  TIP3      371             0.0000000000
     23433       563  TIP3      H2            -15.5557714888      -20.7378603307       33.6035468920  TIP3      371             0.0000000000
     23434       564  TIP3      OH2            -6.7409392475      -33.0085237357       33.3878759697  TIP3      372             0.0000000000
     23435       564  TIP3      H1             -5.9017073620      -33.0429890591       33.8641294513  TIP3      372             0.0000000000
     23436       564  TIP3      H2             -7.0500068350      -33.9428997792       33.4214368611  TIP3      372             0.0000000000
     23437       565  TIP3      OH2            -5.8971283745      -33.5129465008       24.3278224881  TIP3      373             0.0000000000
     23438       565  TIP3      H1             -5.7375160241      -32.9705171778       23.5312201302  TIP3      373             0.0000000000
     23439       565  TIP3      H2             -5.4100498570      -33.0130664233       25.0008443113  TIP3      373             0.0000000000
     23440       566  TIP3      OH2            -8.7402325779      -31.7505749890       25.1516519420  TIP3      374             0.0000000000
     23441       566  TIP3      H1             -7.9627544304      -31.1598821706       25.1779915708  TIP3      374             0.0000000000
     23442       566  TIP3      H2             -8.9996201834      -31.8547539393       26.0923980677  TIP3      374             0.0000000000
     23443       567  TIP3      OH2            -8.2719152288      -30.6733807505       34.2149552786  TIP3      375             0.0000000000
     23444       567  TIP3      H1             -8.3654117252      -30.1718440547       35.0578484126  TIP3      375             0.0000000000
     23445       567  TIP3      H2             -7.7872555627      -31.5172925804       34.3117714371  TIP3      375             0.0000000000
     23446       568  TIP3      OH2            -7.8569513340      -34.6794959432       26.1093630451  TIP3      376             0.0000000000
     23447       568  TIP3      H1             -8.2032264030      -33.9904005557       26.6997744445  TIP3      376             0.0000000000
     23448       568  TIP3      H2             -7.2161434067      -34.1409434762       25.5888484289  TIP3      376             0.0000000000
     23449       569  TIP3      OH2            -2.0177277929      -32.8188258485       35.2093230509  TIP3      377             0.0000000000
     23450       569  TIP3      H1             -2.9332477005      -32.5201939623       35.0528634421  TIP3      377             0.0000000000
     23451       569  TIP3      H2             -1.6794289779      -32.8713618184       34.2916032691  TIP3      377             0.0000000000
     23452       570  TIP3      OH2            -3.3791719418      -29.0344141758       29.1999316881  TIP3      378             0.0000000000
     23453       570  TIP3      H1             -4.2056110891      -29.4833865031       28.9336807995  TIP3      378             0.0000000000
     23454       570  TIP3      H2             -2.8953179800      -29.7180360472       29.7188275344  TIP3      378             0.0000000000
     23455       571  TIP3      OH2            -2.3167407728      -19.7673561297       30.8747979299  TIP3      379             0.0000000000
     23456       571  TIP3      H1             -2.4013872160      -19.0908453994       30.1781188886  TIP3      379             0.0000000000
     23457       571  TIP3      H2             -1.3527173240      -19.7219167228       31.0538717282  TIP3      379             0.0000000000
     23458       572  TIP3      OH2           -15.0424427031      -35.5119043852       29.7243777704  TIP3      380             0.0000000000
     23459       572  TIP3      H1            -14.9996423982      -35.6001501665       28.7472457863  TIP3      380             0.0000000000
     23460       572  TIP3      H2            -15.1412184039      -36.4495818711       29.9307226057  TIP3      380             0.0000000000
     23461       573  TIP3      OH2           -15.8614097505      -21.6813836802       25.8510166340  TIP3      381             0.0000000000
     23462       573  TIP3      H1            -16.7358403850      -21.2755975458       25.8340445860  TIP3      381             0.0000000000
     23463       573  TIP3      H2            -15.3807801400      -21.2923041792       25.1025738020  TIP3      381             0.0000000000
     23464       574  TIP3      OH2           -16.6810316129      -19.0689220964       37.1129409322  TIP3      382             0.0000000000
     23465       574  TIP3      H1            -16.0722019333      -19.2715050562       37.8561992865  TIP3      382             0.0000000000
     23466       574  TIP3      H2            -17.0672175693      -19.9461952093       36.9269088992  TIP3      382             0.0000000000
     23467       575  TIP3      OH2           -11.9701837367      -20.1949162420       38.7252941839  TIP3      383             0.0000000000
     23468       575  TIP3      H1            -11.1853318107      -20.6643003483       39.0431820991  TIP3      383             0.0000000000
     23469       575  TIP3      H2            -11.9998739734      -20.4523033678       37.7815497793  TIP3      383             0.0000000000
     23470       576  TIP3      OH2            -5.6586968264      -21.7895053276       37.5809766092  TIP3      384             0.0000000000
     23471       576  TIP3      H1             -5.9483682935      -22.7062355887       37.8314606312  TIP3      384             0.0000000000
     23472       576  TIP3      H2             -4.9309176219      -21.6454302645       38.2206961062  TIP3      384             0.0000000000
     23473       577  TIP3      OH2           -16.7624259443      -25.2790307354       38.0680198705  TIP3      385             0.0000000000
     23474       577  TIP3      H1            -16.5762726654      -26.2108162280       37.8238508165  TIP3      385             0.0000000000
     23475       577  TIP3      H2            -17.5115213121      -25.0666673975       37.4940612627  TIP3      385             0.0000000000
     23476       578  TIP3      OH2           -10.0130199460      -25.3145812282       37.4603192621  TIP3      386             0.0000000000
     23477       578  TIP3      H1            -10.3762761333      -24.9991386634       36.6120882178  TIP3      386             0.0000000000
     23478       578  TIP3      H2             -9.9766711438      -26.2932110971       37.3639122080  TIP3      386             0.0000000000
     23479       579  TIP3      OH2            -4.3663589326      -25.4617716110       34.9274677501  TIP3      387             0.0000000000
     23480       579  TIP3      H1             -3.5597637154      -24.9194357369       34.8009617151  TIP3      387             0.0000000000
     23481       579  TIP3      H2             -5.0593633688      -24.7930892069       34.9046985650  TIP3      387             0.0000000000
     23482       580  TIP3      OH2           -15.8778765969      -28.0843987419       37.4337220235  TIP3      388             0.0000000000
     23483       580  TIP3      H1            -15.4114059744      -28.9332919249       37.4154842661  TIP3      388             0.0000000000
     23484       580  TIP3      H2            -16.0224131794      -28.0431976131       38.4060736077  TIP3      388             0.0000000000
     23485       581  TIP3      OH2           -11.9042057606      -29.1430831271       34.8559508449  TIP3      389             0.0000000000
     23486       581  TIP3      H1            -12.5255436149      -28.4388644693       35.1185949878  TIP3      389             0.0000000000
     23487       581  TIP3      H2            -11.5637351357      -28.7692959178       34.0257052950  TIP3      389             0.0000000000
     23488       582  TIP3      OH2           -10.1413276148      -28.7496737222       20.7468005698  TIP3      390             0.0000000000
     23489       582  TIP3      H1            -10.2798646723      -28.8528859836       19.8008474207  TIP3      390             0.0000000000
     23490       582  TIP3      H2             -9.1764236258      -28.6153355338       20.8089246110  TIP3      390             0.0000000000
     23491       583  TIP3      OH2            -6.8488140704      -26.5904620412       38.2254214291  TIP3      391             0.0000000000
     23492       583  TIP3      H1             -5.8951068392      -26.5895196365       38.0848341467  TIP3      391             0.0000000000
     23493       583  TIP3      H2             -7.0231910540      -27.3468395686       38.8048000881  TIP3      391             0.0000000000
     23494       584  TIP3      OH2            -0.7926047307      -26.4223531287       20.2001273934  TIP3      392             0.0000000000
     23495       584  TIP3      H1             -1.0590880497      -26.7423957667       19.3447427342  TIP3      392             0.0000000000
     23496       584  TIP3      H2             -0.6708999101      -25.4620932770       20.0422879182  TIP3      392             0.0000000000
     23497       585  TIP3      OH2           -11.4820985572      -31.7727191967       35.9043618218  TIP3      393             0.0000000000
     23498       585  TIP3      H1            -11.4101835651      -32.4453616890       35.2175181715  TIP3      393             0.0000000000
     23499       585  TIP3      H2            -11.6386661774      -30.9542771309       35.3895465731  TIP3      393             0.0000000000
     23500       586  TIP3      OH2           -11.1146423078      -33.3656042415       33.4381398202  TIP3      394             0.0000000000
     23501       586  TIP3      H1            -10.6133023457      -32.8858925424       32.7340240713  TIP3      394             0.0000000000
     23502       586  TIP3      H2            -12.0113701162      -33.4511034934       33.0323172648  TIP3      394             0.0000000000
     23503       587  TIP3      OH2            -9.5373217966      -27.8701913738       33.7025057186  TIP3      395             0.0000000000
     23504       587  TIP3      H1             -8.8326146182      -28.0262631392       33.0743510276  TIP3      395             0.0000000000
     23505       587  TIP3      H2             -9.9645388040      -27.0632458921       33.3596712853  TIP3      395             0.0000000000
     23506       588  TIP3      OH2            -5.1836109161      -30.1698967709       38.5437555214  TIP3      396             0.0000000000
     23507       588  TIP3      H1             -4.9499258840      -31.1063851644       38.6467770598  TIP3      396             0.0000000000
     23508       588  TIP3      H2             -4.3281740402      -29.7292583005       38.7185693839  TIP3      396             0.0000000000
     23509       589  TIP3      OH2            -3.8392352202      -27.3400255231       36.8439724776  TIP3      397             0.0000000000
     23510       589  TIP3      H1             -4.0891576594      -26.6241678657       36.2199547795  TIP3      397             0.0000000000
     23511       589  TIP3      H2             -2.8763540314      -27.3814191738       36.6444705930  TIP3      397             0.0000000000
     23512       590  TIP3      OH2           -13.0740767709      -30.3956019907       37.6767924894  TIP3      398             0.0000000000
     23513       590  TIP3      H1            -13.8108282314      -31.0404942063       37.7318808445  TIP3      398             0.0000000000
     23514       590  TIP3      H2            -12.4169204054      -30.8998160766       37.1719417221  TIP3      398             0.0000000000
     23515       591  TIP3      OH2           -10.5279215444      -35.7897893673       34.0480515197  TIP3      399             0.0000000000
     23516       591  TIP3      H1            -10.4898417559      -34.8311523417       33.7944770302  TIP3      399             0.0000000000
     23517       591  TIP3      H2            -11.0141590628      -36.1743987503       33.3117018699  TIP3      399             0.0000000000
     23518       592  TIP3      OH2            -9.0627173591      -31.6194602461       37.4498570810  TIP3      400             0.0000000000
     23519       592  TIP3      H1             -9.3736572943      -31.9020111915       38.3377923276  TIP3      400             0.0000000000
     23520       592  TIP3      H2             -9.8807176568      -31.8198747241       36.9463471666  TIP3      400             0.0000000000
     23521       593  TIP3      OH2            -6.3810241222      -32.4129855939       36.6016439744  TIP3      401             0.0000000000
     23522       593  TIP3      H1             -7.3455568059      -32.5060150380       36.7422391833  TIP3      401             0.0000000000
     23523       593  TIP3      H2             -6.0629890441      -33.0927014557       37.2507914545  TIP3      401             0.0000000000
     23524       594  TIP3      OH2            -4.7892933439      -33.7524154859       38.4647480235  TIP3      402             0.0000000000
     23525       594  TIP3      H1             -4.7872456900      -34.7409287165       38.4649385551  TIP3      402             0.0000000000
     23526       594  TIP3      H2             -5.0328437899      -33.5547950615       39.3967784877  TIP3      402             0.0000000000
     23527       595  TIP3      OH2           -15.1733008023      -32.6841645048       37.3292943949  TIP3      403             0.0000000000
     23528       595  TIP3      H1            -14.6441877115      -33.3784536497       36.9422586181  TIP3      403             0.0000000000
     23529       595  TIP3      H2            -15.0300174559      -32.8246103494       38.3028524554  TIP3      403             0.0000000000
     23530       596  TIP3      OH2           -10.2250137609       36.7586452261       36.4814114896  TIP3      404             0.0000000000
     23531       596  TIP3      H1             -9.4476916628       36.2009823684       36.6264220475  TIP3      404             0.0000000000
     23532       596  TIP3      H2            -10.1479387855       37.1136551690       35.5705272646  TIP3      404             0.0000000000
     23533       597  TIP3      OH2            -9.7557891015      -34.9146112515       38.5915672200  TIP3      405             0.0000000000
     23534       597  TIP3      H1             -9.9260528169      -35.4506355258       37.7991499707  TIP3      405             0.0000000000
     23535       597  TIP3      H2            -10.3469593145      -34.1436025026       38.5497855810  TIP3      405             0.0000000000
     23536       598  TIP3      OH2           -10.2209279477      -17.9934814946       21.7930765647  TIP3      406             0.0000000000
     23537       598  TIP3      H1             -9.2715853445      -17.8873820069       21.9132454184  TIP3      406             0.0000000000
     23538       598  TIP3      H2            -10.4956895861      -17.3530438909       21.1400670069  TIP3      406             0.0000000000
     23539       599  TIP3      OH2           -17.9925350690      -18.0537729059       26.2585412999  TIP3      407             0.0000000000
     23540       599  TIP3      H1            -18.6794043281      -18.5965758429       25.8395461653  TIP3      407             0.0000000000
     23541       599  TIP3      H2            -17.6577808634      -18.6834414583       26.9402947852  TIP3      407             0.0000000000
     23542       600  TIP3      OH2           -17.1334708006      -19.9231715014       28.1197257718  TIP3      408             0.0000000000
     23543       600  TIP3      H1            -17.4917824453      -20.7928334909       28.3597312026  TIP3      408             0.0000000000
     23544       600  TIP3      H2            -16.9098078439      -19.5844359271       29.0066392629  TIP3      408             0.0000000000
     23545       601  TIP3      OH2             0.4026875226      -19.1323960236       31.0768650221  TIP3      409             0.0000000000
     23546       601  TIP3      H1              0.4353935894      -18.9698768824       32.0329691806  TIP3      409             0.0000000000
     23547       601  TIP3      H2              1.1065084755      -18.5495052701       30.7703340379  TIP3      409             0.0000000000
     23548       602  TIP3      OH2            -0.0734031899      -19.5435691743       34.0541757982  TIP3      410             0.0000000000
     23549       602  TIP3      H1             -0.4752688838      -20.3198190835       33.6165235625  TIP3      410             0.0000000000
     23550       602  TIP3      H2              0.4842819775      -19.9823215539       34.7186028206  TIP3      410             0.0000000000
     23551       603  TIP3      OH2            -1.6077990087      -23.7884866642       38.6383300244  TIP3      411             0.0000000000
     23552       603  TIP3      H1             -2.4584449349      -23.8605847447       39.1076172632  TIP3      411             0.0000000000
     23553       603  TIP3      H2             -1.1914027160      -23.0330841394       39.1150312306  TIP3      411             0.0000000000
     23554       604  TIP3      OH2            -0.2670799632      -25.5152098908       24.1200584760  TIP3      412             0.0000000000
     23555       604  TIP3      H1              0.5972096257      -25.1006298048       24.2941015164  TIP3      412             0.0000000000
     23556       604  TIP3      H2             -0.2632023643      -26.2127556709       24.8121195450  TIP3      412             0.0000000000
     23557       605  TIP3      OH2             0.0891385142      -27.3935608374       26.0175667075  TIP3      413             0.0000000000
     23558       605  TIP3      H1             -0.6495366480      -27.9199492204       26.3936779535  TIP3      413             0.0000000000
     23559       605  TIP3      H2              0.6932868895      -27.2856072331       26.7730689565  TIP3      413             0.0000000000
     23560       606  TIP3      OH2            -0.1394839986      -24.7128491280       30.9972140920  TIP3      414             0.0000000000
     23561       606  TIP3      H1              0.6644940879      -25.0926877686       30.6094301760  TIP3      414             0.0000000000
     23562       606  TIP3      H2             -0.0026348565      -23.7590101201       30.8181291201  TIP3      414             0.0000000000
     23563       607  TIP3      OH2            -1.5893408831      -21.8189313715       33.2688512169  TIP3      415             0.0000000000
     23564       607  TIP3      H1             -2.2937985681      -21.4387716079       33.7993181515  TIP3      415             0.0000000000
     23565       607  TIP3      H2             -2.1032508431      -22.2045663087       32.5195855054  TIP3      415             0.0000000000
     23566       608  TIP3      OH2             0.4097900763      -27.6199915192       22.4113107934  TIP3      416             0.0000000000
     23567       608  TIP3      H1             -0.1427777523      -27.2401949949       21.6947748152  TIP3      416             0.0000000000
     23568       608  TIP3      H2              0.3454596850      -26.8916499560       23.0607201242  TIP3      416             0.0000000000
     23569       609  TIP3      OH2            -2.0935980385      -28.9382891292       26.5707893049  TIP3      417             0.0000000000
     23570       609  TIP3      H1             -2.2253715983      -29.8963876830       26.5488262651  TIP3      417             0.0000000000
     23571       609  TIP3      H2             -2.4107383368      -28.7195109401       27.4633114460  TIP3      417             0.0000000000
     23572       610  TIP3      OH2           -17.0745641000      -26.8504428464       30.6403955021  TIP3      418             0.0000000000
     23573       610  TIP3      H1            -16.9002453300      -26.9316788074       29.6780378119  TIP3      418             0.0000000000
     23574       610  TIP3      H2            -16.1811039960      -27.0301076252       30.9924709357  TIP3      418             0.0000000000
     23575       611  TIP3      OH2            -1.2355778540      -26.9639433823       36.2842847715  TIP3      419             0.0000000000
     23576       611  TIP3      H1             -0.6184262867      -27.7208779579       36.3916223828  TIP3      419             0.0000000000
     23577       611  TIP3      H2             -0.6115778477      -26.2093502480       36.2613529740  TIP3      419             0.0000000000
     23578       612  TIP3      OH2             0.2667782512      -29.0758354252       36.9012773764  TIP3      420             0.0000000000
     23579       612  TIP3      H1             -0.6030116429      -29.4945308654       36.7607555802  TIP3      420             0.0000000000
     23580       612  TIP3      H2              0.8583391062      -29.8494488837       36.8570071000  TIP3      420             0.0000000000
     23581       613  TIP3      OH2            -2.4124345309      -31.3413380095       25.0058021490  TIP3      421             0.0000000000
     23582       613  TIP3      H1             -2.1149484709      -32.2646675857       25.1493941861  TIP3      421             0.0000000000
     23583       613  TIP3      H2             -1.5922024459      -30.9507421274       24.6825757938  TIP3      421             0.0000000000
     23584       614  TIP3      OH2            -1.7738986939      -30.7865681632       30.4698014619  TIP3      422             0.0000000000
     23585       614  TIP3      H1             -0.8103472786      -30.5752604046       30.4587040896  TIP3      422             0.0000000000
     23586       614  TIP3      H2             -1.9549800415      -30.6816206499       31.4148996852  TIP3      422             0.0000000000
     23587       615  TIP3      OH2            -1.7346827376      -30.0786417538       33.2600523074  TIP3      423             0.0000000000
     23588       615  TIP3      H1             -2.5968366272      -29.7800999935       33.5801573633  TIP3      423             0.0000000000
     23589       615  TIP3      H2             -1.2663476598      -29.2350057050       33.0287199313  TIP3      423             0.0000000000
     23590       616  TIP3      OH2           -17.4907014070      -31.5403664108       36.7378484989  TIP3      424             0.0000000000
     23591       616  TIP3      H1            -16.5500893801      -31.7378091070       36.9818956507  TIP3      424             0.0000000000
     23592       616  TIP3      H2            -17.8995611237      -32.3606026932       37.0811644682  TIP3      424             0.0000000000
     23593       617  TIP3      OH2             0.7042425186      -36.0516533892       38.6084288233  TIP3      425             0.0000000000
     23594       617  TIP3      H1              0.9164850145      -36.7148581685       37.9475740507  TIP3      425             0.0000000000
     23595       617  TIP3      H2              0.6293606784      -35.2260903341       38.0878204643  TIP3      425             0.0000000000
     23596       618  TIP3      OH2            -1.7315465484      -34.1022332361       25.0510526531  TIP3      426             0.0000000000
     23597       618  TIP3      H1             -1.5575950438      -34.5091969857       25.9253045143  TIP3      426             0.0000000000
     23598       618  TIP3      H2             -2.3765005230      -34.7303143743       24.6576480244  TIP3      426             0.0000000000
     23599       619  TIP3      OH2           -16.2903368077      -33.2299671467       29.6276729811  TIP3      427             0.0000000000
     23600       619  TIP3      H1            -15.8311485699      -34.0566117513       29.8982279490  TIP3      427             0.0000000000
     23601       619  TIP3      H2            -15.7091472290      -32.5743799843       30.0281535247  TIP3      427             0.0000000000
     23602       620  TIP3      OH2           -17.9766416928      -30.2567169621       30.6779911219  TIP3      428             0.0000000000
     23603       620  TIP3      H1            -17.4122380094      -30.5120511645       29.9192486946  TIP3      428             0.0000000000
     23604       620  TIP3      H2            -17.5055384913      -29.4543633548       30.9459432879  TIP3      428             0.0000000000
     23605       621  TIP3      OH2             0.1000198794      -33.9535998488       36.9153850721  TIP3      429             0.0000000000
     23606       621  TIP3      H1             -0.8352828614      -33.6771771210       36.9401611223  TIP3      429             0.0000000000
     23607       621  TIP3      H2              0.0962007616      -34.5220543347       36.1286028842  TIP3      429             0.0000000000
     23608       622  TIP3      OH2             0.1310341652      -33.9716476139       21.7039428613  TIP3      430             0.0000000000
     23609       622  TIP3      H1              0.4177163641      -34.6900019170       21.1390209663  TIP3      430             0.0000000000
     23610       622  TIP3      H2              0.8003606855      -33.2878238097       21.6588329517  TIP3      430             0.0000000000
     23611       623  TIP3      OH2           -17.5572393378      -34.0532956286       24.7512075966  TIP3      431             0.0000000000
     23612       623  TIP3      H1            -18.5121073611      -33.8671195691       24.6649180008  TIP3      431             0.0000000000
     23613       623  TIP3      H2            -17.2039879294      -33.4967513065       24.0412912286  TIP3      431             0.0000000000
     23614       624  TIP3      OH2            -2.8684502498      -19.0562597921       26.6669516045  TIP3      432             0.0000000000
     23615       624  TIP3      H1             -2.1884445448      -19.3464830912       26.0336006151  TIP3      432             0.0000000000
     23616       624  TIP3      H2             -2.3583267338      -18.5495695168       27.3097036615  TIP3      432             0.0000000000
     23617       625  TIP3      OH2           -17.6623163745      -35.3146433464       33.0495328328  TIP3      433             0.0000000000
     23618       625  TIP3      H1            -18.3344057184      -35.4946056741       33.7230629412  TIP3      433             0.0000000000
     23619       625  TIP3      H2            -18.1290770392      -34.6756593483       32.4739076269  TIP3      433             0.0000000000
     23620       626  TIP3      OH2           -15.4229774762      -22.1034613615       37.2097985108  TIP3      434             0.0000000000
     23621       626  TIP3      H1            -16.2798406886      -21.9378377602       36.7863672998  TIP3      434             0.0000000000
     23622       626  TIP3      H2            -15.6835572877      -22.2086273366       38.1353202153  TIP3      434             0.0000000000
     23623       627  TIP3      OH2           -12.5268723890      -21.1374153036       33.4874020923  TIP3      435             0.0000000000
     23624       627  TIP3      H1            -12.8633048656      -20.2745216939       33.2084038220  TIP3      435             0.0000000000
     23625       627  TIP3      H2            -11.5996672036      -21.0515168401       33.1837700783  TIP3      435             0.0000000000
     23626       628  TIP3      OH2            -8.1950155968      -19.7382610454       36.3827937171  TIP3      436             0.0000000000
     23627       628  TIP3      H1             -8.0911234047      -20.0540249795       37.3132473122  TIP3      436             0.0000000000
     23628       628  TIP3      H2             -7.3059896091      -19.3871157487       36.1761150450  TIP3      436             0.0000000000
     23629       629  TIP3      OH2            -5.9209341142      -18.4736407270       35.7247078787  TIP3      437             0.0000000000
     23630       629  TIP3      H1             -5.1598257900      -18.9833121006       35.4373438632  TIP3      437             0.0000000000
     23631       629  TIP3      H2             -5.5542124970      -17.9864343319       36.4961450640  TIP3      437             0.0000000000
     23632       630  TIP3      OH2            -0.8850318021      -35.8146624644       34.7885622177  TIP3      438             0.0000000000
     23633       630  TIP3      H1             -1.7146684752      -35.4856366189       34.4168544780  TIP3      438             0.0000000000
     23634       630  TIP3      H2             -0.7253584391      -36.6365983358       34.2853783959  TIP3      438             0.0000000000
     23635       631  TIP3      OH2           -15.1028993195      -17.8742205264       33.4798399943  TIP3      439             0.0000000000
     23636       631  TIP3      H1            -15.8746078928      -17.4402115489       33.0754317833  TIP3      439             0.0000000000
     23637       631  TIP3      H2            -15.4081465382      -18.0699889019       34.3761473067  TIP3      439             0.0000000000
     23638       632  TIP3      OH2           -12.6057915175      -18.3287192079       32.5708332192  TIP3      440             0.0000000000
     23639       632  TIP3      H1            -13.5124651052      -18.1983323842       32.9435068020  TIP3      440             0.0000000000
     23640       632  TIP3      H2            -12.6735619312      -17.7701134101       31.7728449298  TIP3      440             0.0000000000
     23641       633  TIP3      OH2            -7.9187209482      -18.4167489179       31.7173956198  TIP3      441             0.0000000000
     23642       633  TIP3      H1             -8.3879971911      -17.8583757658       31.0760043375  TIP3      441             0.0000000000
     23643       633  TIP3      H2             -7.7904227107      -17.7861535972       32.4613835044  TIP3      441             0.0000000000
     23644       634  TIP3      OH2            -5.6447675459      -19.6106091092       32.8029314772  TIP3      442             0.0000000000
     23645       634  TIP3      H1             -6.4805731646      -19.3372600711       32.3788325006  TIP3      442             0.0000000000
     23646       634  TIP3      H2             -5.1517881448      -18.7862016639       32.6473642324  TIP3      442             0.0000000000
     23647       635  TIP3      OH2            -3.0560813559      -18.0517410575       32.9878493217  TIP3      443             0.0000000000
     23648       635  TIP3      H1             -3.1047427894      -17.0879971494       32.7599793593  TIP3      443             0.0000000000
     23649       635  TIP3      H2             -2.8328446390      -18.4053256883       32.1019608970  TIP3      443             0.0000000000
     23650       636  TIP3      OH2           -15.6225246699      -19.2219132491       30.4301148961  TIP3      444             0.0000000000
     23651       636  TIP3      H1            -15.7399368527      -19.7067023335       31.2785299890  TIP3      444             0.0000000000
     23652       636  TIP3      H2            -14.8361514234      -19.6477540023       30.0310449111  TIP3      444             0.0000000000
     23653       637  TIP3      OH2           -13.5755899663      -20.5451143597       29.0904852166  TIP3      445             0.0000000000
     23654       637  TIP3      H1            -13.7297045292      -21.4796742242       29.3216597462  TIP3      445             0.0000000000
     23655       637  TIP3      H2            -12.7168881058      -20.3814171453       29.5284263258  TIP3      445             0.0000000000
     23656       638  TIP3      OH2           -10.9374806860      -20.0594425187       29.9679879626  TIP3      446             0.0000000000
     23657       638  TIP3      H1            -10.8131924619      -20.9781651495       29.6749580978  TIP3      446             0.0000000000
     23658       638  TIP3      H2            -10.9096360427      -20.1416059762       30.9324597823  TIP3      446             0.0000000000
     23659       639  TIP3      OH2            -7.5333180970      -34.3127163167       29.0764946271  TIP3      447             0.0000000000
     23660       639  TIP3      H1             -8.1625611217      -35.0051202023       29.3708649059  TIP3      447             0.0000000000
     23661       639  TIP3      H2             -6.9149397364      -34.8629549687       28.5786333120  TIP3      447             0.0000000000
     23662       640  TIP3      OH2            -2.3874288513      -36.3501047401       29.1561819647  TIP3      448             0.0000000000
     23663       640  TIP3      H1             -1.7679533170      -35.7954990375       28.6301982531  TIP3      448             0.0000000000
     23664       640  TIP3      H2             -3.2560319324      -36.0011217290       28.9322513115  TIP3      448             0.0000000000
     23665       641  TIP3      OH2            -0.7001589155      -35.0892063141       27.4467679264  TIP3      449             0.0000000000
     23666       641  TIP3      H1             -0.0242873991      -35.6860174516       27.0740572510  TIP3      449             0.0000000000
     23667       641  TIP3      H2             -0.1829697360      -34.2576896570       27.5264995734  TIP3      449             0.0000000000
     23668       642  TIP3      OH2           -15.0783323430      -35.7480278987       26.7507068190  TIP3      450             0.0000000000
     23669       642  TIP3      H1            -15.9854413982      -35.9959591703       26.4871079040  TIP3      450             0.0000000000
     23670       642  TIP3      H2            -14.7378003329      -36.6294386018       26.9742437765  TIP3      450             0.0000000000
     23671       643  TIP3      OH2           -16.6111603785      -35.3742233947       22.1751763412  TIP3      451             0.0000000000
     23672       643  TIP3      H1            -15.7028276166      -35.0756274366       22.1492433986  TIP3      451             0.0000000000
     23673       643  TIP3      H2            -16.9092310708      -35.2315438297       23.0885564488  TIP3      451             0.0000000000
     23674       644  TIP3      OH2           -10.3981967876      -35.4304530013       27.0700495218  TIP3      452             0.0000000000
     23675       644  TIP3      H1             -9.4578372552      -35.4558251507       26.8079722524  TIP3      452             0.0000000000
     23676       644  TIP3      H2            -10.4939854110      -36.1015132487       27.7486161375  TIP3      452             0.0000000000
     23677       645  TIP3      OH2            -5.1539950666      -35.5921198236       28.3940024935  TIP3      453             0.0000000000
     23678       645  TIP3      H1             -5.0256215972      -35.5837519763       27.4436828271  TIP3      453             0.0000000000
     23679       645  TIP3      H2             -5.2528104664      -36.5669116936       28.5169308371  TIP3      453             0.0000000000
     23680       646  TIP3      OH2            -3.6892225939      -35.8088585443       24.0660138261  TIP3      454             0.0000000000
     23681       646  TIP3      H1             -4.4213731938      -35.2122239664       23.8517135672  TIP3      454             0.0000000000
     23682       646  TIP3      H2             -4.1241935481      -36.6706576537       24.1852154734  TIP3      454             0.0000000000
     23683       647  TIP3      OH2            -9.5549232673      -33.8667247046       23.5978310278  TIP3      455             0.0000000000
     23684       647  TIP3      H1             -9.2312532438      -34.3982306781       24.3411806050  TIP3      455             0.0000000000
     23685       647  TIP3      H2             -9.4878867498      -32.9775397976       24.0202682293  TIP3      455             0.0000000000
     23686       648  TIP3      OH2            -7.5404124207      -18.7996240596       22.0128912248  TIP3      456             0.0000000000
     23687       648  TIP3      H1             -6.6443050506      -18.4987067741       21.8317296301  TIP3      456             0.0000000000
     23688       648  TIP3      H2             -7.8339285352      -19.2462125625       21.2199840147  TIP3      456             0.0000000000
     23689       649  TIP3      OH2            -0.8539591080      -19.2338832418       24.6936155619  TIP3      457             0.0000000000
     23690       649  TIP3      H1             -1.1010630053      -20.0402224114       24.1640416428  TIP3      457             0.0000000000
     23691       649  TIP3      H2             -0.9961094873      -18.5365318163       24.0462004224  TIP3      457             0.0000000000
     23692       650  TIP3      OH2           -15.2393702652      -35.3991875191       36.1999679632  TIP3      458             0.0000000000
     23693       650  TIP3      H1            -15.6933008666      -35.9692929225       36.8458905740  TIP3      458             0.0000000000
     23694       650  TIP3      H2            -14.4449653453      -35.2155469147       36.7659986454  TIP3      458             0.0000000000
     23695       651  TIP3      OH2           -13.3966191991      -35.7425537530       37.8415426878  TIP3      459             0.0000000000
     23696       651  TIP3      H1            -12.4406252948      -35.9336665794       37.9076170402  TIP3      459             0.0000000000
     23697       651  TIP3      H2            -13.6221066198      -36.4762571571       38.4474290794  TIP3      459             0.0000000000
     23698       652  TIP3      OH2            -4.8853839571       37.1284571618       38.1296639501  TIP3      460             0.0000000000
     23699       652  TIP3      H1             -4.8491213928       36.4963907411       38.8760129250  TIP3      460             0.0000000000
     23700       652  TIP3      H2             -4.0222744456       36.9004710709       37.7511630574  TIP3      460             0.0000000000
     23701       653  TIP3      OH2            -1.7137245640      -20.5343749647       36.8772065944  TIP3      461             0.0000000000
     23702       653  TIP3      H1             -2.3463753022      -20.5158236480       36.1504228590  TIP3      461             0.0000000000
     23703       653  TIP3      H2             -1.6843035819      -19.5665059349       37.0537689614  TIP3      461             0.0000000000
     23704       654  TIP3      OH2            11.6931456334      -27.3865930754       30.2503790139  TIP3      462             0.0000000000
     23705       654  TIP3      H1             11.6406239757      -28.0127893364       30.9904086155  TIP3      462             0.0000000000
     23706       654  TIP3      H2             11.2489707867      -27.8878973571       29.5462414359  TIP3      462             0.0000000000
     23707       655  TIP3      OH2             4.0152442519      -27.7212813422       31.8328392545  TIP3      463             0.0000000000
     23708       655  TIP3      H1              4.0846479986      -28.3992773009       32.5367124046  TIP3      463             0.0000000000
     23709       655  TIP3      H2              4.7491959563      -27.1366648658       32.0811387376  TIP3      463             0.0000000000
     23710       656  TIP3      OH2            15.3271968889      -24.4472238251       28.5825770075  TIP3      464             0.0000000000
     23711       656  TIP3      H1             14.9486421758      -25.1508757556       29.1123958407  TIP3      464             0.0000000000
     23712       656  TIP3      H2             15.3786845770      -23.7306915296       29.2435061348  TIP3      464             0.0000000000
     23713       657  TIP3      OH2             4.9366589797      -23.2273067238       30.2820918438  TIP3      465             0.0000000000
     23714       657  TIP3      H1              4.6183880201      -24.1203049069       30.0526000777  TIP3      465             0.0000000000
     23715       657  TIP3      H2              5.8776193113      -23.4250427582       30.4472223018  TIP3      465             0.0000000000
     23716       658  TIP3      OH2             1.5562926023      -29.7265578282       25.8468865411  TIP3      466             0.0000000000
     23717       658  TIP3      H1              1.1541239987      -28.8378011471       25.7861558524  TIP3      466             0.0000000000
     23718       658  TIP3      H2              1.0169286491      -30.2610775256       25.2518140439  TIP3      466             0.0000000000
     23719       659  TIP3      OH2             2.3294707452      -27.4614527846       27.9983586779  TIP3      467             0.0000000000
     23720       659  TIP3      H1              2.5648281862      -28.3075981541       28.4336968162  TIP3      467             0.0000000000
     23721       659  TIP3      H2              2.9923855922      -27.3889790083       27.2964480622  TIP3      467             0.0000000000
     23722       660  TIP3      OH2            12.4634506482      -19.2869145804       28.8206783586  TIP3      468             0.0000000000
     23723       660  TIP3      H1             13.1143724328      -19.9739353378       28.5325556775  TIP3      468             0.0000000000
     23724       660  TIP3      H2             12.2499183260      -19.6165339767       29.6929717111  TIP3      468             0.0000000000
     23725       661  TIP3      OH2            10.0420646047      -25.0019554337       30.7337905292  TIP3      469             0.0000000000
     23726       661  TIP3      H1             10.3842092923      -25.6273418201       30.0786035655  TIP3      469             0.0000000000
     23727       661  TIP3      H2             10.8370341732      -24.8355797583       31.2766097287  TIP3      469             0.0000000000
     23728       662  TIP3      OH2            18.6713859488      -33.3484395087       31.5037467826  TIP3      470             0.0000000000
     23729       662  TIP3      H1             18.8118369919      -32.7330631317       32.2617791902  TIP3      470             0.0000000000
     23730       662  TIP3      H2             19.1803648192      -32.8912743575       30.8227926425  TIP3      470             0.0000000000
     23731       663  TIP3      OH2            13.2143024843      -30.4962699098       31.0441598672  TIP3      471             0.0000000000
     23732       663  TIP3      H1             13.3586055333      -31.4664715033       31.0953828604  TIP3      471             0.0000000000
     23733       663  TIP3      H2             13.1015383996      -30.3802043207       30.0993639768  TIP3      471             0.0000000000
     23734       664  TIP3      OH2             6.3131071757      -32.4076824533       28.2942448876  TIP3      472             0.0000000000
     23735       664  TIP3      H1              6.4594364610      -31.5695902057       27.8051183031  TIP3      472             0.0000000000
     23736       664  TIP3      H2              5.9132843812      -32.9769860836       27.5994401279  TIP3      472             0.0000000000
     23737       665  TIP3      OH2             2.9604797863      -29.9964970466       29.0441393373  TIP3      473             0.0000000000
     23738       665  TIP3      H1              3.6084784735      -30.5685461535       29.4934376814  TIP3      473             0.0000000000
     23739       665  TIP3      H2              3.0506832314      -30.3247918394       28.1300776033  TIP3      473             0.0000000000
     23740       666  TIP3      OH2            19.2695833496      -31.7958691150       33.7236047884  TIP3      474             0.0000000000
     23741       666  TIP3      H1             18.4735541375      -31.2197722095       33.6383211646  TIP3      474             0.0000000000
     23742       666  TIP3      H2             19.0991726125      -32.0429135772       34.6509611016  TIP3      474             0.0000000000
     23743       667  TIP3      OH2             5.2405512861      -33.4880056841       32.3502978280  TIP3      475             0.0000000000
     23744       667  TIP3      H1              4.9342761769      -32.9575807713       31.5818278575  TIP3      475             0.0000000000
     23745       667  TIP3      H2              4.5346988943      -33.3005284764       33.0136173520  TIP3      475             0.0000000000
     23746       668  TIP3      OH2             7.7527977283      -25.9072257757       32.5724243318  TIP3      476             0.0000000000
     23747       668  TIP3      H1              7.0405795266      -25.2632647243       32.8116366650  TIP3      476             0.0000000000
     23748       668  TIP3      H2              8.4392020113      -25.2815525561       32.3009375620  TIP3      476             0.0000000000
     23749       669  TIP3      OH2            15.8668052719      -33.0128217942       28.6861706849  TIP3      477             0.0000000000
     23750       669  TIP3      H1             15.6369495331      -33.7640226654       29.2283730534  TIP3      477             0.0000000000
     23751       669  TIP3      H2             16.5369794332      -32.5601397883       29.2158973461  TIP3      477             0.0000000000
     23752       670  TIP3      OH2             4.8070229789      -31.6756788529       30.3628525892  TIP3      478             0.0000000000
     23753       670  TIP3      H1              5.4366813453      -31.0011167816       30.6914131099  TIP3      478             0.0000000000
     23754       670  TIP3      H2              5.3329595959      -32.0841298475       29.6318443330  TIP3      478             0.0000000000
     23755       671  TIP3      OH2             6.1239880917      -23.9452795797       33.1123967071  TIP3      479             0.0000000000
     23756       671  TIP3      H1              6.1601459616      -22.9723757016       33.0603249470  TIP3      479             0.0000000000
     23757       671  TIP3      H2              5.4225085645      -24.0025876146       33.8069313638  TIP3      479             0.0000000000
     23758       672  TIP3      OH2             2.2485392093      -24.2388932187       24.2033027505  TIP3      480             0.0000000000
     23759       672  TIP3      H1              1.9841625649      -23.9457530839       23.3047828882  TIP3      480             0.0000000000
     23760       672  TIP3      H2              2.3049815743      -23.4001732325       24.6927472020  TIP3      480             0.0000000000
     23761       673  TIP3      OH2            15.8734707542      -22.6041478801       30.9461812216  TIP3      481             0.0000000000
     23762       673  TIP3      H1             14.9077585160      -22.4848187225       31.0791806922  TIP3      481             0.0000000000
     23763       673  TIP3      H2             16.1447892064      -21.6885457935       30.7441218416  TIP3      481             0.0000000000
     23764       674  TIP3      OH2            16.2294502645      -34.3300313295       32.3854203142  TIP3      482             0.0000000000
     23765       674  TIP3      H1             15.4889573160      -33.7145772462       32.2785510749  TIP3      482             0.0000000000
     23766       674  TIP3      H2             16.9080289083      -33.9210331707       31.8128156488  TIP3      482             0.0000000000
     23767       675  TIP3      OH2             9.4513976880      -36.0119882290       29.7882833802  TIP3      483             0.0000000000
     23768       675  TIP3      H1              9.3248474256      -36.9639615819       29.7628216551  TIP3      483             0.0000000000
     23769       675  TIP3      H2              8.5389894341      -35.7483124104       29.9969235044  TIP3      483             0.0000000000
     23770       676  TIP3      OH2            14.1671009919      -20.7895338813       27.5787786336  TIP3      484             0.0000000000
     23771       676  TIP3      H1             14.5544262639      -21.5171392232       27.0481008141  TIP3      484             0.0000000000
     23772       676  TIP3      H2             14.5759092204      -20.0195606648       27.1370924433  TIP3      484             0.0000000000
     23773       677  TIP3      OH2            15.3435899025      -22.8729021161       26.0464986972  TIP3      485             0.0000000000
     23774       677  TIP3      H1             15.0930468147      -23.5680644307       25.3940161438  TIP3      485             0.0000000000
     23775       677  TIP3      H2             15.3940708154      -23.3875477300       26.8694264528  TIP3      485             0.0000000000
     23776       678  TIP3      OH2            16.9847243762      -24.2925677633       34.5535068029  TIP3      486             0.0000000000
     23777       678  TIP3      H1             17.1107940446      -24.9488911672       33.8334887548  TIP3      486             0.0000000000
     23778       678  TIP3      H2             17.1727691672      -23.4523640985       34.0995374019  TIP3      486             0.0000000000
     23779       679  TIP3      OH2            18.8587816779      -27.9735426732       32.5944784396  TIP3      487             0.0000000000
     23780       679  TIP3      H1             18.1792061985      -27.2707297318       32.6270375469  TIP3      487             0.0000000000
     23781       679  TIP3      H2             19.3502827001      -27.7420094330       31.7848163254  TIP3      487             0.0000000000
     23782       680  TIP3      OH2            14.8341702557      -29.0057752570       34.3662405692  TIP3      488             0.0000000000
     23783       680  TIP3      H1             14.8382221880      -28.1876647685       34.8811468979  TIP3      488             0.0000000000
     23784       680  TIP3      H2             14.2036680661      -28.7250463413       33.6744064092  TIP3      488             0.0000000000
     23785       681  TIP3      OH2             7.8066989291      -23.1837841492       29.8545088382  TIP3      489             0.0000000000
     23786       681  TIP3      H1              7.8246524251      -23.6692939363       29.0152962517  TIP3      489             0.0000000000
     23787       681  TIP3      H2              8.6152537070      -23.5042766196       30.2967756798  TIP3      489             0.0000000000
     23788       682  TIP3      OH2             6.8484195913      -27.7794997108       30.8162244707  TIP3      490             0.0000000000
     23789       682  TIP3      H1              7.4354927615      -27.6831618343       30.0551474102  TIP3      490             0.0000000000
     23790       682  TIP3      H2              7.2310349780      -27.1192246592       31.4376716554  TIP3      490             0.0000000000
     23791       683  TIP3      OH2            13.2744613031      -22.2299629437       31.5247379996  TIP3      491             0.0000000000
     23792       683  TIP3      H1             12.9710464244      -21.5878530634       32.1756255601  TIP3      491             0.0000000000
     23793       683  TIP3      H2             12.9976342354      -23.0755489239       31.9485201570  TIP3      491             0.0000000000
     23794       684  TIP3      OH2             8.3378582525      -23.2744384345       35.2787477603  TIP3      492             0.0000000000
     23795       684  TIP3      H1              7.7419488332      -22.8222493154       35.9383125789  TIP3      492             0.0000000000
     23796       684  TIP3      H2              7.5072396443      -23.6131983942       34.8612972714  TIP3      492             0.0000000000
     23797       685  TIP3      OH2             4.7377627729      -27.2475871256       34.6686116463  TIP3      493             0.0000000000
     23798       685  TIP3      H1              4.8175679384      -26.5618521423       35.3686840794  TIP3      493             0.0000000000
     23799       685  TIP3      H2              3.8087109199      -27.0911802329       34.4534713075  TIP3      493             0.0000000000
     23800       686  TIP3      OH2            11.4876159886      -21.2796033224       26.3993784156  TIP3      494             0.0000000000
     23801       686  TIP3      H1             11.9417171437      -20.9779252198       27.1927066998  TIP3      494             0.0000000000
     23802       686  TIP3      H2             10.9593422723      -20.5200536594       26.1481139342  TIP3      494             0.0000000000
     23803       687  TIP3      OH2             5.8235603919      -20.5181610483       36.2346946964  TIP3      495             0.0000000000
     23804       687  TIP3      H1              6.0996768560      -21.1409447602       35.5251370502  TIP3      495             0.0000000000
     23805       687  TIP3      H2              5.2772480394      -21.2421413535       36.6141102807  TIP3      495             0.0000000000
     23806       688  TIP3      OH2            17.6032263489      -36.0150817757       22.9258187408  TIP3      496             0.0000000000
     23807       688  TIP3      H1             16.6380020763      -36.1961082701       22.9663001224  TIP3      496             0.0000000000
     23808       688  TIP3      H2             17.6350475986      -35.3732173356       22.2118651796  TIP3      496             0.0000000000
     23809       689  TIP3      OH2             1.4132249358      -25.1154722234       33.6693704796  TIP3      497             0.0000000000
     23810       689  TIP3      H1              1.1277202341      -25.1880758117       32.7528825792  TIP3      497             0.0000000000
     23811       689  TIP3      H2              1.6615184449      -26.0394168979       33.8645902616  TIP3      497             0.0000000000
     23812       690  TIP3      OH2             1.3528546989      -22.3494267392       30.4398346405  TIP3      498             0.0000000000
     23813       690  TIP3      H1              2.3131532504      -22.4645079145       30.4110629703  TIP3      498             0.0000000000
     23814       690  TIP3      H2              1.2673950557      -21.5327437413       30.9459810871  TIP3      498             0.0000000000
     23815       691  TIP3      OH2            19.5714382342      -21.6447185436       36.1002307727  TIP3      499             0.0000000000
     23816       691  TIP3      H1             19.4607849059      -22.6061056563       36.1142870098  TIP3      499             0.0000000000
     23817       691  TIP3      H2             18.7198691828      -21.3957446665       36.5360963677  TIP3      499             0.0000000000
     23818       692  TIP3      OH2            10.6104151227      -22.0778830429       34.9952031186  TIP3      500             0.0000000000
     23819       692  TIP3      H1             10.5834618746      -21.2546312608       35.5285419208  TIP3      500             0.0000000000
     23820       692  TIP3      H2              9.7205401930      -22.4762301660       35.2035062003  TIP3      500             0.0000000000
     23821       693  TIP3      OH2            10.9564051982      -18.3781675515       24.7490324570  TIP3      501             0.0000000000
     23822       693  TIP3      H1             10.9202694891      -18.3964511037       23.7919250313  TIP3      501             0.0000000000
     23823       693  TIP3      H2             11.0061044379      -17.4226289709       24.9612143698  TIP3      501             0.0000000000
     23824       694  TIP3      OH2             4.6037903307      -19.4692851157       26.6330668352  TIP3      502             0.0000000000
     23825       694  TIP3      H1              4.7722348313      -19.9105573421       27.4970191039  TIP3      502             0.0000000000
     23826       694  TIP3      H2              3.7684800957      -19.9037875466       26.3874329582  TIP3      502             0.0000000000
     23827       695  TIP3      OH2            14.0429325477      -19.1426293590       21.7964191144  TIP3      503             0.0000000000
     23828       695  TIP3      H1             14.4535909931      -19.8988564032       21.3178948454  TIP3      503             0.0000000000
     23829       695  TIP3      H2             14.0395324767      -19.4513498378       22.7115035691  TIP3      503             0.0000000000
     23830       696  TIP3      OH2            13.7086780130      -19.1749092001       24.5793154003  TIP3      504             0.0000000000
     23831       696  TIP3      H1             12.7477308042      -19.1453207930       24.7197141748  TIP3      504             0.0000000000
     23832       696  TIP3      H2             13.9537688888      -19.9573324833       25.0907035185  TIP3      504             0.0000000000
     23833       697  TIP3      OH2            16.7229832803      -30.1493828982       36.5886380348  TIP3      505             0.0000000000
     23834       697  TIP3      H1             16.2333204301      -29.7420339621       35.8620707047  TIP3      505             0.0000000000
     23835       697  TIP3      H2             16.7228371208      -31.0812857905       36.2937146479  TIP3      505             0.0000000000
     23836       698  TIP3      OH2             3.5929452545      -23.9079119846       34.3222019787  TIP3      506             0.0000000000
     23837       698  TIP3      H1              3.9983101780      -24.0141843309       35.2209119794  TIP3      506             0.0000000000
     23838       698  TIP3      H2              2.7271901445      -24.3309554261       34.3815434233  TIP3      506             0.0000000000
     23839       699  TIP3      OH2             6.5108994072      -35.1236402182       30.6136034743  TIP3      507             0.0000000000
     23840       699  TIP3      H1              5.6400744534      -35.3210052416       30.2125547843  TIP3      507             0.0000000000
     23841       699  TIP3      H2              6.3230514906      -34.3192383728       31.1017608857  TIP3      507             0.0000000000
     23842       700  TIP3      OH2            11.1586327538      -35.6753385261       33.9007788128  TIP3      508             0.0000000000
     23843       700  TIP3      H1             11.5813345951      -35.9685487770       34.7158847839  TIP3      508             0.0000000000
     23844       700  TIP3      H2             10.2022008823      -35.7166046989       34.0948181560  TIP3      508             0.0000000000
     23845       701  TIP3      OH2            14.3851147588      -31.7743223312       34.6938012827  TIP3      509             0.0000000000
     23846       701  TIP3      H1             13.9826364083      -31.9982080797       35.5742042724  TIP3      509             0.0000000000
     23847       701  TIP3      H2             14.3133941828      -30.8172721379       34.5992830099  TIP3      509             0.0000000000
     23848       702  TIP3      OH2             6.6647166019      -30.3065069174       31.8208593654  TIP3      510             0.0000000000
     23849       702  TIP3      H1              5.9130010984      -30.3196718222       32.4407236818  TIP3      510             0.0000000000
     23850       702  TIP3      H2              6.6058698014      -29.4087866755       31.4262490309  TIP3      510             0.0000000000
     23851       703  TIP3      OH2             6.6090559974      -30.2323103282       26.6866536904  TIP3      511             0.0000000000
     23852       703  TIP3      H1              5.6725735195      -30.4406584615       26.5246484140  TIP3      511             0.0000000000
     23853       703  TIP3      H2              6.9986860893      -30.4771344850       25.8419649968  TIP3      511             0.0000000000
     23854       704  TIP3      OH2            11.1690221924      -29.4610197232       36.9354971759  TIP3      512             0.0000000000
     23855       704  TIP3      H1             10.6692436121      -30.2846274821       37.1579970223  TIP3      512             0.0000000000
     23856       704  TIP3      H2             12.0441103577      -29.6443466935       37.3168765153  TIP3      512             0.0000000000
     23857       705  TIP3      OH2             4.2592739628      -30.0721148613       33.4800949865  TIP3      513             0.0000000000
     23858       705  TIP3      H1              4.3571668077      -29.6672391713       34.3607622494  TIP3      513             0.0000000000
     23859       705  TIP3      H2              3.8368640510      -30.9185802307       33.6952865059  TIP3      513             0.0000000000
     23860       706  TIP3      OH2             0.9378759065      -32.9439552761       27.4890162401  TIP3      514             0.0000000000
     23861       706  TIP3      H1              1.6343123773      -32.9910616302       28.1720997377  TIP3      514             0.0000000000
     23862       706  TIP3      H2              1.3604962977      -33.3199230581       26.6946904239  TIP3      514             0.0000000000
     23863       707  TIP3      OH2            12.3766303361      -28.6294362167       32.8553401694  TIP3      515             0.0000000000
     23864       707  TIP3      H1             12.7466055841      -29.3211478679       32.2705627320  TIP3      515             0.0000000000
     23865       707  TIP3      H2             11.8818851646      -29.1499489549       33.5134297041  TIP3      515             0.0000000000
     23866       708  TIP3      OH2             9.1499175132      -32.7637849652       27.6937068627  TIP3      516             0.0000000000
     23867       708  TIP3      H1              8.2188330807      -32.6534501799       27.9847730608  TIP3      516             0.0000000000
     23868       708  TIP3      H2              9.6393782638      -32.7825255560       28.5243048525  TIP3      516             0.0000000000
     23869       709  TIP3      OH2             3.9427601580      -31.1187225022       26.5685759597  TIP3      517             0.0000000000
     23870       709  TIP3      H1              3.0804290814      -30.9661182057       26.1360487414  TIP3      517             0.0000000000
     23871       709  TIP3      H2              4.2656134878      -31.9483599162       26.1750159064  TIP3      517             0.0000000000
     23872       710  TIP3      OH2             7.6372438024      -31.0901375647       24.1095125183  TIP3      518             0.0000000000
     23873       710  TIP3      H1              8.5278921042      -30.8672551634       24.4050361406  TIP3      518             0.0000000000
     23874       710  TIP3      H2              7.4026339118      -30.3311928216       23.5478211282  TIP3      518             0.0000000000
     23875       711  TIP3      OH2            13.5678658384      -33.4191802628       30.9047373962  TIP3      519             0.0000000000
     23876       711  TIP3      H1             12.9038785320      -33.3771358454       31.6271337550  TIP3      519             0.0000000000
     23877       711  TIP3      H2             13.0564089011      -33.6553967724       30.1104099288  TIP3      519             0.0000000000
     23878       712  TIP3      OH2            16.7619305453      -17.7706732821       37.2849846644  TIP3      520             0.0000000000
     23879       712  TIP3      H1             17.0406591059      -17.4108599299       36.4223994203  TIP3      520             0.0000000000
     23880       712  TIP3      H2             17.4952756920      -17.4642765999       37.8430487903  TIP3      520             0.0000000000
     23881       713  TIP3      OH2             4.4148708725      -25.6314666252       37.0097666621  TIP3      521             0.0000000000
     23882       713  TIP3      H1              5.1198215284      -25.0137386886       37.3230200434  TIP3      521             0.0000000000
     23883       713  TIP3      H2              3.6411888542      -25.1991391316       37.4052030161  TIP3      521             0.0000000000
     23884       714  TIP3      OH2            10.5405145247      -29.8818018140       29.5968895977  TIP3      522             0.0000000000
     23885       714  TIP3      H1             10.9659205510      -30.5172158438       29.0192107129  TIP3      522             0.0000000000
     23886       714  TIP3      H2             10.2504166276      -30.4228592104       30.3442655142  TIP3      522             0.0000000000
     23887       715  TIP3      OH2             5.4498102232      -33.7077170347       25.9626409288  TIP3      523             0.0000000000
     23888       715  TIP3      H1              5.1159824490      -34.6235109886       25.9887100165  TIP3      523             0.0000000000
     23889       715  TIP3      H2              6.2478146193      -33.7986824992       25.4402666936  TIP3      523             0.0000000000
     23890       716  TIP3      OH2             9.0803208856      -31.5715813713       31.9853773566  TIP3      524             0.0000000000
     23891       716  TIP3      H1              8.2564922303      -31.0470082644       32.0673075075  TIP3      524             0.0000000000
     23892       716  TIP3      H2              9.6299867944      -31.2252958299       32.7142736207  TIP3      524             0.0000000000
     23893       717  TIP3      OH2            16.8669169309      -26.1365883719       32.4883649045  TIP3      525             0.0000000000
     23894       717  TIP3      H1             17.4209365551      -25.6534238050       31.8482264431  TIP3      525             0.0000000000
     23895       717  TIP3      H2             16.0056250490      -26.0989262890       32.0282098611  TIP3      525             0.0000000000
     23896       718  TIP3      OH2            11.1928136248      -25.0866055379       34.9360919528  TIP3      526             0.0000000000
     23897       718  TIP3      H1             10.7998331094      -25.4982947253       35.7111788272  TIP3      526             0.0000000000
     23898       718  TIP3      H2             10.8988119302      -24.1691945697       35.0196312708  TIP3      526             0.0000000000
     23899       719  TIP3      OH2             4.7765249103      -25.9494046158       29.4811398720  TIP3      527             0.0000000000
     23900       719  TIP3      H1              5.4738161204      -26.0160443108       28.8131856823  TIP3      527             0.0000000000
     23901       719  TIP3      H2              4.8449114364      -26.8069483084       29.9409328082  TIP3      527             0.0000000000
     23902       720  TIP3      OH2             1.7386363836      -27.5650346043       34.7609328719  TIP3      528             0.0000000000
     23903       720  TIP3      H1              1.9419959377      -28.0108155624       35.6066593617  TIP3      528             0.0000000000
     23904       720  TIP3      H2              1.1415903751      -28.1793709126       34.3064875313  TIP3      528             0.0000000000
     23905       721  TIP3      OH2             8.7855714875      -28.0363471029       36.9513388779  TIP3      529             0.0000000000
     23906       721  TIP3      H1              8.4517875097      -28.2724258211       36.0696531728  TIP3      529             0.0000000000
     23907       721  TIP3      H2              9.7197733164      -28.3184971241       36.8865351320  TIP3      529             0.0000000000
     23908       722  TIP3      OH2            13.4694019956      -22.6531266641       34.8786499068  TIP3      530             0.0000000000
     23909       722  TIP3      H1             12.5426731480      -22.4674310978       34.6497880780  TIP3      530             0.0000000000
     23910       722  TIP3      H2             13.4437981679      -22.3574203101       35.8087675047  TIP3      530             0.0000000000
     23911       723  TIP3      OH2            19.2320844671      -30.4513111218       23.2076527848  TIP3      531             0.0000000000
     23912       723  TIP3      H1             18.5798187852      -30.7988061386       22.5949988607  TIP3      531             0.0000000000
     23913       723  TIP3      H2             19.2066666346      -29.4943301616       23.0062016604  TIP3      531             0.0000000000
     23914       724  TIP3      OH2            19.1464260542      -24.6175010318       36.0582558793  TIP3      532             0.0000000000
     23915       724  TIP3      H1             18.2488124767      -24.3883474403       35.7140313605  TIP3      532             0.0000000000
     23916       724  TIP3      H2             19.6700682894      -24.6540513478       35.2334150877  TIP3      532             0.0000000000
     23917       725  TIP3      OH2            17.4912707756      -21.6974893528       23.6700509570  TIP3      533             0.0000000000
     23918       725  TIP3      H1             16.9914663848      -22.4682222421       23.9950862456  TIP3      533             0.0000000000
     23919       725  TIP3      H2             17.6369430086      -21.9001419905       22.7461712297  TIP3      533             0.0000000000
     23920       726  TIP3      OH2            14.6354286722      -26.8221115302       30.7400795572  TIP3      534             0.0000000000
     23921       726  TIP3      H1             13.6921811297      -27.0485691106       30.6754444996  TIP3      534             0.0000000000
     23922       726  TIP3      H2             15.0652351325      -27.5905421884       30.3132046970  TIP3      534             0.0000000000
     23923       727  TIP3      OH2             7.1088300879      -22.4634486042       26.9338351569  TIP3      535             0.0000000000
     23924       727  TIP3      H1              7.6665232723      -21.7174639045       26.6668326172  TIP3      535             0.0000000000
     23925       727  TIP3      H2              6.2609429071      -22.2484363960       26.5363261277  TIP3      535             0.0000000000
     23926       728  TIP3      OH2             2.9429543527      -27.6576339208       21.3948370213  TIP3      536             0.0000000000
     23927       728  TIP3      H1              3.5282042900      -27.0073819641       21.8310696261  TIP3      536             0.0000000000
     23928       728  TIP3      H2              2.0606646788      -27.3903682072       21.7090602908  TIP3      536             0.0000000000
     23929       729  TIP3      OH2             9.0368249118      -20.6323810767       32.7733280892  TIP3      537             0.0000000000
     23930       729  TIP3      H1              9.5031936145      -19.8228274393       32.5129730218  TIP3      537             0.0000000000
     23931       729  TIP3      H2              9.6268214887      -20.9963799746       33.4596119906  TIP3      537             0.0000000000
     23932       730  TIP3      OH2             7.2493142400      -19.8254827327       25.9143947400  TIP3      538             0.0000000000
     23933       730  TIP3      H1              6.2975443857      -19.7079761452       26.1068751577  TIP3      538             0.0000000000
     23934       730  TIP3      H2              7.6178805097      -19.0023511131       26.2839020581  TIP3      538             0.0000000000
     23935       731  TIP3      OH2            12.5101335966      -24.6774510010       32.3881388696  TIP3      539             0.0000000000
     23936       731  TIP3      H1             12.2216961790      -24.8312391721       33.3142955609  TIP3      539             0.0000000000
     23937       731  TIP3      H2             13.1932795420      -25.3546789811       32.2645059113  TIP3      539             0.0000000000
     23938       732  TIP3      OH2            15.3732139688      -20.0670737001       34.9023291548  TIP3      540             0.0000000000
     23939       732  TIP3      H1             14.6735185667      -20.5571512408       34.4270810590  TIP3      540             0.0000000000
     23940       732  TIP3      H2             15.5473110671      -19.3649539336       34.2381151743  TIP3      540             0.0000000000
     23941       733  TIP3      OH2             3.4284699340      -32.8243991908       34.3268620770  TIP3      541             0.0000000000
     23942       733  TIP3      H1              2.5222900867      -32.4793385996       34.2766567741  TIP3      541             0.0000000000
     23943       733  TIP3      H2              3.2952511014      -33.7069218899       34.7232344298  TIP3      541             0.0000000000
     23944       734  TIP3      OH2            15.7403872799      -24.8076000023       23.9449135186  TIP3      542             0.0000000000
     23945       734  TIP3      H1             15.4094087280      -25.6783706891       24.2111784187  TIP3      542             0.0000000000
     23946       734  TIP3      H2             16.6906617192      -24.9497748989       23.8628004751  TIP3      542             0.0000000000
     23947       735  TIP3      OH2             3.0532908054      -21.0336930698       32.7201807445  TIP3      543             0.0000000000
     23948       735  TIP3      H1              3.3663331178      -21.9542417938       32.7448777287  TIP3      543             0.0000000000
     23949       735  TIP3      H2              3.3240366091      -20.7430155171       33.5990288074  TIP3      543             0.0000000000
     23950       736  TIP3      OH2             4.2983325870      -25.7235828496       22.8932952358  TIP3      544             0.0000000000
     23951       736  TIP3      H1              3.6283519912      -25.3638594552       23.5016121187  TIP3      544             0.0000000000
     23952       736  TIP3      H2              4.8144355947      -24.9355712946       22.6933408487  TIP3      544             0.0000000000
     23953       737  TIP3      OH2            12.1663918076      -33.0629036421       33.2463165185  TIP3      545             0.0000000000
     23954       737  TIP3      H1             12.8946619406      -32.9630622342       33.8916734574  TIP3      545             0.0000000000
     23955       737  TIP3      H2             11.8187912844      -33.9488933880       33.4554401306  TIP3      545             0.0000000000
     23956       738  TIP3      OH2            10.5448541483      -21.2786620530       23.1475471962  TIP3      546             0.0000000000
     23957       738  TIP3      H1              9.7982147618      -20.7076858858       23.2594300072  TIP3      546             0.0000000000
     23958       738  TIP3      H2             11.1464429399      -20.8209745489       22.5388521463  TIP3      546             0.0000000000
     23959       739  TIP3      OH2            10.7106878574      -30.6983514201       34.3643998293  TIP3      547             0.0000000000
     23960       739  TIP3      H1             10.7676355874      -30.1467539076       35.1648072682  TIP3      547             0.0000000000
     23961       739  TIP3      H2             11.3724607034      -31.4013354637       34.4654065533  TIP3      547             0.0000000000
     23962       740  TIP3      OH2            10.9820424397      -34.6455297095       26.0522545635  TIP3      548             0.0000000000
     23963       740  TIP3      H1             10.6272118046      -34.0218234212       26.7264524224  TIP3      548             0.0000000000
     23964       740  TIP3      H2             11.6639045746      -34.0988382102       25.6383330565  TIP3      548             0.0000000000
     23965       741  TIP3      OH2             6.6710905098      -33.6114432912       22.7925866303  TIP3      549             0.0000000000
     23966       741  TIP3      H1              6.5620802341      -32.6947988488       23.1048208536  TIP3      549             0.0000000000
     23967       741  TIP3      H2              7.5877242340      -33.7710276241       23.0247359166  TIP3      549             0.0000000000
     23968       742  TIP3      OH2            17.0688775467      -32.3632118845       34.8874664797  TIP3      550             0.0000000000
     23969       742  TIP3      H1             16.1307659511      -32.5697292261       35.1193321091  TIP3      550             0.0000000000
     23970       742  TIP3      H2             17.1625793766      -32.9152449090       34.1033460409  TIP3      550             0.0000000000
     23971       743  TIP3      OH2            15.4414622738      -29.0379640055       29.2699947726  TIP3      551             0.0000000000
     23972       743  TIP3      H1             14.6876916904      -29.5100261567       28.9085023775  TIP3      551             0.0000000000
     23973       743  TIP3      H2             15.9822767088      -29.7299511487       29.7280061148  TIP3      551             0.0000000000
     23974       744  TIP3      OH2             4.8915781107      -23.1195062552       21.8680169811  TIP3      552             0.0000000000
     23975       744  TIP3      H1              5.4936081180      -22.4138267968       22.0913331454  TIP3      552             0.0000000000
     23976       744  TIP3      H2              5.3185373149      -23.5436475173       21.1056527831  TIP3      552             0.0000000000
     23977       745  TIP3      OH2            16.5383814656      -19.7681631372       30.8791368546  TIP3      553             0.0000000000
     23978       745  TIP3      H1             16.4527519457      -19.0924226993       30.1790563600  TIP3      553             0.0000000000
     23979       745  TIP3      H2             17.5039195692      -19.7226258544       31.0492239910  TIP3      553             0.0000000000
     23980       746  TIP3      OH2             3.8159833050      -35.5092655427       29.7099633076  TIP3      554             0.0000000000
     23981       746  TIP3      H1              3.8496338815      -35.5989198887       28.7305694516  TIP3      554             0.0000000000
     23982       746  TIP3      H2              3.7224629257      -36.4439004880       29.9369981264  TIP3      554             0.0000000000
     23983       747  TIP3      OH2             2.9645711296      -21.6955373034       25.8479017258  TIP3      555             0.0000000000
     23984       747  TIP3      H1              2.0991102134      -21.2731374349       25.7765813270  TIP3      555             0.0000000000
     23985       747  TIP3      H2              3.4508402504      -21.2782808005       25.1310989327  TIP3      555             0.0000000000
     23986       748  TIP3      OH2             2.1535441387      -19.0643551085       37.1402587924  TIP3      556             0.0000000000
     23987       748  TIP3      H1              2.8170116099      -19.2899942537       37.8273928593  TIP3      556             0.0000000000
     23988       748  TIP3      H2              1.8198755117      -19.9512025193       36.9286761138  TIP3      556             0.0000000000
     23989       749  TIP3      OH2             6.8921975690      -20.2118052054       38.7726815566  TIP3      557             0.0000000000
     23990       749  TIP3      H1              7.6764009940      -20.7027403903       39.0360121896  TIP3      557             0.0000000000
     23991       749  TIP3      H2              6.8171928535      -20.4102230689       37.8089276607  TIP3      557             0.0000000000
     23992       750  TIP3      OH2            13.3717275396      -21.7648597957       37.4670376540  TIP3      558             0.0000000000
     23993       750  TIP3      H1             13.0594373120      -22.6568523122       37.7291551668  TIP3      558             0.0000000000
     23994       750  TIP3      H2             14.1581117932      -21.6552792902       38.0348949578  TIP3      558             0.0000000000
     23995       751  TIP3      OH2            15.6075694415      -20.8434097841       20.4079510252  TIP3      559             0.0000000000
     23996       751  TIP3      H1             15.8093234524      -21.7333642781       20.7446972782  TIP3      559             0.0000000000
     23997       751  TIP3      H2             16.2879809041      -20.6756954665       19.7560008813  TIP3      559             0.0000000000
     23998       752  TIP3      OH2             2.0374717359      -25.3302486136       38.1313652820  TIP3      560             0.0000000000
     23999       752  TIP3      H1              2.3090676105      -26.1981840073       37.7685432840  TIP3      560             0.0000000000
     24000       752  TIP3      H2              1.3751203795      -25.0428235961       37.4859220574  TIP3      560             0.0000000000
     24001       753  TIP3      OH2             8.8309796468      -25.3482300576       37.4678889032  TIP3      561             0.0000000000
     24002       753  TIP3      H1              8.4655812070      -24.9972794560       36.6332716268  TIP3      561             0.0000000000
     24003       753  TIP3      H2              8.8788404762      -26.3187866667       37.3225833542  TIP3      561             0.0000000000
     24004       754  TIP3      OH2            14.5062896713      -25.4581032386       34.8848312580  TIP3      562             0.0000000000
     24005       754  TIP3      H1             15.2979227175      -24.8802775630       34.8308311272  TIP3      562             0.0000000000
     24006       754  TIP3      H2             13.8066032245      -24.7860372319       34.9316385670  TIP3      562             0.0000000000
     24007       755  TIP3      OH2             2.9365082060      -28.1261195004       37.4956083626  TIP3      563             0.0000000000
     24008       755  TIP3      H1              3.4405368566      -28.9417563382       37.4158327465  TIP3      563             0.0000000000
     24009       755  TIP3      H2              2.8021606819      -28.0623883067       38.4582532529  TIP3      563             0.0000000000
     24010       756  TIP3      OH2             6.9283799540      -29.1240224063       34.8501382693  TIP3      564             0.0000000000
     24011       756  TIP3      H1              6.3359949962      -28.3964445332       35.0961102182  TIP3      564             0.0000000000
     24012       756  TIP3      H2              7.3223007681      -28.7751045470       34.0350734845  TIP3      564             0.0000000000
     24013       757  TIP3      OH2            11.9929674055      -26.5601743044       38.2786971840  TIP3      565             0.0000000000
     24014       757  TIP3      H1             12.9315697743      -26.5854614364       38.0251194795  TIP3      565             0.0000000000
     24015       757  TIP3      H2             11.8600332344      -27.3777845316       38.7703186835  TIP3      565             0.0000000000
     24016       758  TIP3      OH2             7.3310169340      -31.7525632323       35.8881549437  TIP3      566             0.0000000000
     24017       758  TIP3      H1              7.4475232984      -32.4664873340       35.2391296942  TIP3      566             0.0000000000
     24018       758  TIP3      H2              7.2830555715      -30.9455587938       35.3408921835  TIP3      566             0.0000000000
     24019       759  TIP3      OH2             7.7377277605      -33.3585438446       33.4354640725  TIP3      567             0.0000000000
     24020       759  TIP3      H1              8.2426122364      -32.8845524469       32.7296610986  TIP3      567             0.0000000000
     24021       759  TIP3      H2              6.8390346952      -33.4743861399       33.0402851177  TIP3      567             0.0000000000
     24022       760  TIP3      OH2             9.2631159052      -27.8736745195       33.7176186094  TIP3      568             0.0000000000
     24023       760  TIP3      H1             10.0172141687      -28.0587593309       33.1409719562  TIP3      568             0.0000000000
     24024       760  TIP3      H2              8.8964257217      -27.0383090792       33.3771622752  TIP3      568             0.0000000000
     24025       761  TIP3      OH2            13.6620682733      -30.1612538760       38.6766147935  TIP3      569             0.0000000000
     24026       761  TIP3      H1             13.9025970963      -31.0960399097       38.5337609517  TIP3      569             0.0000000000
     24027       761  TIP3      H2             14.5393368216      -29.7429459170       38.6392452513  TIP3      569             0.0000000000
     24028       762  TIP3      OH2            15.0127803906      -27.3100920146       36.8616397128  TIP3      570             0.0000000000
     24029       762  TIP3      H1             14.7522727690      -26.6169230304       36.2181610602  TIP3      570             0.0000000000
     24030       762  TIP3      H2             15.9611812805      -27.3779067253       36.6274696466  TIP3      570             0.0000000000
     24031       763  TIP3      OH2             5.8018233755      -30.5171258683       37.8397300893  TIP3      571             0.0000000000
     24032       763  TIP3      H1              5.0198773944      -31.0729133618       37.6421694303  TIP3      571             0.0000000000
     24033       763  TIP3      H2              6.4377892622      -30.8603356636       37.1827172603  TIP3      571             0.0000000000
     24034       764  TIP3      OH2             8.4332244995      -35.7899723733       34.0269182186  TIP3      572             0.0000000000
     24035       764  TIP3      H1              8.3409891260      -34.8322830752       33.7982912945  TIP3      572             0.0000000000
     24036       764  TIP3      H2              7.7837777981      -36.1796581871       33.4229614519  TIP3      572             0.0000000000
     24037       765  TIP3      OH2             9.7742286685      -31.5798510989       37.5068026369  TIP3      573             0.0000000000
     24038       765  TIP3      H1              9.4557464427      -31.9116236778       38.3663949193  TIP3      573             0.0000000000
     24039       765  TIP3      H2              9.0291109136      -31.8173226183       36.9171462327  TIP3      573             0.0000000000
     24040       766  TIP3      OH2            12.4841410908      -32.3900765030       36.5775981331  TIP3      574             0.0000000000
     24041       766  TIP3      H1             11.5271497590      -32.4457969351       36.7145348117  TIP3      574             0.0000000000
     24042       766  TIP3      H2             12.8131109773      -33.0773478497       37.2166175977  TIP3      574             0.0000000000
     24043       767  TIP3      OH2            13.6006949545      -33.8212287957       38.6563895249  TIP3      575             0.0000000000
     24044       767  TIP3      H1             14.0463061202      -34.6924786307       38.5021626955  TIP3      575             0.0000000000
     24045       767  TIP3      H2             13.7883911767      -33.5961457219       39.5859079453  TIP3      575             0.0000000000
     24046       768  TIP3      OH2             3.8607274456      -32.6016559992       37.5808997621  TIP3      576             0.0000000000
     24047       768  TIP3      H1              4.1396787319      -33.3273437377       36.9983906942  TIP3      576             0.0000000000
     24048       768  TIP3      H2              3.8045566911      -33.0436517455       38.4544023707  TIP3      576             0.0000000000
     24049       769  TIP3      OH2             8.7095473395       36.8462241486       36.5349276629  TIP3      577             0.0000000000
     24050       769  TIP3      H1              9.3951378300       36.1751292764       36.6204173525  TIP3      577             0.0000000000
     24051       769  TIP3      H2              8.6516619345       37.0762116613       35.5811947645  TIP3      577             0.0000000000
     24052       770  TIP3      OH2             9.0792228120      -34.9054357084       38.6161622209  TIP3      578             0.0000000000
     24053       770  TIP3      H1              8.9350209024      -35.4606231237       37.8204799416  TIP3      578             0.0000000000
     24054       770  TIP3      H2              8.5039812706      -34.1373902777       38.5167887811  TIP3      578             0.0000000000
     24055       771  TIP3      OH2             2.1880626586      -23.4809993177       21.3504210671  TIP3      579             0.0000000000
     24056       771  TIP3      H1              3.1337229278      -23.3182615996       21.4733985162  TIP3      579             0.0000000000
     24057       771  TIP3      H2              2.1757077373      -24.0620873081       20.5676643530  TIP3      579             0.0000000000
     24058       772  TIP3      OH2             0.9223646742      -18.0534143315       26.2745083891  TIP3      580             0.0000000000
     24059       772  TIP3      H1              0.1888333474      -18.5327469303       25.8177126513  TIP3      580             0.0000000000
     24060       772  TIP3      H2              1.1749522011      -18.7063398677       26.9543444481  TIP3      580             0.0000000000
     24061       773  TIP3      OH2             1.7211019504      -19.9295886172       28.1570123414  TIP3      581             0.0000000000
     24062       773  TIP3      H1              1.3703722563      -20.8100297311       28.3469513105  TIP3      581             0.0000000000
     24063       773  TIP3      H2              1.9531430820      -19.5986247726       29.0413562812  TIP3      581             0.0000000000
     24064       774  TIP3      OH2            19.2602778275      -19.1306810492       31.0718891433  TIP3      582             0.0000000000
     24065       774  TIP3      H1             19.2923964785      -18.9729528943       32.0315075352  TIP3      582             0.0000000000
     24066       774  TIP3      H2             19.9643800790      -18.5477545318       30.7701873606  TIP3      582             0.0000000000
     24067       775  TIP3      OH2            18.8329394470      -19.5350614347       34.0218260359  TIP3      583             0.0000000000
     24068       775  TIP3      H1             18.3633458801      -20.3051532568       33.6369357959  TIP3      583             0.0000000000
     24069       775  TIP3      H2             19.3162694985      -19.9857578900       34.7343772080  TIP3      583             0.0000000000
     24070       776  TIP3      OH2            17.2834563090      -23.8314561014       38.6907800894  TIP3      584             0.0000000000
     24071       776  TIP3      H1             16.3847947401      -23.8394670209       39.0735226776  TIP3      584             0.0000000000
     24072       776  TIP3      H2             17.6520903962      -23.0201489466       39.1023595320  TIP3      584             0.0000000000
     24073       777  TIP3      OH2            18.6142901137      -25.5374209532       24.0980232256  TIP3      585             0.0000000000
     24074       777  TIP3      H1             19.4602806919      -25.1136408642       24.3349099360  TIP3      585             0.0000000000
     24075       777  TIP3      H2             18.5694561982      -26.2186325093       24.8067466017  TIP3      585             0.0000000000
     24076       778  TIP3      OH2            18.9797795694      -27.3895638668       25.9979221485  TIP3      586             0.0000000000
     24077       778  TIP3      H1             18.2152177096      -27.9065553516       26.3542546714  TIP3      586             0.0000000000
     24078       778  TIP3      H2             19.5554138891      -27.2885546637       26.7804949909  TIP3      586             0.0000000000
     24079       779  TIP3      OH2            18.7095210809      -24.7105848430       30.9928116537  TIP3      587             0.0000000000
     24080       779  TIP3      H1             19.5224558672      -25.0923777536       30.6153552687  TIP3      587             0.0000000000
     24081       779  TIP3      H2             18.8524908837      -23.7583918731       30.8260281469  TIP3      587             0.0000000000
     24082       780  TIP3      OH2            17.2751982386      -21.8147275114       33.2678677997  TIP3      588             0.0000000000
     24083       780  TIP3      H1             16.5816262962      -21.4655939351       33.8493451903  TIP3      588             0.0000000000
     24084       780  TIP3      H2             16.7255992321      -22.2090127484       32.5543395327  TIP3      588             0.0000000000
     24085       781  TIP3      OH2            19.2881757824      -27.5949251401       22.4059622054  TIP3      589             0.0000000000
     24086       781  TIP3      H1             18.7548649198      -27.2053495480       21.6985695123  TIP3      589             0.0000000000
     24087       781  TIP3      H2             19.2020043555      -26.8895932332       23.0732190198  TIP3      589             0.0000000000
     24088       782  TIP3      OH2            16.8168545009      -28.9297696640       26.5913806781  TIP3      590             0.0000000000
     24089       782  TIP3      H1             16.5878009562      -29.8732026979       26.4894432286  TIP3      590             0.0000000000
     24090       782  TIP3      H2             16.4413866643      -28.7241442803       27.4619960000  TIP3      590             0.0000000000
     24091       783  TIP3      OH2             1.7850637643      -26.8422152485       30.6369856523  TIP3      591             0.0000000000
     24092       783  TIP3      H1              1.9688171180      -26.9237025002       29.6777331070  TIP3      591             0.0000000000
     24093       783  TIP3      H2              2.6784148627      -27.0328204243       30.9899635803  TIP3      591             0.0000000000
     24094       784  TIP3      OH2            17.6291533786      -26.9692753910       36.3031272229  TIP3      592             0.0000000000
     24095       784  TIP3      H1             18.2410014840      -27.7314468376       36.3922128942  TIP3      592             0.0000000000
     24096       784  TIP3      H2             18.2369254399      -26.2006491934       36.2644722947  TIP3      592             0.0000000000
     24097       785  TIP3      OH2            19.1301644280      -29.0895110271       36.9190980576  TIP3      593             0.0000000000
     24098       785  TIP3      H1             18.2545562215      -29.5027308507       36.7462401717  TIP3      593             0.0000000000
     24099       785  TIP3      H2             19.7023903347      -29.8756944220       36.8492793807  TIP3      593             0.0000000000
     24100       786  TIP3      OH2            16.4912167717      -31.3298451026       25.0998463797  TIP3      594             0.0000000000
     24101       786  TIP3      H1             16.7378355529      -32.2722166581       25.1621967009  TIP3      594             0.0000000000
     24102       786  TIP3      H2             17.2352168654      -30.9457204590       24.6378596503  TIP3      594             0.0000000000
     24103       787  TIP3      OH2            17.0795263064      -30.7964809908       30.4848389301  TIP3      595             0.0000000000
     24104       787  TIP3      H1             18.0434269327      -30.5771732912       30.4669775544  TIP3      595             0.0000000000
     24105       787  TIP3      H2             16.9024081958      -30.6736056245       31.4326158059  TIP3      595             0.0000000000
     24106       788  TIP3      OH2            17.1424711184      -30.0630734538       33.1743525906  TIP3      596             0.0000000000
     24107       788  TIP3      H1             16.2855879560      -29.8184488987       33.5863412646  TIP3      596             0.0000000000
     24108       788  TIP3      H2             17.5863673642      -29.1986489752       33.0345007487  TIP3      596             0.0000000000
     24109       789  TIP3      OH2             1.3982427643      -31.5412474363       36.7803368529  TIP3      597             0.0000000000
     24110       789  TIP3      H1              2.3287338774      -31.7793396710       36.9726584671  TIP3      597             0.0000000000
     24111       789  TIP3      H2              0.9431467628      -32.3663062714       37.0548160751  TIP3      597             0.0000000000
     24112       790  TIP3      OH2            19.5635669562      -36.0425282515       38.6156734753  TIP3      598             0.0000000000
     24113       790  TIP3      H1             19.7431079120      -36.7028521743       37.9408616770  TIP3      598             0.0000000000
     24114       790  TIP3      H2             19.4615373190      -35.2245403223       38.0899871407  TIP3      598             0.0000000000
     24115       791  TIP3      OH2            17.1277045493      -34.0755888093       25.0594622116  TIP3      599             0.0000000000
     24116       791  TIP3      H1             17.3022718036      -34.5141250579       25.9147597377  TIP3      599             0.0000000000
     24117       791  TIP3      H2             16.5278103183      -34.7301734452       24.6332282995  TIP3      599             0.0000000000
     24118       792  TIP3      OH2             2.5671366800      -33.2267831386       29.6305794017  TIP3      600             0.0000000000
     24119       792  TIP3      H1              3.0248805579      -34.0557189812       29.8940243003  TIP3      600             0.0000000000
     24120       792  TIP3      H2              3.1501873079      -32.5740180340       30.0305281486  TIP3      600             0.0000000000
     24121       793  TIP3      OH2             0.8808834490      -30.2774857186       30.6670752441  TIP3      601             0.0000000000
     24122       793  TIP3      H1              1.4486668059      -30.5175895106       29.9097381706  TIP3      601             0.0000000000
     24123       793  TIP3      H2              1.3415976041      -29.4686077388       30.9424747245  TIP3      601             0.0000000000
     24124       794  TIP3      OH2            18.9618116728      -33.9448803933       36.9124434436  TIP3      602             0.0000000000
     24125       794  TIP3      H1             18.0094294028      -33.6976469718       36.9392751849  TIP3      602             0.0000000000
     24126       794  TIP3      H2             18.9320740229      -34.5257678652       36.1355870596  TIP3      602             0.0000000000
     24127       795  TIP3      OH2             1.1787113165      -33.8195590565       24.8748535314  TIP3      603             0.0000000000
     24128       795  TIP3      H1              0.2495782460      -33.8120500906       24.6133793332  TIP3      603             0.0000000000
     24129       795  TIP3      H2              1.6506762992      -33.5807956291       24.0725949453  TIP3      603             0.0000000000
     24130       796  TIP3      OH2            15.9828562653      -19.0440005585       26.7067774519  TIP3      604             0.0000000000
     24131       796  TIP3      H1             16.6511807046      -19.3613461503       26.0747089976  TIP3      604             0.0000000000
     24132       796  TIP3      H2             16.5100086059      -18.5499694723       27.3496944193  TIP3      604             0.0000000000
     24133       797  TIP3      OH2             1.1861826243      -35.3159195493       33.0383114849  TIP3      605             0.0000000000
     24134       797  TIP3      H1              0.5373479262      -35.5040275474       33.7297267234  TIP3      605             0.0000000000
     24135       797  TIP3      H2              0.7234457969      -34.6710861876       32.4752641798  TIP3      605             0.0000000000
     24136       798  TIP3      OH2             3.3466092290      -22.0807902654       37.2895351690  TIP3      606             0.0000000000
     24137       798  TIP3      H1              2.5394854822      -21.9241537762       36.7957897611  TIP3      606             0.0000000000
     24138       798  TIP3      H2              3.0961825551      -22.2005658079       38.2013037528  TIP3      606             0.0000000000
     24139       799  TIP3      OH2             6.3236033574      -21.1634069334       33.4272402362  TIP3      607             0.0000000000
     24140       799  TIP3      H1              6.0016826137      -20.2707999753       33.2463259692  TIP3      607             0.0000000000
     24141       799  TIP3      H2              7.2620719650      -21.0563034358       33.1882054058  TIP3      607             0.0000000000
     24142       800  TIP3      OH2            10.6497724343      -19.7307616158       36.3976343904  TIP3      608             0.0000000000
     24143       800  TIP3      H1             10.7920059667      -20.0619547300       37.3166073806  TIP3      608             0.0000000000
     24144       800  TIP3      H2             11.5510958845      -19.4133044785       36.1685532970  TIP3      608             0.0000000000
     24145       801  TIP3      OH2            12.9386891635      -18.4485987279       35.7035696613  TIP3      609             0.0000000000
     24146       801  TIP3      H1             13.6689569453      -19.0328906160       35.4658189738  TIP3      609             0.0000000000
     24147       801  TIP3      H2             13.3132094289      -18.0083800896       36.4967289638  TIP3      609             0.0000000000
     24148       802  TIP3      OH2            18.0025944766      -35.7843031580       34.7628233574  TIP3      610             0.0000000000
     24149       802  TIP3      H1             17.1230623797      -35.4805130530       34.4763860622  TIP3      610             0.0000000000
     24150       802  TIP3      H2             18.1066648099      -36.6333044382       34.2925135000  TIP3      610             0.0000000000
     24151       803  TIP3      OH2             3.7489289688      -17.9285176812       33.4761108046  TIP3      611             0.0000000000
     24152       803  TIP3      H1              3.0253631132      -17.4055232316       33.0956595259  TIP3      611             0.0000000000
     24153       803  TIP3      H2              3.4637496024      -18.1121773602       34.3832994431  TIP3      611             0.0000000000
     24154       804  TIP3      OH2             6.2358357535      -18.3137134248       32.5530202611  TIP3      612             0.0000000000
     24155       804  TIP3      H1              5.3446192646      -18.1940761818       32.9590640421  TIP3      612             0.0000000000
     24156       804  TIP3      H2              6.1582491151      -17.7204201394       31.7835352624  TIP3      612             0.0000000000
     24157       805  TIP3      OH2            10.9290668438      -18.4175472004       31.7274708156  TIP3      613             0.0000000000
     24158       805  TIP3      H1             10.4747451639      -17.8551513033       31.0797150519  TIP3      613             0.0000000000
     24159       805  TIP3      H2             11.0644969003      -17.7809448385       32.4651514953  TIP3      613             0.0000000000
     24160       806  TIP3      OH2            13.2159620170      -19.6108534760       32.7601691360  TIP3      614             0.0000000000
     24161       806  TIP3      H1             12.3668434174      -19.3281469040       32.3833270036  TIP3      614             0.0000000000
     24162       806  TIP3      H2             13.7080222200      -18.7765611905       32.6659141861  TIP3      614             0.0000000000
     24163       807  TIP3      OH2            15.7977352036      -18.0398408781       32.9740546788  TIP3      615             0.0000000000
     24164       807  TIP3      H1             15.7532809261      -17.0805492740       32.7449111300  TIP3      615             0.0000000000
     24165       807  TIP3      H2             16.0199427894      -18.4168168253       32.0998526019  TIP3      615             0.0000000000
     24166       808  TIP3      OH2             3.2243379018      -19.2559209853       30.4269807654  TIP3      616             0.0000000000
     24167       808  TIP3      H1              3.1458078846      -19.7270754100       31.2813758606  TIP3      616             0.0000000000
     24168       808  TIP3      H2              4.0393076902      -19.6391236447       30.0414139017  TIP3      616             0.0000000000
     24169       809  TIP3      OH2             5.2729377259      -20.5100472834       29.1023035788  TIP3      617             0.0000000000
     24170       809  TIP3      H1              5.1218148445      -21.4511694904       29.3146699689  TIP3      617             0.0000000000
     24171       809  TIP3      H2              6.1489818360      -20.3834826969       29.5222415630  TIP3      617             0.0000000000
     24172       810  TIP3      OH2             7.9017398529      -20.0610665807       29.9591602633  TIP3      618             0.0000000000
     24173       810  TIP3      H1              8.0493958510      -20.9841696277       29.6830777634  TIP3      618             0.0000000000
     24174       810  TIP3      H2              7.9412546399      -20.1293228301       30.9229121708  TIP3      618             0.0000000000
     24175       811  TIP3      OH2            11.3108410878      -34.3138590400       29.0196361419  TIP3      619             0.0000000000
     24176       811  TIP3      H1             10.7029950024      -35.0039240179       29.3773091843  TIP3      619             0.0000000000
     24177       811  TIP3      H2             11.9603330111      -34.8753324658       28.5781718231  TIP3      619             0.0000000000
     24178       812  TIP3      OH2            16.4710161625      -36.3278715342       29.1801345492  TIP3      620             0.0000000000
     24179       812  TIP3      H1             17.0827776359      -35.7890107615       28.6288145208  TIP3      620             0.0000000000
     24180       812  TIP3      H2             15.6045932927      -35.9886072858       28.9368101205  TIP3      620             0.0000000000
     24181       813  TIP3      OH2            18.1690081152      -35.0995915019       27.4339441299  TIP3      621             0.0000000000
     24182       813  TIP3      H1             18.8488004369      -35.6919529528       27.0663243915  TIP3      621             0.0000000000
     24183       813  TIP3      H2             18.6628475572      -34.2591179319       27.5429979011  TIP3      621             0.0000000000
     24184       814  TIP3      OH2             3.7755865598      -35.7391406723       26.7800798329  TIP3      622             0.0000000000
     24185       814  TIP3      H1              2.8795710164      -35.9767963571       26.4791877191  TIP3      622             0.0000000000
     24186       814  TIP3      H2              4.1358773658      -36.6151184597       26.9692765922  TIP3      622             0.0000000000
     24187       815  TIP3      OH2             2.6602129946      -35.4266805236       23.4681479146  TIP3      623             0.0000000000
     24188       815  TIP3      H1              2.9532420348      -35.3094021951       22.5577547266  TIP3      623             0.0000000000
     24189       815  TIP3      H2              1.6976087587      -35.4080592821       23.3773200087  TIP3      623             0.0000000000
     24190       816  TIP3      OH2             8.4677972296      -35.4186278505       27.0674443079  TIP3      624             0.0000000000
     24191       816  TIP3      H1              9.4043886726      -35.4564512920       26.8197254621  TIP3      624             0.0000000000
     24192       816  TIP3      H2              8.3448214891      -36.1097501378       27.7250759231  TIP3      624             0.0000000000
     24193       817  TIP3      OH2            13.6931777983      -35.5876565768       28.3983346738  TIP3      625             0.0000000000
     24194       817  TIP3      H1             13.8635882792      -35.5958048392       27.4530552114  TIP3      625             0.0000000000
     24195       817  TIP3      H2             13.6112643915      -36.5609001438       28.5524933877  TIP3      625             0.0000000000
     24196       818  TIP3      OH2            15.1391155299      -35.7865864785       24.0948678014  TIP3      626             0.0000000000
     24197       818  TIP3      H1             14.4429992755      -35.1726467485       23.8481250131  TIP3      626             0.0000000000
     24198       818  TIP3      H2             14.7462336129      -36.6651124421       24.1559157470  TIP3      626             0.0000000000
     24199       819  TIP3      OH2             2.3906816861      -20.0686689644       23.6742826460  TIP3      627             0.0000000000
     24200       819  TIP3      H1              1.7507604786      -20.0905252893       22.9446425117  TIP3      627             0.0000000000
     24201       819  TIP3      H2              2.3689453171      -19.1357914469       23.9008095111  TIP3      627             0.0000000000
     24202       820  TIP3      OH2             9.3691484724      -33.8227713015       23.5993264887  TIP3      628             0.0000000000
     24203       820  TIP3      H1              9.6305682440      -34.4101608413       24.3236709535  TIP3      628             0.0000000000
     24204       820  TIP3      H2              9.3276186244      -32.9655712770       24.0401775220  TIP3      628             0.0000000000
     24205       821  TIP3      OH2            17.9714992133      -19.2558712543       24.7376901317  TIP3      629             0.0000000000
     24206       821  TIP3      H1             17.7541997982      -20.0389929790       24.1793333584  TIP3      629             0.0000000000
     24207       821  TIP3      H2             17.9120616866      -18.5275651172       24.0759967316  TIP3      629             0.0000000000
     24208       822  TIP3      OH2             3.5274888915      -35.2500076140       36.3391254713  TIP3      630             0.0000000000
     24209       822  TIP3      H1              3.1932897264      -36.0258733781       36.7968084986  TIP3      630             0.0000000000
     24210       822  TIP3      H2              4.4410782694      -35.2628851216       36.7122913843  TIP3      630             0.0000000000
     24211       823  TIP3      OH2             5.4370095664      -35.6868469286       37.9414603648  TIP3      631             0.0000000000
     24212       823  TIP3      H1              6.3768707988      -35.9341068079       37.8353375556  TIP3      631             0.0000000000
     24213       823  TIP3      H2              5.2338567430      -36.5274005066       38.3917114285  TIP3      631             0.0000000000
     24214       824  TIP3      OH2            13.9466485415       37.0844788778       38.1347867302  TIP3      632             0.0000000000
     24215       824  TIP3      H1             14.0487082430       36.4867345364       38.8905549403  TIP3      632             0.0000000000
     24216       824  TIP3      H2             14.8227204760       36.9744939117       37.7238355642  TIP3      632             0.0000000000
     24217       825  TIP3      OH2            17.2136924345      -20.5209062869       36.8478443518  TIP3      633             0.0000000000
     24218       825  TIP3      H1             16.4231617868      -20.6591706622       36.2801356610  TIP3      633             0.0000000000
     24219       825  TIP3      H2             17.1085702964      -19.5676537047       37.0305477912  TIP3      633             0.0000000000
     24220       826  TIP3      OH2            31.6675178947      -26.6630102025       26.8044335688  TIP3      634             0.0000000000
     24221       826  TIP3      H1             31.6609524522      -25.6825032319       26.7608185988  TIP3      634             0.0000000000
     24222       826  TIP3      H2             30.9504329060      -26.8991725931       26.1957707013  TIP3      634             0.0000000000
     24223       827  TIP3      OH2            30.5119454401      -27.3851859531       30.2817774466  TIP3      635             0.0000000000
     24224       827  TIP3      H1             30.5019020987      -28.0276303287       31.0092483618  TIP3      635             0.0000000000
     24225       827  TIP3      H2             30.1738785485      -27.9042273523       29.5314019985  TIP3      635             0.0000000000
     24226       828  TIP3      OH2            22.8506894899      -27.6934434577       31.8756578852  TIP3      636             0.0000000000
     24227       828  TIP3      H1             22.9536804633      -28.4130065460       32.5337339289  TIP3      636             0.0000000000
     24228       828  TIP3      H2             23.6391951449      -27.1621714180       32.0279770832  TIP3      636             0.0000000000
     24229       829  TIP3      OH2            34.2123407192      -24.4728803470       28.6017568156  TIP3      637             0.0000000000
     24230       829  TIP3      H1             33.7922201986      -25.1725612327       29.1082174150  TIP3      637             0.0000000000
     24231       829  TIP3      H2             34.2852171230      -23.7717957387       29.2710844190  TIP3      637             0.0000000000
     24232       830  TIP3      OH2            23.7986245253      -23.2781727699       30.3983318004  TIP3      638             0.0000000000
     24233       830  TIP3      H1             23.4882349822      -24.1266514847       30.0261612483  TIP3      638             0.0000000000
     24234       830  TIP3      H2             24.7595449380      -23.4235078339       30.3528039474  TIP3      638             0.0000000000
     24235       831  TIP3      OH2            20.4595662080      -29.7125193015       25.8330616574  TIP3      639             0.0000000000
     24236       831  TIP3      H1             20.0304627217      -28.8359374309       25.7905874968  TIP3      639             0.0000000000
     24237       831  TIP3      H2             19.8889785911      -30.2445496049       25.2669884659  TIP3      639             0.0000000000
     24238       832  TIP3      OH2            21.1572962009      -27.4701450283       27.9790659200  TIP3      640             0.0000000000
     24239       832  TIP3      H1             21.4280493509      -28.2960940719       28.4289966881  TIP3      640             0.0000000000
     24240       832  TIP3      H2             21.8544421702      -27.3657158046       27.3162641806  TIP3      640             0.0000000000
     24241       833  TIP3      OH2            31.3720660388      -19.2660965013       28.8232876300  TIP3      641             0.0000000000
     24242       833  TIP3      H1             31.9911403156      -19.9756370377       28.5243469724  TIP3      641             0.0000000000
     24243       833  TIP3      H2             31.1124181748      -19.6207513535       29.6746889542  TIP3      641             0.0000000000
     24244       834  TIP3      OH2            28.8748416976      -25.0117603110       30.7953317826  TIP3      642             0.0000000000
     24245       834  TIP3      H1             29.2221607070      -25.6136973426       30.1166638283  TIP3      642             0.0000000000
     24246       834  TIP3      H2             29.6959576155      -24.8301664336       31.2873835714  TIP3      642             0.0000000000
     24247       835  TIP3      OH2            32.0492253457      -30.5283621264       31.0856631993  TIP3      643             0.0000000000
     24248       835  TIP3      H1             32.2476459411      -31.4897458639       31.0792613764  TIP3      643             0.0000000000
     24249       835  TIP3      H2             31.9607898659      -30.3830867274       30.1247083799  TIP3      643             0.0000000000
     24250       836  TIP3      OH2            25.1610660337      -32.3948295529       28.2922619428  TIP3      644             0.0000000000
     24251       836  TIP3      H1             25.2938610094      -31.5716488891       27.7832701053  TIP3      644             0.0000000000
     24252       836  TIP3      H2             24.7864629730      -32.9929968813       27.6074811266  TIP3      644             0.0000000000
     24253       837  TIP3      OH2            32.9550452385      -32.3808047231       26.6787472265  TIP3      645             0.0000000000
     24254       837  TIP3      H1             33.5947001366      -32.6310496087       27.3908093612  TIP3      645             0.0000000000
     24255       837  TIP3      H2             33.4393407573      -31.7608283959       26.1148179556  TIP3      645             0.0000000000
     24256       838  TIP3      OH2            21.7972895141      -30.0149103743       29.0402934671  TIP3      646             0.0000000000
     24257       838  TIP3      H1             22.4644968654      -30.5701246086       29.4832790595  TIP3      646             0.0000000000
     24258       838  TIP3      H2             21.8978328852      -30.3296438262       28.1260762691  TIP3      646             0.0000000000
     24259       839  TIP3      OH2            26.9552233079      -28.4702140943       28.3667774602  TIP3      647             0.0000000000
     24260       839  TIP3      H1             27.6334821031      -29.0520368122       28.7457774339  TIP3      647             0.0000000000
     24261       839  TIP3      H2             26.4448328682      -29.1192468760       27.8356616761  TIP3      647             0.0000000000
     24262       840  TIP3      OH2            24.0965907966      -33.4886145115       32.3515089588  TIP3      648             0.0000000000
     24263       840  TIP3      H1             23.7840737621      -32.9638671393       31.5837098524  TIP3      648             0.0000000000
     24264       840  TIP3      H2             23.3906804575      -33.3013232735       33.0152081139  TIP3      648             0.0000000000
     24265       841  TIP3      OH2            31.3268366952      -24.0818758962       25.9046017205  TIP3      649             0.0000000000
     24266       841  TIP3      H1             31.1050308818      -24.2915465509       24.9974394532  TIP3      649             0.0000000000
     24267       841  TIP3      H2             31.0880447625      -23.1283278025       25.9646056702  TIP3      649             0.0000000000
     24268       842  TIP3      OH2            26.5706802436      -25.8764865099       32.6853558683  TIP3      650             0.0000000000
     24269       842  TIP3      H1             25.8867351598      -25.1872389401       32.6986015867  TIP3      650             0.0000000000
     24270       842  TIP3      H2             27.2989481561      -25.3491962027       32.2947565530  TIP3      650             0.0000000000
     24271       843  TIP3      OH2            34.5216209820      -33.0603739931       28.7077987679  TIP3      651             0.0000000000
     24272       843  TIP3      H1             34.4390816099      -33.8208820359       29.2801369501  TIP3      651             0.0000000000
     24273       843  TIP3      H2             35.2482973873      -32.5775048111       29.1573248279  TIP3      651             0.0000000000
     24274       844  TIP3      OH2            23.6472711782      -31.6700744124       30.3564059037  TIP3      652             0.0000000000
     24275       844  TIP3      H1             24.2731842207      -30.9958508949       30.6931738495  TIP3      652             0.0000000000
     24276       844  TIP3      H2             24.1789524881      -32.0884746448       29.6324408302  TIP3      652             0.0000000000
     24277       845  TIP3      OH2            25.0205136551      -23.8907767528       33.4328305997  TIP3      653             0.0000000000
     24278       845  TIP3      H1             25.0291498162      -22.9895398067       33.0399327877  TIP3      653             0.0000000000
     24279       845  TIP3      H2             24.0942851270      -23.8712349214       33.7927078785  TIP3      653             0.0000000000
     24280       846  TIP3      OH2            21.0191478595      -24.2250118125       24.1677183891  TIP3      654             0.0000000000
     24281       846  TIP3      H1             20.8227667483      -23.9487600398       23.2750306749  TIP3      654             0.0000000000
     24282       846  TIP3      H2             21.1804551039      -23.4148862148       24.6869210873  TIP3      654             0.0000000000
     24283       847  TIP3      OH2            34.6480885351      -22.6498085266       31.0238336948  TIP3      655             0.0000000000
     24284       847  TIP3      H1             33.6803376363      -22.5049759479       31.0843823490  TIP3      655             0.0000000000
     24285       847  TIP3      H2             34.9752090498      -21.7675785837       30.7604380157  TIP3      655             0.0000000000
     24286       848  TIP3      OH2            34.9656664943      -34.1420351061       32.2824543382  TIP3      656             0.0000000000
     24287       848  TIP3      H1             34.2068378880      -33.5413932693       32.1971175970  TIP3      656             0.0000000000
     24288       848  TIP3      H2             35.6548568213      -33.7701622443       31.7214181098  TIP3      656             0.0000000000
     24289       849  TIP3      OH2            28.3020345435      -36.0037049047       29.7719620231  TIP3      657             0.0000000000
     24290       849  TIP3      H1             28.1867341475      -36.9568840166       29.7617241232  TIP3      657             0.0000000000
     24291       849  TIP3      H2             27.3906727220      -35.7525727929       30.0039891073  TIP3      657             0.0000000000
     24292       850  TIP3      OH2            32.9698682517      -20.8605007936       27.5776982405  TIP3      658             0.0000000000
     24293       850  TIP3      H1             33.4202475671      -21.5523017907       27.0584613685  TIP3      658             0.0000000000
     24294       850  TIP3      H2             33.4057588551      -20.0707566441       27.1829830455  TIP3      658             0.0000000000
     24295       851  TIP3      OH2            34.1958651933      -22.9157404514       26.0434931222  TIP3      659             0.0000000000
     24296       851  TIP3      H1             33.9331019207      -23.6260051267       25.4449900362  TIP3      659             0.0000000000
     24297       851  TIP3      H2             34.2431191980      -23.4046730862       26.8889309826  TIP3      659             0.0000000000
     24298       852  TIP3      OH2            35.6083971561      -24.2015197058       34.6240025766  TIP3      660             0.0000000000
     24299       852  TIP3      H1             35.9175015365      -24.8835975612       33.9980463439  TIP3      660             0.0000000000
     24300       852  TIP3      H2             36.0126261040      -23.4121910748       34.2049991856  TIP3      660             0.0000000000
     24301       853  TIP3      OH2            30.3507527083      -27.3012462222       24.3554117353  TIP3      661             0.0000000000
     24302       853  TIP3      H1             29.5796996845      -26.9236544630       23.9268730040  TIP3      661             0.0000000000
     24303       853  TIP3      H2             30.9908338638      -27.3932070030       23.6200125930  TIP3      661             0.0000000000
     24304       854  TIP3      OH2            33.7651280800      -27.1684057252       25.2241794507  TIP3      662             0.0000000000
     24305       854  TIP3      H1             33.0361881674      -26.9394951449       25.8425858586  TIP3      662             0.0000000000
     24306       854  TIP3      H2             34.2313422823      -27.8323356917       25.7797461486  TIP3      662             0.0000000000
     24307       855  TIP3      OH2            33.6379519138      -29.0620471634       34.3395317761  TIP3      663             0.0000000000
     24308       855  TIP3      H1             33.6867267663      -28.2486275509       34.8689354516  TIP3      663             0.0000000000
     24309       855  TIP3      H2             33.0548552385      -28.7372118684       33.6302303670  TIP3      663             0.0000000000
     24310       856  TIP3      OH2            25.3680541628      -26.5278759872       27.1657399227  TIP3      664             0.0000000000
     24311       856  TIP3      H1             25.0625729562      -26.9194223418       26.3117019993  TIP3      664             0.0000000000
     24312       856  TIP3      H2             25.9994630025      -27.2092038516       27.4783819302  TIP3      664             0.0000000000
     24313       857  TIP3      OH2            26.6872562870      -23.1630944418       29.8463415613  TIP3      665             0.0000000000
     24314       857  TIP3      H1             26.6800090834      -23.6688466310       29.0213503915  TIP3      665             0.0000000000
     24315       857  TIP3      H2             27.4944287549      -23.5003901080       30.2727055834  TIP3      665             0.0000000000
     24316       858  TIP3      OH2            25.7024602984      -27.7746079146       30.8356102600  TIP3      666             0.0000000000
     24317       858  TIP3      H1             26.2367124987      -27.7072044591       30.0123688629  TIP3      666             0.0000000000
     24318       858  TIP3      H2             26.1246861370      -27.1147305238       31.4150346783  TIP3      666             0.0000000000
     24319       859  TIP3      OH2            32.0783767155      -22.2093563211       31.5121757923  TIP3      667             0.0000000000
     24320       859  TIP3      H1             31.8624099987      -21.5805888565       32.2050297721  TIP3      667             0.0000000000
     24321       859  TIP3      H2             31.8808850759      -23.0719812645       31.9445378420  TIP3      667             0.0000000000
     24322       860  TIP3      OH2            26.5845257490      -23.4410216624       35.5394090809  TIP3      668             0.0000000000
     24323       860  TIP3      H1             26.2683945702      -22.6284237251       36.0031490093  TIP3      668             0.0000000000
     24324       860  TIP3      H2             26.0059516629      -23.4471819100       34.7499157217  TIP3      668             0.0000000000
     24325       861  TIP3      OH2            32.6461780515      -27.9855852076       22.9604011884  TIP3      669             0.0000000000
     24326       861  TIP3      H1             33.1633256457      -27.7846158539       23.7713458354  TIP3      669             0.0000000000
     24327       861  TIP3      H2             33.0473142471      -27.4958378606       22.2459079244  TIP3      669             0.0000000000
     24328       862  TIP3      OH2            23.4372634452      -27.3587982268       34.6940791669  TIP3      670             0.0000000000
     24329       862  TIP3      H1             23.3464472100      -26.8819968512       35.5330337256  TIP3      670             0.0000000000
     24330       862  TIP3      H2             22.5152862159      -27.2159590825       34.3930068114  TIP3      670             0.0000000000
     24331       863  TIP3      OH2            30.3630883420      -21.2786511434       26.3521523757  TIP3      671             0.0000000000
     24332       863  TIP3      H1             30.7957533110      -20.9871855888       27.1690073343  TIP3      671             0.0000000000
     24333       863  TIP3      H2             29.7997285905      -20.5193484689       26.1571490405  TIP3      671             0.0000000000
     24334       864  TIP3      OH2            24.9110297801      -21.3685714589       36.2561278455  TIP3      672             0.0000000000
     24335       864  TIP3      H1             24.8381738296      -21.3642929579       35.2856120031  TIP3      672             0.0000000000
     24336       864  TIP3      H2             23.9763083831      -21.4322201418       36.5296482292  TIP3      672             0.0000000000
     24337       865  TIP3      OH2            24.3334223752      -27.4607094197       24.8089649535  TIP3      673             0.0000000000
     24338       865  TIP3      H1             24.0518481716      -26.7340367505       24.2460369785  TIP3      673             0.0000000000
     24339       865  TIP3      H2             23.7242161011      -28.1610630166       24.5444453008  TIP3      673             0.0000000000
     24340       866  TIP3      OH2            20.4749070992      -25.1019564902       33.6637210116  TIP3      674             0.0000000000
     24341       866  TIP3      H1             19.9852106562      -25.1575510639       32.8193180712  TIP3      674             0.0000000000
     24342       866  TIP3      H2             20.4842355305      -26.0537351174       33.8793120095  TIP3      674             0.0000000000
     24343       867  TIP3      OH2            20.2001647139      -22.3414116039       30.4332710024  TIP3      675             0.0000000000
     24344       867  TIP3      H1             21.1592215191      -22.4640707754       30.4168534866  TIP3      675             0.0000000000
     24345       867  TIP3      H2             20.1173752452      -21.5289501351       30.9479462756  TIP3      675             0.0000000000
     24346       868  TIP3      OH2            29.3855192184      -22.1124339430       34.9961074573  TIP3      676             0.0000000000
     24347       868  TIP3      H1             29.4518680728      -21.2741462700       35.5161732837  TIP3      676             0.0000000000
     24348       868  TIP3      H2             28.5227458293      -22.4671662269       35.2554831489  TIP3      676             0.0000000000
     24349       869  TIP3      OH2            29.8649190919      -18.3821932895       24.7794218001  TIP3      677             0.0000000000
     24350       869  TIP3      H1             29.7317674446      -18.3652351869       23.8319642077  TIP3      677             0.0000000000
     24351       869  TIP3      H2             29.8585451479      -17.4191770315       24.9817744995  TIP3      677             0.0000000000
     24352       870  TIP3      OH2            23.4571609918      -19.4698750827       26.6403504527  TIP3      678             0.0000000000
     24353       870  TIP3      H1             23.6313266782      -19.8829155087       27.5162544067  TIP3      678             0.0000000000
     24354       870  TIP3      H2             22.6194239832      -19.8908501738       26.4106925256  TIP3      678             0.0000000000
     24355       871  TIP3      OH2            32.5809227324      -19.1981785956       24.5976677845  TIP3      679             0.0000000000
     24356       871  TIP3      H1             31.6231014250      -19.1334583109       24.7569441882  TIP3      679             0.0000000000
     24357       871  TIP3      H2             32.8390846842      -19.9721983494       25.1080324116  TIP3      679             0.0000000000
     24358       872  TIP3      OH2            35.2271370017      -30.0780473920       36.6649147344  TIP3      680             0.0000000000
     24359       872  TIP3      H1             35.0901948056      -29.7006062084       35.7908204312  TIP3      680             0.0000000000
     24360       872  TIP3      H2             35.6605929702      -30.9284491690       36.4195510283  TIP3      680             0.0000000000
     24361       873  TIP3      OH2            22.7578526982      -23.8588301319       34.6036347511  TIP3      681             0.0000000000
     24362       873  TIP3      H1             22.8482121169      -24.0697686096       35.5536178726  TIP3      681             0.0000000000
     24363       873  TIP3      H2             21.8384299020      -24.1335071804       34.3894002848  TIP3      681             0.0000000000
     24364       874  TIP3      OH2            25.3631946035      -35.1279378170       30.6082355547  TIP3      682             0.0000000000
     24365       874  TIP3      H1             24.4931515025      -35.3276616201       30.2030201440  TIP3      682             0.0000000000
     24366       874  TIP3      H2             25.1773370633      -34.3233900652       31.0954364450  TIP3      682             0.0000000000
     24367       875  TIP3      OH2            30.0243335699      -35.6550693607       33.9192137101  TIP3      683             0.0000000000
     24368       875  TIP3      H1             30.4249043558      -35.9998424964       34.7191414726  TIP3      683             0.0000000000
     24369       875  TIP3      H2             29.0635453042      -35.7121493608       34.0919066497  TIP3      683             0.0000000000
     24370       876  TIP3      OH2            33.3050110771      -31.8177112057       34.7944138995  TIP3      684             0.0000000000
     24371       876  TIP3      H1             32.7681617703      -31.9665510634       35.6043585584  TIP3      684             0.0000000000
     24372       876  TIP3      H2             33.1671791669      -30.8693889990       34.5993962048  TIP3      684             0.0000000000
     24373       877  TIP3      OH2            25.5119747490      -30.3053909519       31.8410082793  TIP3      685             0.0000000000
     24374       877  TIP3      H1             24.7424176288      -30.3455365782       32.4380599809  TIP3      685             0.0000000000
     24375       877  TIP3      H2             25.4494995579      -29.4199743703       31.4212220820  TIP3      685             0.0000000000
     24376       878  TIP3      OH2            25.4750283686      -30.1990264491       26.6739995863  TIP3      686             0.0000000000
     24377       878  TIP3      H1             24.5390142323      -30.4430701005       26.5343002234  TIP3      686             0.0000000000
     24378       878  TIP3      H2             25.8571639211      -30.4875152989       25.8118892693  TIP3      686             0.0000000000
     24379       879  TIP3      OH2            31.0128387219      -29.7079227839       25.4249922697  TIP3      687             0.0000000000
     24380       879  TIP3      H1             30.5888527729      -28.9033502293       25.0719719308  TIP3      687             0.0000000000
     24381       879  TIP3      H2             31.6706189450      -29.8848102262       24.7341999494  TIP3      687             0.0000000000
     24382       880  TIP3      OH2            30.0421085238      -29.4858126217       36.8765536142  TIP3      688             0.0000000000
     24383       880  TIP3      H1             29.5370826766      -30.2771046036       37.1770590253  TIP3      688             0.0000000000
     24384       880  TIP3      H2             30.8815496990      -29.6026804534       37.3517555281  TIP3      688             0.0000000000
     24385       881  TIP3      OH2            32.0422794733      -30.1877880671       28.2734591367  TIP3      689             0.0000000000
     24386       881  TIP3      H1             31.7461773440      -29.6508748829       27.5183664556  TIP3      689             0.0000000000
     24387       881  TIP3      H2             32.1060180550      -31.0553289026       27.8332956333  TIP3      689             0.0000000000
     24388       882  TIP3      OH2            23.1281002562      -30.0774398480       33.4839624590  TIP3      690             0.0000000000
     24389       882  TIP3      H1             23.1922170803      -29.6852345379       34.3686704608  TIP3      690             0.0000000000
     24390       882  TIP3      H2             22.6760979514      -30.9200219098       33.6812833792  TIP3      690             0.0000000000
     24391       883  TIP3      OH2            26.5067988762      -32.7628791943       20.2877143545  TIP3      691             0.0000000000
     24392       883  TIP3      H1             26.1019844808      -33.0885012575       21.0939816546  TIP3      691             0.0000000000
     24393       883  TIP3      H2             25.8561163101      -32.2087087055       19.8557911403  TIP3      691             0.0000000000
     24394       884  TIP3      OH2            19.7935079720      -32.9213789505       27.4880659739  TIP3      692             0.0000000000
     24395       884  TIP3      H1             20.4756666226      -32.9851460769       28.1849875200  TIP3      692             0.0000000000
     24396       884  TIP3      H2             20.2107065604      -33.3162876277       26.7028540216  TIP3      692             0.0000000000
     24397       885  TIP3      OH2            31.2195760339      -28.6383496523       32.8270541343  TIP3      693             0.0000000000
     24398       885  TIP3      H1             31.6178662737      -29.3332110077       32.2573739630  TIP3      693             0.0000000000
     24399       885  TIP3      H2             30.7550950109      -29.1560631547       33.5098626229  TIP3      693             0.0000000000
     24400       886  TIP3      OH2            28.0158484983      -32.6452278748       27.6814764905  TIP3      694             0.0000000000
     24401       886  TIP3      H1             27.0828440736      -32.6943993740       27.9805169616  TIP3      694             0.0000000000
     24402       886  TIP3      H2             28.5039180186      -32.8067948271       28.4996083497  TIP3      694             0.0000000000
     24403       887  TIP3      OH2            22.7993459008      -31.1620595959       26.5859762039  TIP3      695             0.0000000000
     24404       887  TIP3      H1             21.9415310887      -30.9633672188       26.1498103315  TIP3      695             0.0000000000
     24405       887  TIP3      H2             23.1256609939      -31.9721900476       26.1445175313  TIP3      695             0.0000000000
     24406       888  TIP3      OH2            26.4453351727      -30.9775077358       24.2624560665  TIP3      696             0.0000000000
     24407       888  TIP3      H1             27.4137975157      -30.9863554697       24.2947041231  TIP3      696             0.0000000000
     24408       888  TIP3      H2             26.2605855557      -30.4346093987       23.4648022875  TIP3      696             0.0000000000
     24409       889  TIP3      OH2            32.3885744500      -33.4164102742       30.9027056057  TIP3      697             0.0000000000
     24410       889  TIP3      H1             31.7144308139      -33.3750304061       31.6070806725  TIP3      697             0.0000000000
     24411       889  TIP3      H2             31.8833025828      -33.6532616713       30.1091798247  TIP3      697             0.0000000000
     24412       890  TIP3      OH2            35.5907591803      -17.7683591907       37.2835932551  TIP3      698             0.0000000000
     24413       890  TIP3      H1             35.8956988935      -17.4265829433       36.4297591825  TIP3      698             0.0000000000
     24414       890  TIP3      H2             36.3236713576      -17.4673022064       37.8427281903  TIP3      698             0.0000000000
     24415       891  TIP3      OH2            23.3827486212      -25.3389695142       36.8032883472  TIP3      699             0.0000000000
     24416       891  TIP3      H1             24.0010819088      -25.0519015789       37.5038289546  TIP3      699             0.0000000000
     24417       891  TIP3      H2             22.5492579200      -25.2526055510       37.3485879424  TIP3      699             0.0000000000
     24418       892  TIP3      OH2            29.3230878257      -29.9199011159       29.5675966993  TIP3      700             0.0000000000
     24419       892  TIP3      H1             29.9194102741      -30.4778485563       29.0496961216  TIP3      700             0.0000000000
     24420       892  TIP3      H2             29.1575404064      -30.4493762467       30.3580898551  TIP3      700             0.0000000000
     24421       893  TIP3      OH2            24.3095930512      -33.7126576693       25.9328683126  TIP3      701             0.0000000000
     24422       893  TIP3      H1             24.0060671828      -34.6378934404       25.9889511021  TIP3      701             0.0000000000
     24423       893  TIP3      H2             25.1054084807      -33.8037193667       25.3923906333  TIP3      701             0.0000000000
     24424       894  TIP3      OH2            27.9341906657      -31.5813864218       31.9854712197  TIP3      702             0.0000000000
     24425       894  TIP3      H1             27.1176481347      -31.0432624718       32.0728313028  TIP3      702             0.0000000000
     24426       894  TIP3      H2             28.4999195060      -31.2212458995       32.6973421536  TIP3      702             0.0000000000
     24427       895  TIP3      OH2            35.5700156572      -26.0825538845       32.4907674447  TIP3      703             0.0000000000
     24428       895  TIP3      H1             36.2093268322      -25.9045468454       31.7729434043  TIP3      703             0.0000000000
     24429       895  TIP3      H2             34.7451124069      -26.1152697792       31.9692952989  TIP3      703             0.0000000000
     24430       896  TIP3      OH2            32.4130952949      -32.5014268016       21.8464093485  TIP3      704             0.0000000000
     24431       896  TIP3      H1             31.4654981754      -32.3658349197       21.6814674819  TIP3      704             0.0000000000
     24432       896  TIP3      H2             32.6047955745      -31.6215335520       22.2073610373  TIP3      704             0.0000000000
     24433       897  TIP3      OH2            29.9543600871      -25.0800293624       34.8979275373  TIP3      705             0.0000000000
     24434       897  TIP3      H1             29.7025525117      -25.4917385384       35.7310462731  TIP3      705             0.0000000000
     24435       897  TIP3      H2             29.8398737618      -24.1346371263       35.0474355460  TIP3      705             0.0000000000
     24436       898  TIP3      OH2            33.1128569064      -30.6236361154       23.5389741389  TIP3      706             0.0000000000
     24437       898  TIP3      H1             33.9996835658      -30.7152700654       23.9211957938  TIP3      706             0.0000000000
     24438       898  TIP3      H2             33.0952240779      -29.7967804390       23.0232016450  TIP3      706             0.0000000000
     24439       899  TIP3      OH2            23.6586344970      -25.9505223012       29.4968403869  TIP3      707             0.0000000000
     24440       899  TIP3      H1             24.3211702447      -26.0246200390       28.7840595848  TIP3      707             0.0000000000
     24441       899  TIP3      H2             23.6972533436      -26.8301717077       29.9051411345  TIP3      707             0.0000000000
     24442       900  TIP3      OH2            20.6286174001      -27.5395059679       34.7588486835  TIP3      708             0.0000000000
     24443       900  TIP3      H1             20.7622920732      -28.0205162053       35.5976148859  TIP3      708             0.0000000000
     24444       900  TIP3      H2             20.0059373803      -28.1386309624       34.2948624915  TIP3      708             0.0000000000
     24445       901  TIP3      OH2            27.6402899595      -27.9691617541       36.9021090481  TIP3      709             0.0000000000
     24446       901  TIP3      H1             27.3486272587      -28.3433611729       36.0591648962  TIP3      709             0.0000000000
     24447       901  TIP3      H2             28.5591718702      -28.3094743883       36.9406512613  TIP3      709             0.0000000000
     24448       902  TIP3      OH2            32.3044192455      -22.6666988859       34.8695198242  TIP3      710             0.0000000000
     24449       902  TIP3      H1             31.3850082970      -22.4675482389       34.6431840384  TIP3      710             0.0000000000
     24450       902  TIP3      H2             32.3127339979      -22.3655429633       35.7953704837  TIP3      710             0.0000000000
     24451       903  TIP3      OH2            36.2130931564      -21.6498609847       23.6963979235  TIP3      711             0.0000000000
     24452       903  TIP3      H1             35.8779588525      -22.4844080604       24.0077048929  TIP3      711             0.0000000000
     24453       903  TIP3      H2             36.5381184280      -21.8317757456       22.7991431494  TIP3      711             0.0000000000
     24454       904  TIP3      OH2            33.4324101219      -26.8556823399       30.7937970403  TIP3      712             0.0000000000
     24455       904  TIP3      H1             32.4919265534      -27.0644676269       30.6314089357  TIP3      712             0.0000000000
     24456       904  TIP3      H2             33.9035505895      -27.5814630307       30.3382263427  TIP3      712             0.0000000000
     24457       905  TIP3      OH2            25.9844709487      -22.4817910359       26.8949093667  TIP3      713             0.0000000000
     24458       905  TIP3      H1             26.5091908428      -21.6914698004       26.6844693993  TIP3      713             0.0000000000
     24459       905  TIP3      H2             25.1148273360      -22.2365647061       26.5712037490  TIP3      713             0.0000000000
     24460       906  TIP3      OH2            27.8750763390      -20.6384586433       32.8019599197  TIP3      714             0.0000000000
     24461       906  TIP3      H1             28.3489271848      -19.8416561217       32.5109696036  TIP3      714             0.0000000000
     24462       906  TIP3      H2             28.4921372535      -20.9868776673       33.4723384185  TIP3      714             0.0000000000
     24463       907  TIP3      OH2            26.1250733283      -19.8577836515       25.9947840438  TIP3      715             0.0000000000
     24464       907  TIP3      H1             25.1637969287      -19.6882137162       26.0386118136  TIP3      715             0.0000000000
     24465       907  TIP3      H2             26.4765216973      -18.9844114419       26.2600265762  TIP3      715             0.0000000000
     24466       908  TIP3      OH2            31.4072816332      -24.6564388282       32.4142614525  TIP3      716             0.0000000000
     24467       908  TIP3      H1             31.0740337556      -24.8454042541       33.3177192541  TIP3      716             0.0000000000
     24468       908  TIP3      H2             32.0421202837      -25.3714111153       32.2472537427  TIP3      716             0.0000000000
     24469       909  TIP3      OH2            33.7330395797      -23.7767123642       21.4786321982  TIP3      717             0.0000000000
     24470       909  TIP3      H1             34.0346494437      -24.0393378484       22.3638891722  TIP3      717             0.0000000000
     24471       909  TIP3      H2             32.7857073686      -23.6807734545       21.6015566270  TIP3      717             0.0000000000
     24472       910  TIP3      OH2            34.1862327298      -20.0419722399       34.8976351911  TIP3      718             0.0000000000
     24473       910  TIP3      H1             33.5211160241      -20.5638632723       34.4121005195  TIP3      718             0.0000000000
     24474       910  TIP3      H2             34.4140849449      -19.3671932437       34.2241678912  TIP3      718             0.0000000000
     24475       911  TIP3      OH2            22.2797562182      -32.8270726980       34.3244809979  TIP3      719             0.0000000000
     24476       911  TIP3      H1             21.3738534187      -32.4703931932       34.2744720732  TIP3      719             0.0000000000
     24477       911  TIP3      H2             22.1453239749      -33.7065303237       34.7276028040  TIP3      719             0.0000000000
     24478       912  TIP3      OH2            34.5031907481      -24.9888762787       23.7721614809  TIP3      720             0.0000000000
     24479       912  TIP3      H1             34.2925160237      -25.7724007964       24.3275116611  TIP3      720             0.0000000000
     24480       912  TIP3      H2             35.4520232395      -24.8892712486       23.9577872799  TIP3      720             0.0000000000
     24481       913  TIP3      OH2            21.8874743661      -21.0135012181       32.7107053803  TIP3      721             0.0000000000
     24482       913  TIP3      H1             22.1848673753      -21.9342160184       32.7141429256  TIP3      721             0.0000000000
     24483       913  TIP3      H2             22.1428503320      -20.7127329103       33.5900204179  TIP3      721             0.0000000000
     24484       914  TIP3      OH2            30.9954280434      -33.0788047792       33.2790191933  TIP3      722             0.0000000000
     24485       914  TIP3      H1             31.7524812160      -32.9774538555       33.8789397390  TIP3      722             0.0000000000
     24486       914  TIP3      H2             30.6560865837      -33.9732086353       33.4604725460  TIP3      722             0.0000000000
     24487       915  TIP3      OH2            31.8540488677      -33.4701515604       24.3494950335  TIP3      723             0.0000000000
     24488       915  TIP3      H1             31.9414806115      -32.9520156999       23.5251883735  TIP3      723             0.0000000000
     24489       915  TIP3      H2             32.3121897866      -32.9605738766       25.0200248413  TIP3      723             0.0000000000
     24490       916  TIP3      OH2            29.3928181475      -21.3071759695       23.1802674621  TIP3      724             0.0000000000
     24491       916  TIP3      H1             28.6298029417      -20.7285255152       23.1954105632  TIP3      724             0.0000000000
     24492       916  TIP3      H2             29.9701282620      -20.8811037954       22.5347645840  TIP3      724             0.0000000000
     24493       917  TIP3      OH2            28.9802857911      -31.7453578938       25.1927836604  TIP3      725             0.0000000000
     24494       917  TIP3      H1             29.7630874446      -31.1590307027       25.1741816434  TIP3      725             0.0000000000
     24495       917  TIP3      H2             28.7283109705      -31.8174716868       26.1275971694  TIP3      725             0.0000000000
     24496       918  TIP3      OH2            29.5515956407      -30.7044294048       34.3514970665  TIP3      726             0.0000000000
     24497       918  TIP3      H1             29.6434244970      -30.1341782209       35.1433280836  TIP3      726             0.0000000000
     24498       918  TIP3      H2             30.2149839519      -31.4035395490       34.4413366143  TIP3      726             0.0000000000
     24499       919  TIP3      OH2            29.8523287374      -34.6835357246       26.1063406666  TIP3      727             0.0000000000
     24500       919  TIP3      H1             29.5026910849      -33.9951915541       26.6985401351  TIP3      727             0.0000000000
     24501       919  TIP3      H2             30.4796392410      -34.1345644425       25.5794878225  TIP3      727             0.0000000000
     24502       920  TIP3      OH2            35.6937352949      -32.9322681647       35.1206265066  TIP3      728             0.0000000000
     24503       920  TIP3      H1             34.8018171627      -32.5142030490       35.0642590977  TIP3      728             0.0000000000
     24504       920  TIP3      H2             36.0136072711      -32.8311707544       34.2185749199  TIP3      728             0.0000000000
     24505       921  TIP3      OH2            34.3472457175      -29.0213696962       29.2557992492  TIP3      729             0.0000000000
     24506       921  TIP3      H1             33.5242026385      -29.4469205970       28.9334520789  TIP3      729             0.0000000000
     24507       921  TIP3      H2             34.7406665269      -29.7672788373       29.7380909059  TIP3      729             0.0000000000
     24508       922  TIP3      OH2            35.4466726170      -19.7681886679       30.8850217698  TIP3      730             0.0000000000
     24509       922  TIP3      H1             35.2742997641      -19.0807977329       30.2131232229  TIP3      730             0.0000000000
     24510       922  TIP3      H2             36.3862104778      -19.6744055640       31.0607866462  TIP3      730             0.0000000000
     24511       923  TIP3      OH2            22.6678077982      -35.5103835615       29.7047518048  TIP3      731             0.0000000000
     24512       923  TIP3      H1             22.7041801698      -35.6094572179       28.7299492914  TIP3      731             0.0000000000
     24513       923  TIP3      H2             22.5779017848      -36.4426656711       29.9420705905  TIP3      731             0.0000000000
     24514       924  TIP3      OH2            21.7797436861      -21.7591057070       25.7301571587  TIP3      732             0.0000000000
     24515       924  TIP3      H1             20.9700967700      -21.2338589002       25.8128180742  TIP3      732             0.0000000000
     24516       924  TIP3      H2             22.3782752103      -21.2376500765       25.1938700750  TIP3      732             0.0000000000
     24517       925  TIP3      OH2            21.0351290383      -19.0735975406       37.1165253912  TIP3      733             0.0000000000
     24518       925  TIP3      H1             21.6434968118      -19.2725704995       37.8594741945  TIP3      733             0.0000000000
     24519       925  TIP3      H2             20.6304829781      -19.9409236958       36.9454190855  TIP3      733             0.0000000000
     24520       926  TIP3      OH2            25.7322008959      -20.1948117382       38.7230291880  TIP3      734             0.0000000000
     24521       926  TIP3      H1             26.5069305858      -20.6674189012       39.0530398128  TIP3      734             0.0000000000
     24522       926  TIP3      H2             25.7158213184      -20.4556478928       37.7821962942  TIP3      734             0.0000000000
     24523       927  TIP3      OH2            32.2417109656      -21.7736210722       37.4676055490  TIP3      735             0.0000000000
     24524       927  TIP3      H1             31.9321444708      -22.6633385905       37.7348870479  TIP3      735             0.0000000000
     24525       927  TIP3      H2             33.0164021379      -21.6542812417       38.0454053985  TIP3      735             0.0000000000
     24526       928  TIP3      OH2            20.9943081196      -25.3199780784       38.0630241840  TIP3      736             0.0000000000
     24527       928  TIP3      H1             21.1000045266      -26.2511810929       37.7995707781  TIP3      736             0.0000000000
     24528       928  TIP3      H2             20.2161885830      -25.0543081658       37.5370339884  TIP3      736             0.0000000000
     24529       929  TIP3      OH2            27.6478939530      -25.3244585801       37.4695952309  TIP3      737             0.0000000000
     24530       929  TIP3      H1             27.3769236515      -24.9904958000       36.6027145041  TIP3      737             0.0000000000
     24531       929  TIP3      H2             27.7699965207      -26.3013619659       37.3632520057  TIP3      737             0.0000000000
     24532       930  TIP3      OH2            33.3379000359      -25.4989580764       34.8356525492  TIP3      738             0.0000000000
     24533       930  TIP3      H1             34.1304257040      -24.9055934777       34.8066963720  TIP3      738             0.0000000000
     24534       930  TIP3      H2             32.6726330454      -24.8053708089       34.9201602483  TIP3      738             0.0000000000
     24535       931  TIP3      OH2            21.9542463090      -28.0455818020       37.5105629995  TIP3      739             0.0000000000
     24536       931  TIP3      H1             22.2712475268      -28.9527130878       37.4109672087  TIP3      739             0.0000000000
     24537       931  TIP3      H2             21.6440677277      -28.0656921015       38.4403733814  TIP3      739             0.0000000000
     24538       932  TIP3      OH2            25.8029839127      -29.1225103342       34.8573121657  TIP3      740             0.0000000000
     24539       932  TIP3      H1             25.1439375100      -28.4643180078       35.1008828315  TIP3      740             0.0000000000
     24540       932  TIP3      H2             26.1848343540      -28.7999563190       34.0201449823  TIP3      740             0.0000000000
     24541       933  TIP3      OH2            30.8232759492      -26.5486075011       38.3035244238  TIP3      741             0.0000000000
     24542       933  TIP3      H1             31.7574160398      -26.5998185782       38.0422965647  TIP3      741             0.0000000000
     24543       933  TIP3      H2             30.6890228757      -27.3730609706       38.7949592373  TIP3      741             0.0000000000
     24544       934  TIP3      OH2            26.2017807848      -31.7616167671       35.8939019493  TIP3      742             0.0000000000
     24545       934  TIP3      H1             26.3055555782      -32.4755396821       35.2432273599  TIP3      742             0.0000000000
     24546       934  TIP3      H2             26.1481080090      -30.9641291960       35.3387134004  TIP3      742             0.0000000000
     24547       935  TIP3      OH2            26.5909184041      -33.3620413582       33.4381967486  TIP3      743             0.0000000000
     24548       935  TIP3      H1             27.0991468518      -32.8852446136       32.7365681602  TIP3      743             0.0000000000
     24549       935  TIP3      H2             25.6938874409      -33.4750720191       33.0395276387  TIP3      743             0.0000000000
     24550       936  TIP3      OH2            28.1023894731      -27.8750351508       33.6927262493  TIP3      744             0.0000000000
     24551       936  TIP3      H1             28.8756536428      -28.0732190796       33.1475665598  TIP3      744             0.0000000000
     24552       936  TIP3      H2             27.8074946287      -27.0303881440       33.3350635290  TIP3      744             0.0000000000
     24553       937  TIP3      OH2            32.5314868034      -30.1402184519       38.6798904951  TIP3      745             0.0000000000
     24554       937  TIP3      H1             32.7520996996      -31.0754675832       38.5543816626  TIP3      745             0.0000000000
     24555       937  TIP3      H2             33.4075356319      -29.7290599636       38.6426381643  TIP3      745             0.0000000000
     24556       938  TIP3      OH2            33.8121328491      -27.3193064246       36.8320076550  TIP3      746             0.0000000000
     24557       938  TIP3      H1             33.6036674549      -26.6007956606       36.2070825764  TIP3      746             0.0000000000
     24558       938  TIP3      H2             34.7741598611      -27.3791639766       36.6520636509  TIP3      746             0.0000000000
     24559       939  TIP3      OH2            24.6531636989      -30.5126610760       37.8312884857  TIP3      747             0.0000000000
     24560       939  TIP3      H1             23.8740557330      -31.0759399620       37.6469177820  TIP3      747             0.0000000000
     24561       939  TIP3      H2             25.2936028212      -30.8825658263       37.1941198445  TIP3      747             0.0000000000
     24562       940  TIP3      OH2            27.2927275189      -35.7897653690       34.0209575319  TIP3      748             0.0000000000
     24563       940  TIP3      H1             27.1961969333      -34.8306260545       33.7979860113  TIP3      748             0.0000000000
     24564       940  TIP3      H2             26.6383344718      -36.1792741715       33.4215077840  TIP3      748             0.0000000000
     24565       941  TIP3      OH2            28.6387450398      -31.6074679363       37.4859203181  TIP3      749             0.0000000000
     24566       941  TIP3      H1             28.3278779906      -31.9034031757       38.3608131789  TIP3      749             0.0000000000
     24567       941  TIP3      H2             27.8698993468      -31.8111891171       36.9222145849  TIP3      749             0.0000000000
     24568       942  TIP3      OH2            31.3458811241      -32.4113336166       36.5884613034  TIP3      750             0.0000000000
     24569       942  TIP3      H1             30.3782642284      -32.4256444465       36.7043903396  TIP3      750             0.0000000000
     24570       942  TIP3      H2             31.6455465116      -33.0818906298       37.2369558884  TIP3      750             0.0000000000
     24571       943  TIP3      OH2            33.0289746181      -33.7694357878       38.5159579760  TIP3      751             0.0000000000
     24572       943  TIP3      H1             32.8912230088      -34.7458553963       38.4740701945  TIP3      751             0.0000000000
     24573       943  TIP3      H2             32.6923789882      -33.5390870643       39.4076830426  TIP3      751             0.0000000000
     24574       944  TIP3      OH2            22.7243647220      -32.6094106761       37.5904546238  TIP3      752             0.0000000000
     24575       944  TIP3      H1             22.9955980101      -33.3315003455       37.0047980823  TIP3      752             0.0000000000
     24576       944  TIP3      H2             22.6588422729      -33.0567538424       38.4613961930  TIP3      752             0.0000000000
     24577       945  TIP3      OH2            27.5618993286       36.8446999770       36.5275271695  TIP3      753             0.0000000000
     24578       945  TIP3      H1             28.2494487468       36.1753890971       36.6031121578  TIP3      753             0.0000000000
     24579       945  TIP3      H2             27.5067244100       37.0845049231       35.5764537162  TIP3      753             0.0000000000
     24580       946  TIP3      OH2            27.9389510347      -34.9021149454       38.6139743831  TIP3      754             0.0000000000
     24581       946  TIP3      H1             27.7919051453      -35.4624077238       37.8215708440  TIP3      754             0.0000000000
     24582       946  TIP3      H2             27.3548260903      -34.1394723124       38.5143293940  TIP3      754             0.0000000000
     24583       947  TIP3      OH2            19.7654924966      -18.0429085861       26.2730886890  TIP3      755             0.0000000000
     24584       947  TIP3      H1             19.0481367196      -18.5284658469       25.8001941074  TIP3      755             0.0000000000
     24585       947  TIP3      H2             20.0299063596      -18.7048955625       26.9383223769  TIP3      755             0.0000000000
     24586       948  TIP3      OH2            20.5881171842      -19.9174796769       28.1488912710  TIP3      756             0.0000000000
     24587       948  TIP3      H1             20.2198001970      -20.7911308357       28.3494946247  TIP3      756             0.0000000000
     24588       948  TIP3      H2             20.8199142800      -19.5938838704       29.0403208354  TIP3      756             0.0000000000
     24589       949  TIP3      OH2            35.9299627163      -23.6749248590       38.5389458796  TIP3      757             0.0000000000
     24590       949  TIP3      H1             35.1824746755      -23.8575518755       39.1281238626  TIP3      757             0.0000000000
     24591       949  TIP3      H2             36.4735620815      -23.0830105929       39.0867743140  TIP3      757             0.0000000000
     24592       950  TIP3      OH2            36.1091445559      -21.8931142381       33.3161519021  TIP3      758             0.0000000000
     24593       950  TIP3      H1             35.4500431115      -21.4408503448       33.8617488091  TIP3      758             0.0000000000
     24594       950  TIP3      H2             35.5725123850      -22.2220792801       32.5634308787  TIP3      758             0.0000000000
     24595       951  TIP3      OH2            35.2472456199      -28.9096717527       26.5863974238  TIP3      759             0.0000000000
     24596       951  TIP3      H1             35.4202492255      -29.8492357049       26.6804296972  TIP3      759             0.0000000000
     24597       951  TIP3      H2             35.2328524364      -28.6357138358       27.5229580111  TIP3      759             0.0000000000
     24598       952  TIP3      OH2            20.6291792421      -26.8419099346       30.6324083384  TIP3      760             0.0000000000
     24599       952  TIP3      H1             20.8021984788      -26.9391866641       29.6741638722  TIP3      760             0.0000000000
     24600       952  TIP3      H2             21.5151757454      -27.0479167454       30.9859643188  TIP3      760             0.0000000000
     24601       953  TIP3      OH2           -37.0429593757      -26.9562919119       36.5278205001  TIP3      761             0.0000000000
     24602       953  TIP3      H1            -36.4428754009      -27.7175586976       36.5549648857  TIP3      761             0.0000000000
     24603       953  TIP3      H2            -36.4834784345      -26.2209047323       36.2256716550  TIP3      761             0.0000000000
     24604       954  TIP3      OH2            35.3084392082      -31.4574725257       24.8966447044  TIP3      762             0.0000000000
     24605       954  TIP3      H1             35.6661304747      -32.2364418873       25.3307033234  TIP3      762             0.0000000000
     24606       954  TIP3      H2             36.0783804078      -30.9697367111       24.6106821210  TIP3      762             0.0000000000
     24607       955  TIP3      OH2            35.5137397857      -31.3075620249       30.3773117848  TIP3      763             0.0000000000
     24608       955  TIP3      H1             36.4683811187      -31.2050633711       30.2441443913  TIP3      763             0.0000000000
     24609       955  TIP3      H2             35.5295906975      -30.8456813348       31.2409643880  TIP3      763             0.0000000000
     24610       956  TIP3      OH2            35.9844961689      -30.0773697265       33.3921786450  TIP3      764             0.0000000000
     24611       956  TIP3      H1             35.0839786401      -29.7758394747       33.5972334848  TIP3      764             0.0000000000
     24612       956  TIP3      H2             36.3917952731      -29.3059928564       32.9655416365  TIP3      764             0.0000000000
     24613       957  TIP3      OH2            20.2770632424      -31.5184906671       36.8005890667  TIP3      765             0.0000000000
     24614       957  TIP3      H1             21.1984394729      -31.7877651099       36.9769051421  TIP3      765             0.0000000000
     24615       957  TIP3      H2             19.7865038971      -32.3451832876       37.0268824889  TIP3      765             0.0000000000
     24616       958  TIP3      OH2            21.4211323116      -33.2312065387       29.6291908724  TIP3      766             0.0000000000
     24617       958  TIP3      H1             21.8812698935      -34.0580685679       29.8933252464  TIP3      766             0.0000000000
     24618       958  TIP3      H2             22.0035023808      -32.5793892680       30.0314162394  TIP3      766             0.0000000000
     24619       959  TIP3      OH2            19.7290939863      -30.2601909333       30.6688493613  TIP3      767             0.0000000000
     24620       959  TIP3      H1             20.3030154714      -30.5106227254       29.9156848663  TIP3      767             0.0000000000
     24621       959  TIP3      H2             20.1956231604      -29.4645307918       30.9628524030  TIP3      767             0.0000000000
     24622       960  TIP3      OH2            20.1423555594      -33.9717779719       24.7863776946  TIP3      768             0.0000000000
     24623       960  TIP3      H1             19.1736285779      -33.8728962577       24.6551021679  TIP3      768             0.0000000000
     24624       960  TIP3      H2             20.4895613585      -33.5371653747       24.0085440260  TIP3      768             0.0000000000
     24625       961  TIP3      OH2            34.7102566331      -19.1849976367       26.7626832426  TIP3      769             0.0000000000
     24626       961  TIP3      H1             35.3533816762      -19.5248206247       26.1312547207  TIP3      769             0.0000000000
     24627       961  TIP3      H2             35.2510969792      -18.6056694190       27.3296084133  TIP3      769             0.0000000000
     24628       962  TIP3      OH2            20.0464075905      -35.3130863991       33.0314703974  TIP3      770             0.0000000000
     24629       962  TIP3      H1             19.3945112549      -35.4950208286       33.7309650513  TIP3      770             0.0000000000
     24630       962  TIP3      H2             19.5726552742      -34.6696813536       32.4813296800  TIP3      770             0.0000000000
     24631       963  TIP3      OH2            22.2867473848      -22.1880893893       37.2083404104  TIP3      771             0.0000000000
     24632       963  TIP3      H1             21.4515864295      -21.9116539696       36.7917797335  TIP3      771             0.0000000000
     24633       963  TIP3      H2             22.0287584040      -22.1892473076       38.1422825771  TIP3      771             0.0000000000
     24634       964  TIP3      OH2            25.1932332664      -21.1477396281       33.4916507469  TIP3      772             0.0000000000
     24635       964  TIP3      H1             24.8628037721      -20.2734511570       33.2192002756  TIP3      772             0.0000000000
     24636       964  TIP3      H2             26.1168193732      -21.0382361060       33.1764374755  TIP3      772             0.0000000000
     24637       965  TIP3      OH2            29.5070144312      -19.7259778446       36.3875503989  TIP3      773             0.0000000000
     24638       965  TIP3      H1             29.6362952917      -20.0645710508       37.3064651149  TIP3      773             0.0000000000
     24639       965  TIP3      H2             30.4096483049      -19.4161468398       36.1628007974  TIP3      773             0.0000000000
     24640       966  TIP3      OH2            31.8185602484      -18.4411887467       35.7025515945  TIP3      774             0.0000000000
     24641       966  TIP3      H1             32.5612031821      -19.0210135648       35.4695838218  TIP3      774             0.0000000000
     24642       966  TIP3      H2             32.1805199446      -18.0032945307       36.5019889599  TIP3      774             0.0000000000
     24643       967  TIP3      OH2            22.6013572639      -17.9298835470       33.4779319852  TIP3      775             0.0000000000
     24644       967  TIP3      H1             21.8839549917      -17.4063884043       33.0867537960  TIP3      775             0.0000000000
     24645       967  TIP3      H2             22.2979612402      -18.0868448971       34.3819107699  TIP3      775             0.0000000000
     24646       968  TIP3      OH2            25.0799028186      -18.3236328342       32.5495452693  TIP3      776             0.0000000000
     24647       968  TIP3      H1             24.1896412135      -18.1565659501       32.9419157903  TIP3      776             0.0000000000
     24648       968  TIP3      H2             25.0330425903      -17.7379674049       31.7737394381  TIP3      776             0.0000000000
     24649       969  TIP3      OH2            29.7869665979      -18.4187766902       31.7318283817  TIP3      777             0.0000000000
     24650       969  TIP3      H1             29.3275486358      -17.8614080224       31.0811255030  TIP3      777             0.0000000000
     24651       969  TIP3      H2             29.9192448204      -17.7803631529       32.4652680883  TIP3      777             0.0000000000
     24652       970  TIP3      OH2            32.0877669041      -19.6150169509       32.7543175768  TIP3      778             0.0000000000
     24653       970  TIP3      H1             31.2300559015      -19.3412559907       32.3884722882  TIP3      778             0.0000000000
     24654       970  TIP3      H2             32.5427897667      -18.7597624722       32.6819782511  TIP3      778             0.0000000000
     24655       971  TIP3      OH2            34.6262062146      -17.9876391999       32.9860932853  TIP3      779             0.0000000000
     24656       971  TIP3      H1             34.5530037504      -17.0428372553       32.7489187355  TIP3      779             0.0000000000
     24657       971  TIP3      H2             34.8958317591      -18.3895384447       32.1388308364  TIP3      779             0.0000000000
     24658       972  TIP3      OH2            22.0794777886      -19.2525311650       30.4275913199  TIP3      780             0.0000000000
     24659       972  TIP3      H1             21.9920144467      -19.7141849899       31.2872207435  TIP3      780             0.0000000000
     24660       972  TIP3      H2             22.8916541937      -19.6374301094       30.0380738164  TIP3      780             0.0000000000
     24661       973  TIP3      OH2            24.1267864858      -20.5279884428       29.1024063765  TIP3      781             0.0000000000
     24662       973  TIP3      H1             23.9830122571      -21.4652313609       29.3231115890  TIP3      781             0.0000000000
     24663       973  TIP3      H2             25.0026273985      -20.3793422028       29.5208917018  TIP3      781             0.0000000000
     24664       974  TIP3      OH2            26.7184191874      -20.0709158439       29.9599420615  TIP3      782             0.0000000000
     24665       974  TIP3      H1             26.9007370142      -20.9868301287       29.6863159329  TIP3      782             0.0000000000
     24666       974  TIP3      H2             26.7980808859      -20.1260233289       30.9210296716  TIP3      782             0.0000000000
     24667       975  TIP3      OH2            30.1793110154      -34.3169297508       29.0539953954  TIP3      783             0.0000000000
     24668       975  TIP3      H1             29.5570109587      -35.0082205982       29.3690432720  TIP3      783             0.0000000000
     24669       975  TIP3      H2             30.8076294515      -34.8674460853       28.5664435413  TIP3      783             0.0000000000
     24670       976  TIP3      OH2            35.2274423772      -36.2557510707       29.2914481932  TIP3      784             0.0000000000
     24671       976  TIP3      H1             35.8866181181      -35.8463820099       28.7100062586  TIP3      784             0.0000000000
     24672       976  TIP3      H2             34.3874965619      -35.9779480341       28.9242153175  TIP3      784             0.0000000000
     24673       977  TIP3      OH2            22.6397371948      -35.7531674083       26.7323836665  TIP3      785             0.0000000000
     24674       977  TIP3      H1             21.7263791817      -36.0075081345       26.5022219021  TIP3      785             0.0000000000
     24675       977  TIP3      H2             22.9910550136      -36.6279244357       26.9641596689  TIP3      785             0.0000000000
     24676       978  TIP3      OH2            20.9764760655      -35.1200621072       22.2445262164  TIP3      786             0.0000000000
     24677       978  TIP3      H1             21.9342255282      -35.2564593112       22.1983969319  TIP3      786             0.0000000000
     24678       978  TIP3      H2             20.7159225363      -35.3362520244       23.1489320691  TIP3      786             0.0000000000
     24679       979  TIP3      OH2            27.3098823145      -35.4095241037       27.0871771592  TIP3      787             0.0000000000
     24680       979  TIP3      H1             28.2325730510      -35.4520994036       26.7682080133  TIP3      787             0.0000000000
     24681       979  TIP3      H2             27.2101868976      -36.1201773545       27.7227617580  TIP3      787             0.0000000000
     24682       980  TIP3      OH2            32.5657294192      -35.6144605681       28.4211582789  TIP3      788             0.0000000000
     24683       980  TIP3      H1             32.6863093649      -35.5706659257       27.4712135933  TIP3      788             0.0000000000
     24684       980  TIP3      H2             32.4660743233      -36.5877850457       28.5369130434  TIP3      788             0.0000000000
     24685       981  TIP3      OH2            28.0886563421      -33.8519437679       23.6316853696  TIP3      789             0.0000000000
     24686       981  TIP3      H1             28.4937123673      -34.3993289507       24.3069909228  TIP3      789             0.0000000000
     24687       981  TIP3      H2             28.2567166019      -32.9583398223       23.9978693387  TIP3      789             0.0000000000
     24688       982  TIP3      OH2            22.3835884683      -35.2498990002       36.3368025099  TIP3      790             0.0000000000
     24689       982  TIP3      H1             22.0508209079      -36.0259291596       36.7951175067  TIP3      790             0.0000000000
     24690       982  TIP3      H2             23.2967162954      -35.2616377358       36.7117105309  TIP3      790             0.0000000000
     24691       983  TIP3      OH2            24.2883286974      -35.6870177868       37.9422707966  TIP3      791             0.0000000000
     24692       983  TIP3      H1             25.2293589900      -35.9332404650       37.8377571533  TIP3      791             0.0000000000
     24693       983  TIP3      H2             24.0870933862      -36.5280993214       38.3913403562  TIP3      791             0.0000000000
     24694       984  TIP3      OH2            32.8525491994       37.1352596660       38.1330620967  TIP3      792             0.0000000000
     24695       984  TIP3      H1             32.8693181657       36.4952422748       38.8699049293  TIP3      792             0.0000000000
     24696       984  TIP3      H2             33.6961759688       36.8849483134       37.7284727525  TIP3      792             0.0000000000
     24697       985  TIP3      OH2            35.9673328430      -20.5653301884       36.9530862691  TIP3      793             0.0000000000
     24698       985  TIP3      H1             35.2920695658      -20.6963241413       36.2624888788  TIP3      793             0.0000000000
     24699       985  TIP3      H2             35.9067263838      -19.5846897960       37.0248025308  TIP3      793             0.0000000000
     24700       986  TIP3      OH2           -24.9380786675       -7.7942073565       26.8540861317  TIP3      794             0.0000000000
     24701       986  TIP3      H1            -24.8680130351       -6.8213620432       26.7355888476  TIP3      794             0.0000000000
     24702       986  TIP3      H2            -25.6193662443       -7.9834711212       26.2128143603  TIP3      794             0.0000000000
     24703       987  TIP3      OH2           -26.0564003360       -8.5344375427       30.2860357743  TIP3      795             0.0000000000
     24704       987  TIP3      H1            -26.0609639143       -9.1767383490       31.0093647510  TIP3      795             0.0000000000
     24705       987  TIP3      H2            -26.4095730544       -9.0501418883       29.5418674947  TIP3      795             0.0000000000
     24706       988  TIP3      OH2           -33.6573281415       -8.8638546988       31.8183917506  TIP3      796             0.0000000000
     24707       988  TIP3      H1            -33.6101437583       -9.5476210127       32.5230314036  TIP3      796             0.0000000000
     24708       988  TIP3      H2            -32.9292524941       -8.2818241766       32.0739483826  TIP3      796             0.0000000000
     24709       989  TIP3      OH2           -22.3757199858       -5.5878618665       28.5891164767  TIP3      797             0.0000000000
     24710       989  TIP3      H1            -22.7751683297       -6.3067476123       29.0875498522  TIP3      797             0.0000000000
     24711       989  TIP3      H2            -22.3377373735       -4.8748275467       29.2540304287  TIP3      797             0.0000000000
     24712       990  TIP3      OH2           -32.8153817480       -4.4048932945       30.3604048596  TIP3      798             0.0000000000
     24713       990  TIP3      H1            -33.1175013982       -5.2759432020       30.0404722728  TIP3      798             0.0000000000
     24714       990  TIP3      H2            -31.8564263625       -4.5857874209       30.3922423232  TIP3      798             0.0000000000
     24715       991  TIP3      OH2           -35.9273423269      -10.8293865776       25.5297206771  TIP3      799             0.0000000000
     24716       991  TIP3      H1            -36.4200163408      -10.0353106846       25.8442649189  TIP3      799             0.0000000000
     24717       991  TIP3      H2            -36.6753850644      -11.4000139041       25.4106310728  TIP3      799             0.0000000000
     24718       992  TIP3      OH2           -35.4469791504       -8.6771815189       27.9370532417  TIP3      800             0.0000000000
     24719       992  TIP3      H1            -35.1701125195       -9.4444193562       28.4597053326  TIP3      800             0.0000000000
     24720       992  TIP3      H2            -34.7064753388       -8.5358622472       27.3346725094  TIP3      800             0.0000000000
     24721       993  TIP3      OH2           -25.2323592257       -0.4202795357       28.8177426566  TIP3      801             0.0000000000
     24722       993  TIP3      H1            -24.5922425787       -1.1122184380       28.5240559877  TIP3      801             0.0000000000
     24723       993  TIP3      H2            -25.4601796245       -0.7651392989       29.6845099736  TIP3      801             0.0000000000
     24724       994  TIP3      OH2           -27.6757380752       -6.1372331302       30.7771711717  TIP3      802             0.0000000000
     24725       994  TIP3      H1            -27.3392022022       -6.7590762985       30.1133024920  TIP3      802             0.0000000000
     24726       994  TIP3      H2            -26.8614968387       -5.9762121889       31.2854627895  TIP3      802             0.0000000000
     24727       995  TIP3      OH2           -19.0790719587      -14.4044835010       31.5135329334  TIP3      803             0.0000000000
     24728       995  TIP3      H1            -18.6350554843      -13.9698374235       32.2562448654  TIP3      803             0.0000000000
     24729       995  TIP3      H2            -18.5034783454      -14.1033058402       30.7856156404  TIP3      803             0.0000000000
     24730       996  TIP3      OH2           -24.4774255021      -11.6675966334       31.0849539472  TIP3      804             0.0000000000
     24731       996  TIP3      H1            -24.3509844121      -12.6314982705       31.0822927990  TIP3      804             0.0000000000
     24732       996  TIP3      H2            -24.6288292057      -11.5171345037       30.1296376272  TIP3      804             0.0000000000
     24733       997  TIP3      OH2           -31.3848633911      -13.5820957702       28.2948763107  TIP3      805             0.0000000000
     24734       997  TIP3      H1            -31.2818848409      -12.7448376091       27.8043635347  TIP3      805             0.0000000000
     24735       997  TIP3      H2            -31.7847347724      -14.1482592006       27.5998263658  TIP3      805             0.0000000000
     24736       998  TIP3      OH2           -23.6446892444      -13.4867547825       26.6412410237  TIP3      806             0.0000000000
     24737       998  TIP3      H1            -23.0227486039      -13.8099410375       27.3422664581  TIP3      806             0.0000000000
     24738       998  TIP3      H2            -23.0554921989      -12.9117716292       26.1385697983  TIP3      806             0.0000000000
     24739       999  TIP3      OH2           -34.7492507934      -11.1921626949       28.9470848562  TIP3      807             0.0000000000
     24740       999  TIP3      H1            -34.0806496400      -11.6850866517       29.4657756568  TIP3      807             0.0000000000
     24741       999  TIP3      H2            -34.5855682201      -11.5269615459       28.0542873153  TIP3      807             0.0000000000
     24742      1000  TIP3      OH2           -29.6003698650       -9.6114479515       28.3468027953  TIP3      808             0.0000000000
     24743      1000  TIP3      H1            -28.9455366424      -10.1976365644       28.7625306207  TIP3      808             0.0000000000
     24744      1000  TIP3      H2            -30.1314077389      -10.2671085154       27.8549075606  TIP3      808             0.0000000000
     24745      1001  TIP3      OH2           -18.2969565714      -12.9687464961       33.9834720265  TIP3      809             0.0000000000
     24746      1001  TIP3      H1            -18.6917119657      -12.0782507126       33.9753553715  TIP3      809             0.0000000000
     24747      1001  TIP3      H2            -18.4685861903      -13.2421009353       34.9085422857  TIP3      809             0.0000000000
     24748      1002  TIP3      OH2           -32.4782125473      -14.6740255512       32.3350388911  TIP3      810             0.0000000000
     24749      1002  TIP3      H1            -32.7574748479      -14.1058263868       31.5863938504  TIP3      810             0.0000000000
     24750      1002  TIP3      H2            -33.1700499706      -14.4520247621       33.0084778847  TIP3      810             0.0000000000
     24751      1003  TIP3      OH2           -25.2005678406       -5.2163981957       25.8950193535  TIP3      811             0.0000000000
     24752      1003  TIP3      H1            -25.4161852038       -5.4329362612       24.9782623135  TIP3      811             0.0000000000
     24753      1003  TIP3      H2            -25.4873556377       -4.2785682585       25.9511297066  TIP3      811             0.0000000000
     24754      1004  TIP3      OH2           -29.9530062376       -7.0278381849       32.5734995123  TIP3      812             0.0000000000
     24755      1004  TIP3      H1            -30.6771889827       -6.4032298849       32.8037032961  TIP3      812             0.0000000000
     24756      1004  TIP3      H2            -29.2577801874       -6.4212271536       32.2818316012  TIP3      812             0.0000000000
     24757      1005  TIP3      OH2           -21.8475259119      -14.1132741250       28.6359886502  TIP3      813             0.0000000000
     24758      1005  TIP3      H1            -22.0715793835      -14.8955960760       29.1480419809  TIP3      813             0.0000000000
     24759      1005  TIP3      H2            -21.1772391711      -13.6979759947       29.1953689060  TIP3      813             0.0000000000
     24760      1006  TIP3      OH2           -32.9255247128      -12.8570165597       30.3656132553  TIP3      814             0.0000000000
     24761      1006  TIP3      H1            -32.3316717972      -12.1443744265       30.6958243930  TIP3      814             0.0000000000
     24762      1006  TIP3      H2            -32.3796270558      -13.2284021276       29.6255078902  TIP3      814             0.0000000000
     24763      1007  TIP3      OH2           -31.5358805325       -5.0357388493       33.3806723153  TIP3      815             0.0000000000
     24764      1007  TIP3      H1            -31.5881351861       -4.1150408067       33.0594083854  TIP3      815             0.0000000000
     24765      1007  TIP3      H2            -32.4162686741       -5.1158268616       33.8217226806  TIP3      815             0.0000000000
     24766      1008  TIP3      OH2           -35.5133946801       -5.3373155815       24.1716133343  TIP3      816             0.0000000000
     24767      1008  TIP3      H1            -35.6422296728       -5.0915265106       23.2537597223  TIP3      816             0.0000000000
     24768      1008  TIP3      H2            -35.3728725409       -4.5444576291       24.7212608218  TIP3      816             0.0000000000
     24769      1009  TIP3      OH2           -21.8354190328       -3.7453326589       30.9517387933  TIP3      817             0.0000000000
     24770      1009  TIP3      H1            -22.8035231756       -3.6344500979       31.0699367588  TIP3      817             0.0000000000
     24771      1009  TIP3      H2            -21.5674288211       -2.8300060283       30.7439568609  TIP3      817             0.0000000000
     24772      1010  TIP3      OH2           -21.4634398215      -15.1683690102       32.4900017224  TIP3      818             0.0000000000
     24773      1010  TIP3      H1            -22.3279549135      -14.8728013813       32.1568543249  TIP3      818             0.0000000000
     24774      1010  TIP3      H2            -20.8648670406      -15.1407283304       31.7082135227  TIP3      818             0.0000000000
     24775      1011  TIP3      OH2           -28.5464099693      -17.3393224767       29.7863827994  TIP3      819             0.0000000000
     24776      1011  TIP3      H1            -28.6835751846      -18.3072345746       29.7329545753  TIP3      819             0.0000000000
     24777      1011  TIP3      H2            -29.4157361935      -17.0407796145       30.1245848337  TIP3      819             0.0000000000
     24778      1012  TIP3      OH2           -23.5634406287       -1.9761849477       27.5409333084  TIP3      820             0.0000000000
     24779      1012  TIP3      H1            -23.1477581390       -2.6916859904       27.0205745287  TIP3      820             0.0000000000
     24780      1012  TIP3      H2            -23.1412400213       -1.1853425815       27.1350207095  TIP3      820             0.0000000000
     24781      1013  TIP3      OH2           -22.3138230704       -4.0301986092       26.0559338972  TIP3      821             0.0000000000
     24782      1013  TIP3      H1            -22.6675084129       -4.7082468573       25.4528015605  TIP3      821             0.0000000000
     24783      1013  TIP3      H2            -22.3251067931       -4.5418314956       26.8830448311  TIP3      821             0.0000000000
     24784      1014  TIP3      OH2           -20.7517742220       -5.4365440599       34.5472687894  TIP3      822             0.0000000000
     24785      1014  TIP3      H1            -20.5996786820       -6.0931730068       33.8340694649  TIP3      822             0.0000000000
     24786      1014  TIP3      H2            -20.5428058317       -4.5956877741       34.1005530715  TIP3      822             0.0000000000
     24787      1015  TIP3      OH2           -18.8854990674       -9.1561356719       32.5603532371  TIP3      823             0.0000000000
     24788      1015  TIP3      H1            -19.5024641304       -8.3956692848       32.6301390247  TIP3      823             0.0000000000
     24789      1015  TIP3      H2            -18.3583199982       -8.8654383845       31.7931488545  TIP3      823             0.0000000000
     24790      1016  TIP3      OH2           -22.8356591645       -8.4100911694       25.2253830830  TIP3      824             0.0000000000
     24791      1016  TIP3      H1            -23.4977187427       -8.0604404356       25.8495861775  TIP3      824             0.0000000000
     24792      1016  TIP3      H2            -22.2889857360       -8.9893878046       25.7666612441  TIP3      824             0.0000000000
     24793      1017  TIP3      OH2           -22.8866013680      -10.1625235626       34.3496090484  TIP3      825             0.0000000000
     24794      1017  TIP3      H1            -22.8807588968       -9.3452303980       34.8785388569  TIP3      825             0.0000000000
     24795      1017  TIP3      H2            -23.5347434850       -9.8740442331       33.6731641863  TIP3      825             0.0000000000
     24796      1018  TIP3      OH2           -31.1548305472       -7.6719481270       27.1603279242  TIP3      826             0.0000000000
     24797      1018  TIP3      H1            -31.5344069427       -8.0784158521       26.3447924309  TIP3      826             0.0000000000
     24798      1018  TIP3      H2            -30.5671293992       -8.3805076910       27.4948857757  TIP3      826             0.0000000000
     24799      1019  TIP3      OH2           -29.8700099506       -4.3042307139       29.8247413932  TIP3      827             0.0000000000
     24800      1019  TIP3      H1            -29.8693501975       -4.8193881607       29.0094573951  TIP3      827             0.0000000000
     24801      1019  TIP3      H2            -29.0880564147       -4.6570839456       30.2877110254  TIP3      827             0.0000000000
     24802      1020  TIP3      OH2           -30.8491505027       -8.9326259921       30.8152880129  TIP3      828             0.0000000000
     24803      1020  TIP3      H1            -30.3081956157       -8.8300100092       30.0088314446  TIP3      828             0.0000000000
     24804      1020  TIP3      H2            -30.4725342747       -8.2596694406       31.4248279528  TIP3      828             0.0000000000
     24805      1021  TIP3      OH2           -24.4336825442       -3.3589466517       31.5289131744  TIP3      829             0.0000000000
     24806      1021  TIP3      H1            -24.7359781399       -2.7166545218       32.1817534975  TIP3      829             0.0000000000
     24807      1021  TIP3      H2            -24.7008364027       -4.2126685416       31.9448910211  TIP3      829             0.0000000000
     24808      1022  TIP3      OH2           -29.9067351872       -4.5047322937       35.5068751487  TIP3      830             0.0000000000
     24809      1022  TIP3      H1            -30.3259250860       -3.7677856945       35.9994267045  TIP3      830             0.0000000000
     24810      1022  TIP3      H2            -30.5798008593       -4.7051701018       34.8115738237  TIP3      830             0.0000000000
     24811      1023  TIP3      OH2           -32.9216598738       -8.3282524865       34.7046292588  TIP3      831             0.0000000000
     24812      1023  TIP3      H1            -32.9057559190       -7.6335780455       35.3864143805  TIP3      831             0.0000000000
     24813      1023  TIP3      H2            -33.8592505540       -8.2718596905       34.4377375587  TIP3      831             0.0000000000
     24814      1024  TIP3      OH2           -26.2111983249       -2.4031988371       26.3397149302  TIP3      832             0.0000000000
     24815      1024  TIP3      H1            -25.7694459347       -2.1073424183       27.1487185970  TIP3      832             0.0000000000
     24816      1024  TIP3      H2            -26.7831363617       -1.6553028910       26.1405644558  TIP3      832             0.0000000000
     24817      1025  TIP3      OH2           -31.6549704204       -2.4821370165       36.2534375790  TIP3      833             0.0000000000
     24818      1025  TIP3      H1            -31.7503423263       -2.5633862642       35.2881093036  TIP3      833             0.0000000000
     24819      1025  TIP3      H2            -32.5887726611       -2.5935968191       36.5365659511  TIP3      833             0.0000000000
     24820      1026  TIP3      OH2           -32.1849161065       -8.6912439103       24.8047537100  TIP3      834             0.0000000000
     24821      1026  TIP3      H1            -32.4473240934       -7.9083418818       24.2570014587  TIP3      834             0.0000000000
     24822      1026  TIP3      H2            -32.8715517927       -9.2983633311       24.5370400037  TIP3      834             0.0000000000
     24823      1027  TIP3      OH2           -35.6967144689       -6.3167902059       33.4495458121  TIP3      835             0.0000000000
     24824      1027  TIP3      H1            -36.4194460559       -6.2708794598       32.7983046215  TIP3      835             0.0000000000
     24825      1027  TIP3      H2            -35.9648807972       -7.1634304770       33.8510405459  TIP3      835             0.0000000000
     24826      1028  TIP3      OH2           -36.2017869881       -3.3312592134       30.2492115459  TIP3      836             0.0000000000
     24827      1028  TIP3      H1            -35.3209519299       -3.6637041156       30.4581464544  TIP3      836             0.0000000000
     24828      1028  TIP3      H2            -36.3885195285       -2.7511685324       30.9940033233  TIP3      836             0.0000000000
     24829      1029  TIP3      OH2           -18.1433008162       -2.7874219652       36.0997664214  TIP3      837             0.0000000000
     24830      1029  TIP3      H1            -18.2522349827       -3.7485932214       36.1136178996  TIP3      837             0.0000000000
     24831      1029  TIP3      H2            -18.9935277182       -2.5398317122       36.5373299566  TIP3      837             0.0000000000
     24832      1030  TIP3      OH2           -27.1744206159       -3.2500968654       34.9989684295  TIP3      838             0.0000000000
     24833      1030  TIP3      H1            -27.1197171145       -2.4136907482       35.5199778539  TIP3      838             0.0000000000
     24834      1030  TIP3      H2            -28.0478830354       -3.6121753345       35.2433228035  TIP3      838             0.0000000000
     24835      1031  TIP3      OH2           -26.7175274433        0.4810294183       24.7974637963  TIP3      839             0.0000000000
     24836      1031  TIP3      H1            -26.8376319900        0.4006602543       23.8441435989  TIP3      839             0.0000000000
     24837      1031  TIP3      H2            -26.6988349678        1.4418391508       24.9641334397  TIP3      839             0.0000000000
     24838      1032  TIP3      OH2           -33.0823429918       -0.6372136400       26.6095666865  TIP3      840             0.0000000000
     24839      1032  TIP3      H1            -32.9218281843       -1.0396734376       27.4962300427  TIP3      840             0.0000000000
     24840      1032  TIP3      H2            -33.9317932533       -1.0361511252       26.3859783760  TIP3      840             0.0000000000
     24841      1033  TIP3      OH2           -23.9906255865       -0.2677002684       24.6672069484  TIP3      841             0.0000000000
     24842      1033  TIP3      H1            -24.9608135738       -0.3216891992       24.6970056978  TIP3      841             0.0000000000
     24843      1033  TIP3      H2            -23.7460273614       -1.1024499058       25.0852920602  TIP3      841             0.0000000000
     24844      1034  TIP3      OH2           -20.9560663535      -11.3212203208       36.5569417417  TIP3      842             0.0000000000
     24845      1034  TIP3      H1            -21.4910979641      -10.8648089585       35.8872005191  TIP3      842             0.0000000000
     24846      1034  TIP3      H2            -21.0346662052      -12.2521825207       36.3126863149  TIP3      842             0.0000000000
     24847      1035  TIP3      OH2           -33.8316280253       -4.8542909922       34.6302689402  TIP3      843             0.0000000000
     24848      1035  TIP3      H1            -33.6718260818       -5.2650758037       35.5041625950  TIP3      843             0.0000000000
     24849      1035  TIP3      H2            -34.6776309606       -5.2805142688       34.3519790701  TIP3      843             0.0000000000
     24850      1036  TIP3      OH2           -31.1493759494      -16.4199688920       30.5401923729  TIP3      844             0.0000000000
     24851      1036  TIP3      H1            -32.0513146868      -16.5521053232       30.1805004564  TIP3      844             0.0000000000
     24852      1036  TIP3      H2            -31.2970123365      -15.6036655479       31.0438997415  TIP3      844             0.0000000000
     24853      1037  TIP3      OH2           -26.5374378868      -16.7198039783       33.9336196030  TIP3      845             0.0000000000
     24854      1037  TIP3      H1            -26.1122712004      -17.2131637678       34.6652303335  TIP3      845             0.0000000000
     24855      1037  TIP3      H2            -27.4976489797      -16.8990997002       34.0655096197  TIP3      845             0.0000000000
     24856      1038  TIP3      OH2           -23.1973180045      -12.9029471679       34.8250573296  TIP3      846             0.0000000000
     24857      1038  TIP3      H1            -23.7906106007      -13.1465402269       35.5827621964  TIP3      846             0.0000000000
     24858      1038  TIP3      H2            -23.4483397985      -11.9908384612       34.5962449219  TIP3      846             0.0000000000
     24859      1039  TIP3      OH2           -26.8258705091      -14.2004832951       21.2739784952  TIP3      847             0.0000000000
     24860      1039  TIP3      H1            -27.1837627597      -14.2586792947       22.1758417437  TIP3      847             0.0000000000
     24861      1039  TIP3      H2            -27.1430864320      -15.0413003333       20.9165059432  TIP3      847             0.0000000000
     24862      1040  TIP3      OH2           -31.0545676110      -11.4632614519       31.8146092458  TIP3      848             0.0000000000
     24863      1040  TIP3      H1            -31.7940194086      -11.4769430950       32.4531739260  TIP3      848             0.0000000000
     24864      1040  TIP3      H2            -31.1242956824      -10.5541408905       31.4456614595  TIP3      848             0.0000000000
     24865      1041  TIP3      OH2           -31.0961195542      -11.3527559972       26.6744637871  TIP3      849             0.0000000000
     24866      1041  TIP3      H1            -32.0427721897      -11.5948996316       26.5369039627  TIP3      849             0.0000000000
     24867      1041  TIP3      H2            -30.7278535041      -11.6626700386       25.8255249227  TIP3      849             0.0000000000
     24868      1042  TIP3      OH2           -25.6407314232      -10.8648834641       25.3742254616  TIP3      850             0.0000000000
     24869      1042  TIP3      H1            -25.9682663062      -10.0029611178       25.1037291973  TIP3      850             0.0000000000
     24870      1042  TIP3      H2            -24.8726781993      -10.9952745857       24.8059722311  TIP3      850             0.0000000000
     24871      1043  TIP3      OH2           -26.5149146514      -10.6406237240       36.8617624110  TIP3      851             0.0000000000
     24872      1043  TIP3      H1            -27.0434198224      -11.4131761360       37.1771618578  TIP3      851             0.0000000000
     24873      1043  TIP3      H2            -25.6869980553      -10.7489870718       37.3575384378  TIP3      851             0.0000000000
     24874      1044  TIP3      OH2           -24.5362752628      -11.3500972978       28.2741316119  TIP3      852             0.0000000000
     24875      1044  TIP3      H1            -24.8174130665      -10.7836699403       27.5404875966  TIP3      852             0.0000000000
     24876      1044  TIP3      H2            -24.4516953103      -12.2148062031       27.8279060837  TIP3      852             0.0000000000
     24877      1045  TIP3      OH2           -33.4241539906      -11.2325957318       33.4890799364  TIP3      853             0.0000000000
     24878      1045  TIP3      H1            -33.3808875824      -10.8122173771       34.3637965378  TIP3      853             0.0000000000
     24879      1045  TIP3      H2            -33.8936285703      -12.0584485555       33.6887125050  TIP3      853             0.0000000000
     24880      1046  TIP3      OH2           -30.0710238032      -13.7621697150       20.3561594201  TIP3      854             0.0000000000
     24881      1046  TIP3      H1            -30.5081058221      -14.2662002863       21.0688430573  TIP3      854             0.0000000000
     24882      1046  TIP3      H2            -30.7973066326      -13.4177284749       19.8330609177  TIP3      854             0.0000000000
     24883      1047  TIP3      OH2           -36.4895991915      -13.8727863172       27.3390301450  TIP3      855             0.0000000000
     24884      1047  TIP3      H1            -36.0883939473      -14.1742064447       28.1797278330  TIP3      855             0.0000000000
     24885      1047  TIP3      H2            -36.2555688577      -14.5565804183       26.7094472027  TIP3      855             0.0000000000
     24886      1048  TIP3      OH2           -35.5326695520      -13.2665646550       22.7859127586  TIP3      856             0.0000000000
     24887      1048  TIP3      H1            -35.0101379639      -12.6988247853       22.2122391189  TIP3      856             0.0000000000
     24888      1048  TIP3      H2            -36.2254729509      -12.6768048368       23.0680195871  TIP3      856             0.0000000000
     24889      1049  TIP3      OH2           -25.3623279615       -9.7690670750       32.8354430998  TIP3      857             0.0000000000
     24890      1049  TIP3      H1            -24.9838067076      -10.4455506217       32.2365434141  TIP3      857             0.0000000000
     24891      1049  TIP3      H2            -25.8193573835      -10.3028961228       33.5095228123  TIP3      857             0.0000000000
     24892      1050  TIP3      OH2           -28.5545245701      -13.7881260464       27.6815159905  TIP3      858             0.0000000000
     24893      1050  TIP3      H1            -29.4926456075      -13.7884853463       27.9779914354  TIP3      858             0.0000000000
     24894      1050  TIP3      H2            -28.0685062815      -13.9681493746       28.5008032829  TIP3      858             0.0000000000
     24895      1051  TIP3      OH2           -33.6562476849      -12.2373447763       26.5054859073  TIP3      859             0.0000000000
     24896      1051  TIP3      H1            -34.5654879007      -12.0991209284       26.1742959624  TIP3      859             0.0000000000
     24897      1051  TIP3      H2            -33.4452988172      -13.1212079510       26.1438396205  TIP3      859             0.0000000000
     24898      1052  TIP3      OH2           -30.1481694754      -12.1684069082       24.2102432470  TIP3      860             0.0000000000
     24899      1052  TIP3      H1            -29.1820131810      -12.1405187437       24.3643933852  TIP3      860             0.0000000000
     24900      1052  TIP3      H2            -30.3112214134      -11.5097847473       23.5250534227  TIP3      860             0.0000000000
     24901      1053  TIP3      OH2           -24.1165088804      -14.5846932338       30.9273037942  TIP3      861             0.0000000000
     24902      1053  TIP3      H1            -24.8237018624      -14.5203979553       31.6108256705  TIP3      861             0.0000000000
     24903      1053  TIP3      H2            -24.6388005709      -14.8171698235       30.1386354276  TIP3      861             0.0000000000
     24904      1054  TIP3      OH2           -20.9503020757        1.0787633602       37.2610593963  TIP3      862             0.0000000000
     24905      1054  TIP3      H1            -20.6586313902        1.4528804525       36.4103503308  TIP3      862             0.0000000000
     24906      1054  TIP3      H2            -20.2345822501        1.3760048326       37.8510844785  TIP3      862             0.0000000000
     24907      1055  TIP3      OH2           -33.2310054320       -6.4581492057       36.8020979853  TIP3      863             0.0000000000
     24908      1055  TIP3      H1            -32.5476150212       -6.2071253337       37.4450549362  TIP3      863             0.0000000000
     24909      1055  TIP3      H2            -34.0217487609       -6.3538843260       37.3800957090  TIP3      863             0.0000000000
     24910      1056  TIP3      OH2           -27.2681806796      -11.0364686959       29.5533645288  TIP3      864             0.0000000000
     24911      1056  TIP3      H1            -26.6606448225      -11.5825317933       29.0452604977  TIP3      864             0.0000000000
     24912      1056  TIP3      H2            -27.4181537254      -11.5740812537       30.3460160985  TIP3      864             0.0000000000
     24913      1057  TIP3      OH2           -32.2632478842      -14.8723061422       25.9729896327  TIP3      865             0.0000000000
     24914      1057  TIP3      H1            -32.5750108174      -15.7964398952       25.9852453448  TIP3      865             0.0000000000
     24915      1057  TIP3      H2            -31.4525840704      -14.9791167456       25.4593937263  TIP3      865             0.0000000000
     24916      1058  TIP3      OH2           -28.6228707260      -12.7006476168       31.9720869951  TIP3      866             0.0000000000
     24917      1058  TIP3      H1            -29.4519451919      -12.1897343054       32.0707824464  TIP3      866             0.0000000000
     24918      1058  TIP3      H2            -28.0724660411      -12.3571494532       32.7025659924  TIP3      866             0.0000000000
     24919      1059  TIP3      OH2           -28.0090342342       -6.6385785947       23.7287555523  TIP3      867             0.0000000000
     24920      1059  TIP3      H1            -28.8726040201       -6.9023370836       23.4261652160  TIP3      867             0.0000000000
     24921      1059  TIP3      H2            -28.2194795613       -6.3193004681       24.6267593170  TIP3      867             0.0000000000
     24922      1060  TIP3      OH2           -20.8275909256       -7.3301073263       32.4793707370  TIP3      868             0.0000000000
     24923      1060  TIP3      H1            -20.2883272928       -6.8063929059       31.8578427145  TIP3      868             0.0000000000
     24924      1060  TIP3      H2            -21.6984124069       -7.2631637814       32.0363756045  TIP3      868             0.0000000000
     24925      1061  TIP3      OH2           -26.5456723006       -6.2206784225       34.9221366103  TIP3      869             0.0000000000
     24926      1061  TIP3      H1            -26.9000723093       -6.6471010944       35.7093237936  TIP3      869             0.0000000000
     24927      1061  TIP3      H2            -26.8025216512       -5.2976617845       35.0341810192  TIP3      869             0.0000000000
     24928      1062  TIP3      OH2           -32.8984976115       -7.0743939580       29.4771452037  TIP3      870             0.0000000000
     24929      1062  TIP3      H1            -32.2538556473       -7.1807907274       28.7586736928  TIP3      870             0.0000000000
     24930      1062  TIP3      H2            -32.8577134153       -7.9300204358       29.9389026776  TIP3      870             0.0000000000
     24931      1063  TIP3      OH2           -25.9675977283       -5.0385712301       22.8112271833  TIP3      871             0.0000000000
     24932      1063  TIP3      H1            -26.2576415644       -4.1492479201       23.0323527010  TIP3      871             0.0000000000
     24933      1063  TIP3      H2            -26.7177487887       -5.6268290277       22.9429727291  TIP3      871             0.0000000000
     24934      1064  TIP3      OH2           -35.6971421673       -8.9134837121       34.4828642466  TIP3      872             0.0000000000
     24935      1064  TIP3      H1            -35.6125670320       -9.1390809084       35.4215482861  TIP3      872             0.0000000000
     24936      1064  TIP3      H2            -36.5467053266       -9.3191738942       34.2621214748  TIP3      872             0.0000000000
     24937      1065  TIP3      OH2           -28.9277465722       -9.1307103083       36.9124586552  TIP3      873             0.0000000000
     24938      1065  TIP3      H1            -29.2475764871       -9.4460324433       36.0565713064  TIP3      873             0.0000000000
     24939      1065  TIP3      H2            -28.0026140637       -9.4511913983       36.9128968014  TIP3      873             0.0000000000
     24940      1066  TIP3      OH2           -24.2366962646       -3.7951662043       34.8806206662  TIP3      874             0.0000000000
     24941      1066  TIP3      H1            -25.1608303222       -3.6144818113       34.6442996613  TIP3      874             0.0000000000
     24942      1066  TIP3      H2            -24.2724655838       -3.5007461397       35.8106475683  TIP3      874             0.0000000000
     24943      1067  TIP3      OH2           -18.6156945043      -11.5733824842       23.3019886904  TIP3      875             0.0000000000
     24944      1067  TIP3      H1            -19.0955080698      -11.9303445901       22.5565283363  TIP3      875             0.0000000000
     24945      1067  TIP3      H2            -18.4256701617      -10.6638118075       22.9885079046  TIP3      875             0.0000000000
     24946      1068  TIP3      OH2           -18.5807653683       -5.7647821451       36.0622064954  TIP3      876             0.0000000000
     24947      1068  TIP3      H1            -19.4728480530       -5.5309095936       35.7049742941  TIP3      876             0.0000000000
     24948      1068  TIP3      H2            -18.0373019640       -5.7974038252       35.2485808653  TIP3      876             0.0000000000
     24949      1069  TIP3      OH2           -23.0753762381       -7.9664397804       30.7789199730  TIP3      877             0.0000000000
     24950      1069  TIP3      H1            -24.0157852030       -8.1757220259       30.6592190516  TIP3      877             0.0000000000
     24951      1069  TIP3      H2            -22.6481515764       -8.7145841384       30.3212661534  TIP3      877             0.0000000000
     24952      1070  TIP3      OH2           -30.5580123957       -3.6427734240       26.8598172956  TIP3      878             0.0000000000
     24953      1070  TIP3      H1            -30.0553995790       -2.8316493355       26.6689979931  TIP3      878             0.0000000000
     24954      1070  TIP3      H2            -31.4299529986       -3.4120657427       26.5217501389  TIP3      878             0.0000000000
     24955      1071  TIP3      OH2           -29.1305897561       -5.9680770165       26.3776961411  TIP3      879             0.0000000000
     24956      1071  TIP3      H1            -29.4498983082       -5.0483327365       26.4806318413  TIP3      879             0.0000000000
     24957      1071  TIP3      H2            -29.8495666732       -6.4580758124       26.8288931661  TIP3      879             0.0000000000
     24958      1072  TIP3      OH2           -28.6824536613       -1.7893650845       32.7952962204  TIP3      880             0.0000000000
     24959      1072  TIP3      H1            -28.2305530340       -0.9833818130       32.5049170704  TIP3      880             0.0000000000
     24960      1072  TIP3      H2            -28.0587269909       -2.1357455254       33.4573642781  TIP3      880             0.0000000000
     24961      1073  TIP3      OH2           -30.4579430148       -0.9890675956       25.9266447998  TIP3      881             0.0000000000
     24962      1073  TIP3      H1            -31.4118697342       -0.8411357141       26.0872185603  TIP3      881             0.0000000000
     24963      1073  TIP3      H2            -30.0859405831       -0.1545916869       26.2700774799  TIP3      881             0.0000000000
     24964      1074  TIP3      OH2           -25.1769567133       -5.7992786281       32.4127572837  TIP3      882             0.0000000000
     24965      1074  TIP3      H1            -25.4884386592       -5.9878282280       33.3235299827  TIP3      882             0.0000000000
     24966      1074  TIP3      H2            -24.5289067908       -6.5025018154       32.2452933549  TIP3      882             0.0000000000
     24967      1075  TIP3      OH2           -22.3373539949       -1.2133409126       34.9001461392  TIP3      883             0.0000000000
     24968      1075  TIP3      H1            -23.0379474763       -1.7014160835       34.4267350029  TIP3      883             0.0000000000
     24969      1075  TIP3      H2            -22.1620937480       -0.5109569734       34.2397742340  TIP3      883             0.0000000000
     24970      1076  TIP3      OH2           -34.2982194288      -13.9891507998       34.2231027285  TIP3      884             0.0000000000
     24971      1076  TIP3      H1            -35.1806324817      -13.5986152416       34.3045748463  TIP3      884             0.0000000000
     24972      1076  TIP3      H2            -34.3980262142      -14.8027368816       34.7483691418  TIP3      884             0.0000000000
     24973      1077  TIP3      OH2           -34.6256317899       -2.1396292147       32.6764405739  TIP3      885             0.0000000000
     24974      1077  TIP3      H1            -34.4050282729       -3.0829044908       32.7145931763  TIP3      885             0.0000000000
     24975      1077  TIP3      H2            -34.4403230253       -1.8931446756       33.5894200212  TIP3      885             0.0000000000
     24976      1078  TIP3      OH2           -33.2702550923       -6.8547803875       23.1233475802  TIP3      886             0.0000000000
     24977      1078  TIP3      H1            -34.1005236872       -6.4753507529       23.4470966249  TIP3      886             0.0000000000
     24978      1078  TIP3      H2            -32.9284682387       -6.1369843832       22.5441037514  TIP3      886             0.0000000000
     24979      1079  TIP3      OH2           -25.5093203515      -14.1796745131       33.2387038480  TIP3      887             0.0000000000
     24980      1079  TIP3      H1            -24.8487803588      -14.1196793819       33.9291473200  TIP3      887             0.0000000000
     24981      1079  TIP3      H2            -25.9320116501      -15.0376003364       33.4603302475  TIP3      887             0.0000000000
     24982      1080  TIP3      OH2           -24.7850056650      -14.5899286735       24.3116605689  TIP3      888             0.0000000000
     24983      1080  TIP3      H1            -24.6089239352      -14.0980991143       23.5174716166  TIP3      888             0.0000000000
     24984      1080  TIP3      H2            -24.2393974753      -14.1782440977       24.9992629039  TIP3      888             0.0000000000
     24985      1081  TIP3      OH2           -27.6207788548      -12.7956946719       25.1614031155  TIP3      889             0.0000000000
     24986      1081  TIP3      H1            -26.7886120631      -12.2910197249       25.2301698472  TIP3      889             0.0000000000
     24987      1081  TIP3      H2            -27.8547085984      -12.9914276081       26.0939128731  TIP3      889             0.0000000000
     24988      1082  TIP3      OH2           -27.0147100891      -11.8310024727       34.3545777411  TIP3      890             0.0000000000
     24989      1082  TIP3      H1            -26.9485232740      -11.2896662465       35.1632008883  TIP3      890             0.0000000000
     24990      1082  TIP3      H2            -26.3568898014      -12.5325730061       34.4468487040  TIP3      890             0.0000000000
     24991      1083  TIP3      OH2           -26.7548509843      -15.7537827049       26.0685934422  TIP3      891             0.0000000000
     24992      1083  TIP3      H1            -27.0744713242      -15.1233245146       26.7384305591  TIP3      891             0.0000000000
     24993      1083  TIP3      H2            -26.0421778349      -15.2463941044       25.6179267075  TIP3      891             0.0000000000
     24994      1084  TIP3      OH2           -29.8402721541       -1.4013634992       23.1940825912  TIP3      892             0.0000000000
     24995      1084  TIP3      H1            -29.5677843570       -0.6323130546       22.6504157055  TIP3      892             0.0000000000
     24996      1084  TIP3      H2            -29.9957818739       -1.0556702948       24.0863384634  TIP3      892             0.0000000000
     24997      1085  TIP3      OH2           -31.0129906815      -14.6602836672       22.7477709861  TIP3      893             0.0000000000
     24998      1085  TIP3      H1            -31.1125169804      -13.7877517904       23.1557184274  TIP3      893             0.0000000000
     24999      1085  TIP3      H2            -30.1319056366      -14.9533789920       23.0359266995  TIP3      893             0.0000000000
     25000      1086  TIP3      OH2           -20.8268441459      -13.9183427513       35.1902985880  TIP3      894             0.0000000000
     25001      1086  TIP3      H1            -21.7886870098      -13.6738042874       35.1237561039  TIP3      894             0.0000000000
     25002      1086  TIP3      H2            -20.6327906577      -14.2171361503       34.3095155661  TIP3      894             0.0000000000
     25003      1087  TIP3      OH2           -22.2371564953      -10.1782440556       29.2637870739  TIP3      895             0.0000000000
     25004      1087  TIP3      H1            -23.0461481202      -10.6121709631       28.9231487634  TIP3      895             0.0000000000
     25005      1087  TIP3      H2            -21.7561986890      -10.8954604932       29.7118758738  TIP3      895             0.0000000000
     25006      1088  TIP3      OH2           -21.1725264523       -0.9142711510       30.8703222526  TIP3      896             0.0000000000
     25007      1088  TIP3      H1            -21.2567311228       -0.2306087271       30.1759880840  TIP3      896             0.0000000000
     25008      1088  TIP3      H2            -20.2088818733       -0.8677234976       31.0490542655  TIP3      896             0.0000000000
     25009      1089  TIP3      OH2           -33.7041077692      -16.7899997841       29.6690764718  TIP3      897             0.0000000000
     25010      1089  TIP3      H1            -33.8709208448      -16.7953708683       28.6972105788  TIP3      897             0.0000000000
     25011      1089  TIP3      H2            -34.0976065625      -17.6521259842       29.9342034345  TIP3      897             0.0000000000
     25012      1090  TIP3      OH2           -34.7424924664       -2.8632572863       25.8279478017  TIP3      898             0.0000000000
     25013      1090  TIP3      H1            -35.5874346802       -2.4115035776       25.8265454616  TIP3      898             0.0000000000
     25014      1090  TIP3      H2            -34.1840046438       -2.3863884438       25.2068799278  TIP3      898             0.0000000000
     25015      1091  TIP3      OH2           -35.3188879802       -0.2292856117       37.0641676611  TIP3      899             0.0000000000
     25016      1091  TIP3      H1            -34.8719171518       -0.4434718242       37.8951353588  TIP3      899             0.0000000000
     25017      1091  TIP3      H2            -35.8814876536       -1.0274096880       36.9601191056  TIP3      899             0.0000000000
     25018      1092  TIP3      OH2           -30.8360277089       -1.3848578478       38.7791882506  TIP3      900             0.0000000000
     25019      1092  TIP3      H1            -30.0036526205       -1.8148189551       39.0032501708  TIP3      900             0.0000000000
     25020      1092  TIP3      H2            -30.8823111217       -1.5817208840       37.8132372197  TIP3      900             0.0000000000
     25021      1093  TIP3      OH2           -24.3665528309       -2.9122600306       37.4651848252  TIP3      901             0.0000000000
     25022      1093  TIP3      H1            -24.6585381397       -3.8086125777       37.7315800102  TIP3      901             0.0000000000
     25023      1093  TIP3      H2            -23.5688783229       -2.7965562169       38.0229146309  TIP3      901             0.0000000000
     25024      1094  TIP3      OH2           -35.4542677407       -6.4661631246       38.0842402981  TIP3      902             0.0000000000
     25025      1094  TIP3      H1            -35.4271193434       -7.3998524297       37.8111826768  TIP3      902             0.0000000000
     25026      1094  TIP3      H2            -36.2932206535       -6.1601106170       37.6743586679  TIP3      902             0.0000000000
     25027      1095  TIP3      OH2           -28.8849879845       -6.4780055295       37.4645880784  TIP3      903             0.0000000000
     25028      1095  TIP3      H1            -29.2327626168       -6.1541494127       36.6140835676  TIP3      903             0.0000000000
     25029      1095  TIP3      H2            -28.8208499735       -7.4574159441       37.3481742587  TIP3      903             0.0000000000
     25030      1096  TIP3      OH2           -23.2026599722       -6.6027462940       34.8881504328  TIP3      904             0.0000000000
     25031      1096  TIP3      H1            -22.4089671122       -6.0274966637       34.8295946252  TIP3      904             0.0000000000
     25032      1096  TIP3      H2            -23.8937926629       -5.9234042657       34.9342945017  TIP3      904             0.0000000000
     25033      1097  TIP3      OH2           -34.7592313069       -9.2470787784       37.4843704704  TIP3      905             0.0000000000
     25034      1097  TIP3      H1            -34.2558745853      -10.0789539074       37.4058077422  TIP3      905             0.0000000000
     25035      1097  TIP3      H2            -34.8683951595       -9.2014101015       38.4515115469  TIP3      905             0.0000000000
     25036      1098  TIP3      OH2           -30.7969275526      -10.2817918389       34.8490684189  TIP3      906             0.0000000000
     25037      1098  TIP3      H1            -31.4147147841       -9.5717626021       35.1020903334  TIP3      906             0.0000000000
     25038      1098  TIP3      H2            -30.3967833232       -9.9140599435       34.0404459394  TIP3      906             0.0000000000
     25039      1099  TIP3      OH2           -25.7151021180       -7.7066854344       38.2673703505  TIP3      907             0.0000000000
     25040      1099  TIP3      H1            -24.7718488599       -7.7476359761       38.0504841823  TIP3      907             0.0000000000
     25041      1099  TIP3      H2            -25.8798499721       -8.5028352388       38.7949926493  TIP3      907             0.0000000000
     25042      1100  TIP3      OH2           -30.3431957266      -12.8943468982       35.8817242830  TIP3      908             0.0000000000
     25043      1100  TIP3      H1            -30.2649567593      -13.6100158954       35.2250394278  TIP3      908             0.0000000000
     25044      1100  TIP3      H2            -30.4590872695      -12.0856675734       35.3490236431  TIP3      908             0.0000000000
     25045      1101  TIP3      OH2           -29.9767183750      -14.5240408727       33.4537473576  TIP3      909             0.0000000000
     25046      1101  TIP3      H1            -29.4726557000      -14.0594651839       32.7447723096  TIP3      909             0.0000000000
     25047      1101  TIP3      H2            -30.8731011406      -14.6010442305       33.0528470428  TIP3      909             0.0000000000
     25048      1102  TIP3      OH2           -28.4479510995       -9.0330276906       33.6965737484  TIP3      910             0.0000000000
     25049      1102  TIP3      H1            -27.6919205502       -9.1989027283       33.1236553484  TIP3      910             0.0000000000
     25050      1102  TIP3      H2            -28.8092305465       -8.1977554560       33.3562544747  TIP3      910             0.0000000000
     25051      1103  TIP3      OH2           -24.0416854944      -11.2984245838       38.6478083556  TIP3      911             0.0000000000
     25052      1103  TIP3      H1            -23.8237332990      -12.2376890076       38.5553602892  TIP3      911             0.0000000000
     25053      1103  TIP3      H2            -23.1696011483      -10.8711207741       38.6462199915  TIP3      911             0.0000000000
     25054      1104  TIP3      OH2           -22.6867499567       -8.4627305972       36.8560974723  TIP3      912             0.0000000000
     25055      1104  TIP3      H1            -22.9549263111       -7.7653783227       36.2174370122  TIP3      912             0.0000000000
     25056      1104  TIP3      H2            -21.7389978836       -8.5196788442       36.6227336268  TIP3      912             0.0000000000
     25057      1105  TIP3      OH2           -31.9371330691      -11.6485940352       37.8315057188  TIP3      913             0.0000000000
     25058      1105  TIP3      H1            -32.7155996709      -12.2255125315       37.6502641978  TIP3      913             0.0000000000
     25059      1105  TIP3      H2            -31.2988974002      -12.0102979314       37.1878726367  TIP3      913             0.0000000000
     25060      1106  TIP3      OH2           -29.1987981442      -17.0997961403       33.8575602767  TIP3      914             0.0000000000
     25061      1106  TIP3      H1            -29.3478792454      -16.1334781679       33.7497771624  TIP3      914             0.0000000000
     25062      1106  TIP3      H2            -29.9407709905      -17.4562230764       33.3387213567  TIP3      914             0.0000000000
     25063      1107  TIP3      OH2           -27.9134062652      -12.7554975869       37.4910525110  TIP3      915             0.0000000000
     25064      1107  TIP3      H1            -28.2461828772      -12.9820702438       38.3795341591  TIP3      915             0.0000000000
     25065      1107  TIP3      H2            -28.6889928106      -12.9478765075       36.9258967370  TIP3      915             0.0000000000
     25066      1108  TIP3      OH2           -25.1971370797      -13.6250466852       36.5349779837  TIP3      916             0.0000000000
     25067      1108  TIP3      H1            -26.1578162321      -13.5589156170       36.6760934057  TIP3      916             0.0000000000
     25068      1108  TIP3      H2            -24.9240785032      -14.2490317346       37.2349331930  TIP3      916             0.0000000000
     25069      1109  TIP3      OH2           -23.6550625426      -14.9878726691       38.4599664580  TIP3      917             0.0000000000
     25070      1109  TIP3      H1            -23.6717169729      -15.9654884856       38.4954678672  TIP3      917             0.0000000000
     25071      1109  TIP3      H2            -23.8809046643      -14.6987261286       39.3757432418  TIP3      917             0.0000000000
     25072      1110  TIP3      OH2           -33.7624721293      -13.7210821800       37.5837212607  TIP3      918             0.0000000000
     25073      1110  TIP3      H1            -33.5840503156      -14.4680362086       36.9857011122  TIP3      918             0.0000000000
     25074      1110  TIP3      H2            -33.9170051241      -14.1677138463       38.4461975585  TIP3      918             0.0000000000
     25075      1111  TIP3      OH2           -28.9977008003      -17.7009682151       36.5585474710  TIP3      919             0.0000000000
     25076      1111  TIP3      H1            -28.3149713645      -18.4078923298       36.5473172317  TIP3      919             0.0000000000
     25077      1111  TIP3      H2            -29.0861952514      -17.5468515757       35.5969141972  TIP3      919             0.0000000000
     25078      1112  TIP3      OH2           -28.6325102805      -16.0943485343       38.6489196349  TIP3      920             0.0000000000
     25079      1112  TIP3      H1            -28.7935603721      -16.5934951659       37.8118628248  TIP3      920             0.0000000000
     25080      1112  TIP3      H2            -29.2010717410      -15.3083928149       38.5379028657  TIP3      920             0.0000000000
     25081      1113  TIP3      OH2           -29.1093570459        0.8147239730       21.8294250089  TIP3      921             0.0000000000
     25082      1113  TIP3      H1            -28.1576914387        0.9241328304       21.8549992067  TIP3      921             0.0000000000
     25083      1113  TIP3      H2            -29.3863935488        1.4431793389       21.1552998359  TIP3      921             0.0000000000
     25084      1114  TIP3      OH2            36.8905445660        0.8471821513       26.1469708485  TIP3      922             0.0000000000
     25085      1114  TIP3      H1             36.0001474499        0.6587324426       25.8039676322  TIP3      922             0.0000000000
     25086      1114  TIP3      H2             36.9880443691        0.2271767526       26.9076963834  TIP3      922             0.0000000000
     25087      1115  TIP3      OH2           -36.0388219080       -1.0432513386       28.0990366932  TIP3      923             0.0000000000
     25088      1115  TIP3      H1            -36.3339852487       -1.9431363434       28.3490123823  TIP3      923             0.0000000000
     25089      1115  TIP3      H2            -35.7513547180       -0.7329004843       28.9819027969  TIP3      923             0.0000000000
     25090      1116  TIP3      OH2           -18.4513455799       -0.2749161998       31.0716754252  TIP3      924             0.0000000000
     25091      1116  TIP3      H1            -18.4195809332       -0.1169351683       32.0311424818  TIP3      924             0.0000000000
     25092      1116  TIP3      H2            -17.7471141554        0.3082005103       30.7703756103  TIP3      924             0.0000000000
     25093      1117  TIP3      OH2           -18.8757984477       -0.6799682230       34.0326835261  TIP3      925             0.0000000000
     25094      1117  TIP3      H1            -19.3470350048       -1.4450022477       33.6393660912  TIP3      925             0.0000000000
     25095      1117  TIP3      H2            -18.3866850535       -1.1428107907       34.7365233252  TIP3      925             0.0000000000
     25096      1118  TIP3      OH2           -20.4249534329       -4.9692187022       38.6936712295  TIP3      926             0.0000000000
     25097      1118  TIP3      H1            -21.3260337793       -4.9814163477       39.0713850797  TIP3      926             0.0000000000
     25098      1118  TIP3      H2            -20.0648033921       -4.1520396619       39.1067441531  TIP3      926             0.0000000000
     25099      1119  TIP3      OH2           -18.9959910192       -6.6690468034       24.1052453629  TIP3      927             0.0000000000
     25100      1119  TIP3      H1            -18.1862921800       -6.2928993702       24.4208260767  TIP3      927             0.0000000000
     25101      1119  TIP3      H2            -19.1802951170       -7.3416004970       24.8015072885  TIP3      927             0.0000000000
     25102      1120  TIP3      OH2           -18.7204232597       -8.5813844465       26.0110994713  TIP3      928             0.0000000000
     25103      1120  TIP3      H1            -19.5169148580       -9.0333755950       26.3752325820  TIP3      928             0.0000000000
     25104      1120  TIP3      H2            -18.1609741711       -8.4401074704       26.7964489100  TIP3      928             0.0000000000
     25105      1121  TIP3      OH2           -19.0015894996       -5.8432484918       30.9792951719  TIP3      929             0.0000000000
     25106      1121  TIP3      H1            -18.1884385820       -6.2307509748       30.6100239060  TIP3      929             0.0000000000
     25107      1121  TIP3      H2            -18.8471737277       -4.8895370910       30.8159408328  TIP3      929             0.0000000000
     25108      1122  TIP3      OH2           -20.4418748267       -2.9556902940       33.2650441550  TIP3      930             0.0000000000
     25109      1122  TIP3      H1            -21.1327258769       -2.6101578544       33.8494963088  TIP3      930             0.0000000000
     25110      1122  TIP3      H2            -20.9883592828       -3.3527981104       32.5521349909  TIP3      930             0.0000000000
     25111      1123  TIP3      OH2           -18.3650012253       -8.6693552541       22.3830237117  TIP3      931             0.0000000000
     25112      1123  TIP3      H1            -19.0232295570       -8.3797630018       21.7340538683  TIP3      931             0.0000000000
     25113      1123  TIP3      H2            -18.5860504517       -8.0537614279       23.1044828145  TIP3      931             0.0000000000
     25114      1124  TIP3      OH2           -20.9468379839      -10.0928571809       26.5735500839  TIP3      932             0.0000000000
     25115      1124  TIP3      H1            -21.1223753955      -11.0388803045       26.5446357349  TIP3      932             0.0000000000
     25116      1124  TIP3      H2            -21.2513164307       -9.8533912145       27.4711527314  TIP3      932             0.0000000000
     25117      1125  TIP3      OH2           -35.9596378685       -8.0164066085       30.6222388219  TIP3      933             0.0000000000
     25118      1125  TIP3      H1            -35.7641331107       -8.0509959578       29.6576412933  TIP3      933             0.0000000000
     25119      1125  TIP3      H2            -35.0662564411       -8.1465577477       31.0047494255  TIP3      933             0.0000000000
     25120      1126  TIP3      OH2           -20.0690194068       -8.1178945632       36.2793438149  TIP3      934             0.0000000000
     25121      1126  TIP3      H1            -19.4447179596       -8.8664760938       36.4024965492  TIP3      934             0.0000000000
     25122      1126  TIP3      H2            -19.4766165864       -7.3409487408       36.2565838827  TIP3      934             0.0000000000
     25123      1127  TIP3      OH2           -18.5748709357      -10.2298273514       36.8848938732  TIP3      935             0.0000000000
     25124      1127  TIP3      H1            -19.4619415135      -10.6349796328       36.7788910570  TIP3      935             0.0000000000
     25125      1127  TIP3      H2            -17.9971812644      -11.0099261495       36.8677002257  TIP3      935             0.0000000000
     25126      1128  TIP3      OH2           -21.2740324811      -12.5716185073       25.0106997038  TIP3      936             0.0000000000
     25127      1128  TIP3      H1            -20.9170309575      -13.4371868338       25.2337183292  TIP3      936             0.0000000000
     25128      1128  TIP3      H2            -20.5001815372      -12.0642957103       24.7087363957  TIP3      936             0.0000000000
     25129      1129  TIP3      OH2           -20.5970176243      -12.0362826715       30.5495246434  TIP3      937             0.0000000000
     25130      1129  TIP3      H1            -19.6734556601      -11.6863942151       30.4428454118  TIP3      937             0.0000000000
     25131      1129  TIP3      H2            -20.8739413663      -11.6454915187       31.3802437574  TIP3      937             0.0000000000
     25132      1130  TIP3      OH2           -20.6398756651      -11.0952640962       33.2944823518  TIP3      938             0.0000000000
     25133      1130  TIP3      H1            -21.5279953657      -10.7845338553       33.6133335399  TIP3      938             0.0000000000
     25134      1130  TIP3      H2            -20.1800241022      -10.2409747023       33.0726512691  TIP3      938             0.0000000000
     25135      1131  TIP3      OH2           -36.1095329003      -12.7676323041       36.8049460825  TIP3      939             0.0000000000
     25136      1131  TIP3      H1            -35.2040683844      -13.0078072776       37.0612058193  TIP3      939             0.0000000000
     25137      1131  TIP3      H2            -36.6824921584      -13.4876651974       37.1509542018  TIP3      939             0.0000000000
     25138      1132  TIP3      OH2           -18.2909447942      -17.1644845233       38.5981231922  TIP3      940             0.0000000000
     25139      1132  TIP3      H1            -17.9373460149      -17.8432561206       38.0013259470  TIP3      940             0.0000000000
     25140      1132  TIP3      H2            -18.1875031521      -16.3560151269       38.0677978602  TIP3      940             0.0000000000
     25141      1133  TIP3      OH2           -35.1731638905      -14.4585144736       29.6776728810  TIP3      941             0.0000000000
     25142      1133  TIP3      H1            -34.6275920494      -15.2432608044       29.9000843974  TIP3      941             0.0000000000
     25143      1133  TIP3      H2            -34.6122985571      -13.7476278425       30.0369111337  TIP3      941             0.0000000000
     25144      1134  TIP3      OH2           -36.1167570548      -10.8912627526       31.0938710318  TIP3      942             0.0000000000
     25145      1134  TIP3      H1            -36.0335458692      -11.2393842072       30.1865777954  TIP3      942             0.0000000000
     25146      1134  TIP3      H2            -36.3328288551       -9.9873983106       30.8513056881  TIP3      942             0.0000000000
     25147      1135  TIP3      OH2           -18.7652889493      -15.0431693364       36.9360264597  TIP3      943             0.0000000000
     25148      1135  TIP3      H1            -19.7152809191      -14.8105320750       36.9515852046  TIP3      943             0.0000000000
     25149      1135  TIP3      H2            -18.7489683209      -15.6444595949       36.1753089046  TIP3      943             0.0000000000
     25150      1136  TIP3      OH2            37.3526958171      -15.1441728969       24.4596629685  TIP3      944             0.0000000000
     25151      1136  TIP3      H1             36.4003002026      -14.9588375128       24.5308179219  TIP3      944             0.0000000000
     25152      1136  TIP3      H2             37.6413292897      -14.4791660954       23.8055831609  TIP3      944             0.0000000000
     25153      1137  TIP3      OH2           -21.7370133287       -0.2004624922       26.6967683176  TIP3      945             0.0000000000
     25154      1137  TIP3      H1            -21.0616168088       -0.5017870534       26.0708517385  TIP3      945             0.0000000000
     25155      1137  TIP3      H2            -21.2212989495        0.3200708582       27.3291622729  TIP3      945             0.0000000000
     25156      1138  TIP3      OH2            37.0747337304      -16.5268346231       33.1688204761  TIP3      946             0.0000000000
     25157      1138  TIP3      H1             36.3320624152      -16.7347877248       33.7495991764  TIP3      946             0.0000000000
     25158      1138  TIP3      H2             36.5681079869      -15.9561486023       32.5615523261  TIP3      946             0.0000000000
     25159      1139  TIP3      OH2           -34.2690548263       -3.2372161746       37.2347295222  TIP3      947             0.0000000000
     25160      1139  TIP3      H1            -35.1110896196       -3.0772707050       36.7917871532  TIP3      947             0.0000000000
     25161      1139  TIP3      H2            -34.5597333900       -3.3916021188       38.1336856371  TIP3      947             0.0000000000
     25162      1140  TIP3      OH2           -31.3645284510       -2.2640658362       33.4987937094  TIP3      948             0.0000000000
     25163      1140  TIP3      H1            -31.7431376357       -1.4168040198       33.2173756587  TIP3      948             0.0000000000
     25164      1140  TIP3      H2            -30.4445238876       -2.1783434730       33.1746342459  TIP3      948             0.0000000000
     25165      1141  TIP3      OH2           -27.0639685445       -0.8621202896       36.3914759387  TIP3      949             0.0000000000
     25166      1141  TIP3      H1            -26.9342027079       -1.2084114120       37.3059014284  TIP3      949             0.0000000000
     25167      1141  TIP3      H2            -26.1583013272       -0.5586624349       36.1683186432  TIP3      949             0.0000000000
     25168      1142  TIP3      OH2           -24.7709760957        0.4075198385       35.7029744811  TIP3      950             0.0000000000
     25169      1142  TIP3      H1            -24.0435980106       -0.1838366978       35.4701815024  TIP3      950             0.0000000000
     25170      1142  TIP3      H2            -24.3982923830        0.8395898184       36.5031793248  TIP3      950             0.0000000000
     25171      1143  TIP3      OH2           -19.7263351299      -16.9253518127       34.7755287040  TIP3      951             0.0000000000
     25172      1143  TIP3      H1            -20.6063255359      -16.7396523274       34.3942023798  TIP3      951             0.0000000000
     25173      1143  TIP3      H2            -19.5904265152      -17.7986235082       34.3233411874  TIP3      951             0.0000000000
     25174      1144  TIP3      OH2           -33.9330675962        0.9675329125       33.5169983226  TIP3      952             0.0000000000
     25175      1144  TIP3      H1            -34.6899373440        1.4262023549       33.0993570907  TIP3      952             0.0000000000
     25176      1144  TIP3      H2            -34.2963818688        0.7551204266       34.3908308225  TIP3      952             0.0000000000
     25177      1145  TIP3      OH2           -31.4738113604        0.5407000697       32.5464863901  TIP3      953             0.0000000000
     25178      1145  TIP3      H1            -32.3600189168        0.6939432836       32.9536234958  TIP3      953             0.0000000000
     25179      1145  TIP3      H2            -31.5300759147        1.1318785794       31.7771351253  TIP3      953             0.0000000000
     25180      1146  TIP3      OH2           -26.7509685709        0.4599051693       31.7067984414  TIP3      954             0.0000000000
     25181      1146  TIP3      H1            -27.2556869318        0.9977381736       31.0806698492  TIP3      954             0.0000000000
     25182      1146  TIP3      H2            -26.6510187759        1.0688784184       32.4683620806  TIP3      954             0.0000000000
     25183      1147  TIP3      OH2           -24.4962718101       -0.7543709019       32.7621341220  TIP3      955             0.0000000000
     25184      1147  TIP3      H1            -25.3432642072       -0.4700205966       32.3809252468  TIP3      955             0.0000000000
     25185      1147  TIP3      H2            -24.0040761211        0.0796664244       32.6654873156  TIP3      955             0.0000000000
     25186      1148  TIP3      OH2           -21.8971961508        0.8132326700       32.9780275380  TIP3      956             0.0000000000
     25187      1148  TIP3      H1            -21.9466661566        1.7712060159       32.7511177867  TIP3      956             0.0000000000
     25188      1148  TIP3      H2            -21.6892885631        0.4404616327       32.0988205242  TIP3      956             0.0000000000
     25189      1149  TIP3      OH2           -34.5128685555       -0.3977784399       30.4041013954  TIP3      957             0.0000000000
     25190      1149  TIP3      H1            -34.5545394563       -0.8293186797       31.2831861605  TIP3      957             0.0000000000
     25191      1149  TIP3      H2            -33.7028520969       -0.7900461816       30.0287059456  TIP3      957             0.0000000000
     25192      1150  TIP3      OH2           -32.4137379648       -1.7039661406       29.0511857734  TIP3      958             0.0000000000
     25193      1150  TIP3      H1            -32.6020508095       -2.6255829990       29.3181148980  TIP3      958             0.0000000000
     25194      1150  TIP3      H2            -31.5711427110       -1.5339402663       29.5246831710  TIP3      958             0.0000000000
     25195      1151  TIP3      OH2           -29.8123197134       -1.2051403096       29.9641230182  TIP3      959             0.0000000000
     25196      1151  TIP3      H1            -29.6601700683       -2.1285296206       29.6897345870  TIP3      959             0.0000000000
     25197      1151  TIP3      H2            -29.7857033191       -1.2875540306       30.9291110671  TIP3      959             0.0000000000
     25198      1152  TIP3      OH2           -26.3590371942      -15.5404806403       29.0777239593  TIP3      960             0.0000000000
     25199      1152  TIP3      H1            -27.0300256073      -16.1838916982       29.3653720515  TIP3      960             0.0000000000
     25200      1152  TIP3      H2            -25.8082897576      -16.0830020927       28.5010595718  TIP3      960             0.0000000000
     25201      1153  TIP3      OH2           -21.2601057949      -17.3710691467       29.2265048243  TIP3      961             0.0000000000
     25202      1153  TIP3      H1            -20.6281104129      -16.9046718251       28.6388323624  TIP3      961             0.0000000000
     25203      1153  TIP3      H2            -22.1441410307      -17.1381561692       28.8892290448  TIP3      961             0.0000000000
     25204      1154  TIP3      OH2           -19.5588672490      -16.2405998749       27.4028765291  TIP3      962             0.0000000000
     25205      1154  TIP3      H1            -18.8670403644      -16.8439256755       27.0636660026  TIP3      962             0.0000000000
     25206      1154  TIP3      H2            -19.0519641200      -15.4166347585       27.5571081006  TIP3      962             0.0000000000
     25207      1155  TIP3      OH2           -34.0265496984      -16.9461971040       26.9734385615  TIP3      963             0.0000000000
     25208      1155  TIP3      H1            -34.7800878097      -17.1361053523       26.3795640564  TIP3      963             0.0000000000
     25209      1155  TIP3      H2            -33.5070837851      -17.7661728558       26.8461599872  TIP3      963             0.0000000000
     25210      1156  TIP3      OH2           -34.7103248192      -16.9749704283       22.8813394995  TIP3      964             0.0000000000
     25211      1156  TIP3      H1            -34.6864995227      -16.5490036899       22.0212204636  TIP3      964             0.0000000000
     25212      1156  TIP3      H2            -35.6332177604      -16.8139985384       23.1786491967  TIP3      964             0.0000000000
     25213      1157  TIP3      OH2           -29.5507320456      -16.9624638953       26.7423476085  TIP3      965             0.0000000000
     25214      1157  TIP3      H1            -28.6340325607      -16.6519940244       26.6394462959  TIP3      965             0.0000000000
     25215      1157  TIP3      H2            -29.5407458184      -17.2379936200       27.6576304078  TIP3      965             0.0000000000
     25216      1158  TIP3      OH2           -23.8219120235      -16.9682358947       28.3373882373  TIP3      966             0.0000000000
     25217      1158  TIP3      H1            -23.8679566505      -16.8899867405       27.3797262623  TIP3      966             0.0000000000
     25218      1158  TIP3      H2            -24.1677067627      -17.8865384260       28.4809668429  TIP3      966             0.0000000000
     25219      1159  TIP3      OH2           -28.3853995698      -14.9372231877       23.5810457137  TIP3      967             0.0000000000
     25220      1159  TIP3      H1            -28.1326750329      -15.5536055765       24.2886014854  TIP3      967             0.0000000000
     25221      1159  TIP3      H2            -28.3115538075      -14.1003777640       24.0706788914  TIP3      967             0.0000000000
     25222      1160  TIP3      OH2           -19.7279650448       -0.4495726632       24.6867907555  TIP3      968             0.0000000000
     25223      1160  TIP3      H1            -20.0127250765       -1.1499861438       24.0980258700  TIP3      968             0.0000000000
     25224      1160  TIP3      H2            -19.8270319467        0.3352512948       24.0899531346  TIP3      968             0.0000000000
     25225      1161  TIP3      OH2           -34.1808322538      -16.3494526324       36.4548729838  TIP3      969             0.0000000000
     25226      1161  TIP3      H1            -34.5149971289      -17.1993285236       36.7934404693  TIP3      969             0.0000000000
     25227      1161  TIP3      H2            -33.2456538738      -16.4225984053       36.7579429656  TIP3      969             0.0000000000
     25228      1162  TIP3      OH2           -32.1084787740      -16.9938057290       38.0489454671  TIP3      970             0.0000000000
     25229      1162  TIP3      H1            -31.2298722481      -17.3505448826       37.8013193509  TIP3      970             0.0000000000
     25230      1162  TIP3      H2            -32.5076345679      -17.7920489993       38.4497085611  TIP3      970             0.0000000000
     25231      1163  TIP3      OH2           -23.6980470026      -17.7085694124       38.1965542892  TIP3      971             0.0000000000
     25232      1163  TIP3      H1            -23.6028844133      -18.1958563191       39.0356042070  TIP3      971             0.0000000000
     25233      1163  TIP3      H2            -22.7881559429      -17.7512752035       37.8380981396  TIP3      971             0.0000000000
     25234      1164  TIP3      OH2           -20.5009968208       -1.6614605823       36.8595697564  TIP3      972             0.0000000000
     25235      1164  TIP3      H1            -21.2866300113       -1.8020855326       36.2854807231  TIP3      972             0.0000000000
     25236      1164  TIP3      H2            -20.6034944129       -0.7051453625       37.0299666857  TIP3      972             0.0000000000
     25237      1165  TIP3      OH2            -6.0383035605       -7.7778569028       26.7995148419  TIP3      973             0.0000000000
     25238      1165  TIP3      H1             -6.0637063184       -6.8003891041       26.7504075413  TIP3      973             0.0000000000
     25239      1165  TIP3      H2             -6.7728896060       -8.0202979482       26.2127588636  TIP3      973             0.0000000000
     25240      1166  TIP3      OH2            -7.1673294393       -8.5301966892       30.2917481033  TIP3      974             0.0000000000
     25241      1166  TIP3      H1             -7.1982742080       -9.1740992683       31.0130426188  TIP3      974             0.0000000000
     25242      1166  TIP3      H2             -7.5348753990       -9.0353679136       29.5509198052  TIP3      974             0.0000000000
     25243      1167  TIP3      OH2           -14.7995511358       -8.8842366565       31.8102513130  TIP3      975             0.0000000000
     25244      1167  TIP3      H1            -14.7866610374       -9.5051801530       32.5628752415  TIP3      975             0.0000000000
     25245      1167  TIP3      H2            -14.1078924899       -8.2552012400       32.0685513984  TIP3      975             0.0000000000
     25246      1168  TIP3      OH2            -3.5108949878       -5.5766797355       28.5843062955  TIP3      976             0.0000000000
     25247      1168  TIP3      H1             -3.9128822548       -6.2993210470       29.0780258141  TIP3      976             0.0000000000
     25248      1168  TIP3      H2             -3.4824377263       -4.8731890250       29.2587271919  TIP3      976             0.0000000000
     25249      1169  TIP3      OH2           -13.9232475886       -4.4148460477       30.3646068160  TIP3      977             0.0000000000
     25250      1169  TIP3      H1            -14.2256412728       -5.2779379428       30.0248146838  TIP3      977             0.0000000000
     25251      1169  TIP3      H2            -12.9641294568       -4.5861353558       30.3934242561  TIP3      977             0.0000000000
     25252      1170  TIP3      OH2           -17.2815063914      -10.8438035515       25.8300303669  TIP3      978             0.0000000000
     25253      1170  TIP3      H1            -17.7157758504       -9.9688428429       25.7977433445  TIP3      978             0.0000000000
     25254      1170  TIP3      H2            -17.8385065778      -11.3853002267       25.2625949580  TIP3      978             0.0000000000
     25255      1171  TIP3      OH2           -16.5692020326       -8.6292188153       28.0018940814  TIP3      979             0.0000000000
     25256      1171  TIP3      H1            -16.2898243244       -9.4519401948       28.4519328669  TIP3      979             0.0000000000
     25257      1171  TIP3      H2            -15.8769595006       -8.5229205089       27.3318195063  TIP3      979             0.0000000000
     25258      1172  TIP3      OH2            -6.3417373184       -0.3993271174       28.8376921041  TIP3      980             0.0000000000
     25259      1172  TIP3      H1             -5.7533698050       -1.1320286493       28.5374551077  TIP3      980             0.0000000000
     25260      1172  TIP3      H2             -6.6249542594       -0.7629805712       29.6783109014  TIP3      980             0.0000000000
     25261      1173  TIP3      OH2            -8.8187114974       -6.1426089293       30.7778878165  TIP3      981             0.0000000000
     25262      1173  TIP3      H1             -8.4808137812       -6.7594009458       30.1115144352  TIP3      981             0.0000000000
     25263      1173  TIP3      H2             -8.0051789757       -5.9752665913       31.2850213858  TIP3      981             0.0000000000
     25264      1174  TIP3      OH2            -0.2330676302      -14.4714014233       31.4823644259  TIP3      982             0.0000000000
     25265      1174  TIP3      H1             -0.0400419081      -13.9080235430       32.2615570221  TIP3      982             0.0000000000
     25266      1174  TIP3      H2              0.3480112599      -14.0509654861       30.8329434867  TIP3      982             0.0000000000
     25267      1175  TIP3      OH2            -5.6175755707      -11.6524176592       31.1010747006  TIP3      983             0.0000000000
     25268      1175  TIP3      H1             -5.4760326850      -12.6163321931       31.1002982132  TIP3      983             0.0000000000
     25269      1175  TIP3      H2             -5.7471661117      -11.5181458768       30.1406588815  TIP3      983             0.0000000000
     25270      1176  TIP3      OH2           -12.5641406620      -13.5647503328       28.3218389484  TIP3      984             0.0000000000
     25271      1176  TIP3      H1            -12.4229156994      -12.7485971536       27.8124016162  TIP3      984             0.0000000000
     25272      1176  TIP3      H2            -12.9185023284      -14.1462216961       27.6162722074  TIP3      984             0.0000000000
     25273      1177  TIP3      OH2            -4.8078434544      -13.4809725822       26.6897044665  TIP3      985             0.0000000000
     25274      1177  TIP3      H1             -4.1421289989      -13.8151819677       27.3355200204  TIP3      985             0.0000000000
     25275      1177  TIP3      H2             -4.2469717124      -12.9326818312       26.1167037827  TIP3      985             0.0000000000
     25276      1178  TIP3      OH2           -15.9049603211      -11.1673969140       29.0471710150  TIP3      986             0.0000000000
     25277      1178  TIP3      H1            -15.2525551305      -11.7304303808       29.4893798462  TIP3      986             0.0000000000
     25278      1178  TIP3      H2            -15.8070396448      -11.4645831558       28.1280924420  TIP3      986             0.0000000000
     25279      1179  TIP3      OH2           -10.7503810029       -9.6032966941       28.3304711043  TIP3      987             0.0000000000
     25280      1179  TIP3      H1            -10.0783019515      -10.1737537944       28.7438593571  TIP3      987             0.0000000000
     25281      1179  TIP3      H2            -11.2737145489      -10.2760584622       27.8607818116  TIP3      987             0.0000000000
     25282      1180  TIP3      OH2             0.2207989406      -13.0839320692       33.7665403848  TIP3      988             0.0000000000
     25283      1180  TIP3      H1             -0.3941099651      -12.3300334151       33.6659634907  TIP3      988             0.0000000000
     25284      1180  TIP3      H2              0.2615284087      -13.1761117425       34.7282759944  TIP3      988             0.0000000000
     25285      1181  TIP3      OH2           -13.5804285592      -14.5385106593       32.4010144690  TIP3      989             0.0000000000
     25286      1181  TIP3      H1            -13.9397700347      -14.1608295272       31.5622749951  TIP3      989             0.0000000000
     25287      1181  TIP3      H2            -14.3663547914      -14.5081268377       32.9990048679  TIP3      989             0.0000000000
     25288      1182  TIP3      OH2            -6.3622758524       -5.2073445165       25.8698369686  TIP3      990             0.0000000000
     25289      1182  TIP3      H1             -6.6592006193       -5.4416202127       24.9821665701  TIP3      990             0.0000000000
     25290      1182  TIP3      H2             -6.6472267169       -4.2708357187       25.9531766036  TIP3      990             0.0000000000
     25291      1183  TIP3      OH2           -11.1308599162       -7.0526685055       32.5793759927  TIP3      991             0.0000000000
     25292      1183  TIP3      H1            -11.8237418125       -6.3961024115       32.8041444842  TIP3      991             0.0000000000
     25293      1183  TIP3      H2            -10.4193120845       -6.4574979786       32.2870957597  TIP3      991             0.0000000000
     25294      1184  TIP3      OH2            -2.9817556594      -14.1401630608       28.6695659187  TIP3      992             0.0000000000
     25295      1184  TIP3      H1             -3.2071488592      -14.9135822682       29.1949337986  TIP3      992             0.0000000000
     25296      1184  TIP3      H2             -2.3100426632      -13.7099514367       29.2216977159  TIP3      992             0.0000000000
     25297      1185  TIP3      OH2           -14.0324291156      -12.8405998970       30.3998255476  TIP3      993             0.0000000000
     25298      1185  TIP3      H1            -13.4362203086      -12.1010672133       30.6215767473  TIP3      993             0.0000000000
     25299      1185  TIP3      H2            -13.5570085766      -13.2223999639       29.6106292268  TIP3      993             0.0000000000
     25300      1186  TIP3      OH2           -12.6607713669       -5.0297321394       33.4037174610  TIP3      994             0.0000000000
     25301      1186  TIP3      H1            -12.7122195248       -4.1163390746       33.0582082096  TIP3      994             0.0000000000
     25302      1186  TIP3      H2            -13.5471711188       -5.1087170596       33.8391909216  TIP3      994             0.0000000000
     25303      1187  TIP3      OH2            -2.9849178153       -3.7558999208       30.9551157733  TIP3      995             0.0000000000
     25304      1187  TIP3      H1             -3.9527068889       -3.6346639648       31.0699036100  TIP3      995             0.0000000000
     25305      1187  TIP3      H2             -2.7146660720       -2.8412525005       30.7577234430  TIP3      995             0.0000000000
     25306      1188  TIP3      OH2            -2.6566881331      -15.4678924172       32.3399450959  TIP3      996             0.0000000000
     25307      1188  TIP3      H1             -3.3786507514      -14.8331288145       32.2424789218  TIP3      996             0.0000000000
     25308      1188  TIP3      H2             -1.9411865565      -15.0492308182       31.8165687367  TIP3      996             0.0000000000
     25309      1189  TIP3      OH2            -9.6970575727      -17.3415586463       29.8050547586  TIP3      997             0.0000000000
     25310      1189  TIP3      H1             -9.8456582772      -18.3044905937       29.7251665739  TIP3      997             0.0000000000
     25311      1189  TIP3      H2            -10.5732986854      -17.0342942742       30.1127944691  TIP3      997             0.0000000000
     25312      1190  TIP3      OH2            -4.7046032739       -1.9699012692       27.5587665687  TIP3      998             0.0000000000
     25313      1190  TIP3      H1             -4.3125857530       -2.7036249674       27.0352974022  TIP3      998             0.0000000000
     25314      1190  TIP3      H2             -4.3235831475       -1.1907656147       27.1090481947  TIP3      998             0.0000000000
     25315      1191  TIP3      OH2            -3.5357008930       -4.0153180273       26.0827813776  TIP3      999             0.0000000000
     25316      1191  TIP3      H1             -3.7759453274       -4.7158718462       25.4523134433  TIP3      999             0.0000000000
     25317      1191  TIP3      H2             -3.4819904032       -4.5420985519       26.9016971733  TIP3      999             0.0000000000
     25318      1192  TIP3      OH2            -1.8929802356       -5.4656827816       34.5408130140  TIP3      1000            0.0000000000
     25319      1192  TIP3      H1             -1.7337651876       -6.0559773902       33.7859153950  TIP3      1000            0.0000000000
     25320      1192  TIP3      H2             -1.7066903278       -4.5998510299       34.1329235216  TIP3      1000            0.0000000000
     25321      1193  TIP3      OH2            -7.4088784281       -8.5904841832       24.3001976421  TIP3      1001            0.0000000000
     25322      1193  TIP3      H1             -8.0696464147       -7.9509530787       23.9768565610  TIP3      1001            0.0000000000
     25323      1193  TIP3      H2             -6.6713929446       -8.4665177539       23.6610112595  TIP3      1001            0.0000000000
     25324      1194  TIP3      OH2            -0.0314192201       -9.1110584661       32.5599278768  TIP3      1002            0.0000000000
     25325      1194  TIP3      H1             -0.5680855789       -8.3044907322       32.4915055474  TIP3      1002            0.0000000000
     25326      1194  TIP3      H2              0.5410046748       -8.9353237594       31.7788578060  TIP3      1002            0.0000000000
     25327      1195  TIP3      OH2            -3.9315172654       -8.3539153096       25.2404232917  TIP3      1003            0.0000000000
     25328      1195  TIP3      H1             -4.6660027197       -8.0921102621       25.8489198074  TIP3      1003            0.0000000000
     25329      1195  TIP3      H2             -3.4579090667       -9.0024124911       25.7949904684  TIP3      1003            0.0000000000
     25330      1196  TIP3      OH2            -3.9065587896      -10.0581017928       34.2988736182  TIP3      1004            0.0000000000
     25331      1196  TIP3      H1             -4.1236807862       -9.3463216623       34.9222270610  TIP3      1004            0.0000000000
     25332      1196  TIP3      H2             -4.6624917420       -9.9118189977       33.6772999003  TIP3      1004            0.0000000000
     25333      1197  TIP3      OH2           -12.3535879510       -7.6840660182       27.1430820126  TIP3      1005            0.0000000000
     25334      1197  TIP3      H1            -12.6603426402       -8.0709487526       26.3083558814  TIP3      1005            0.0000000000
     25335      1197  TIP3      H2            -11.7193332445       -8.3563118546       27.4926482531  TIP3      1005            0.0000000000
     25336      1198  TIP3      OH2           -11.0187830051       -4.3051351285       29.8290444810  TIP3      1006            0.0000000000
     25337      1198  TIP3      H1            -11.0183862561       -4.8180037558       29.0114357877  TIP3      1006            0.0000000000
     25338      1198  TIP3      H2            -10.2320240578       -4.6552295128       30.2869531021  TIP3      1006            0.0000000000
     25339      1199  TIP3      OH2           -11.9839190019       -8.9521781080       30.8329689381  TIP3      1007            0.0000000000
     25340      1199  TIP3      H1            -11.4689804915       -8.8274236609       30.0092934159  TIP3      1007            0.0000000000
     25341      1199  TIP3      H2            -11.6120924728       -8.2454214885       31.4116957567  TIP3      1007            0.0000000000
     25342      1200  TIP3      OH2            -5.5745635376       -3.3568873532       31.5254309615  TIP3      1008            0.0000000000
     25343      1200  TIP3      H1             -5.8869190820       -2.7129752069       32.1701861088  TIP3      1008            0.0000000000
     25344      1200  TIP3      H2             -5.8326233732       -4.2091633097       31.9476972483  TIP3      1008            0.0000000000
     25345      1201  TIP3      OH2           -11.0487750182       -4.5035802080       35.5095003444  TIP3      1009            0.0000000000
     25346      1201  TIP3      H1            -11.4682044767       -3.7680594180       36.0020355032  TIP3      1009            0.0000000000
     25347      1201  TIP3      H2            -11.7217333523       -4.7045995037       34.8127308077  TIP3      1009            0.0000000000
     25348      1202  TIP3      OH2            -5.0963055538       -9.0803617881       22.9343150898  TIP3      1010            0.0000000000
     25349      1202  TIP3      H1             -4.5101233605       -8.9788282384       23.7203427183  TIP3      1010            0.0000000000
     25350      1202  TIP3      H2             -4.6071683230       -8.6585189745       22.2237810752  TIP3      1010            0.0000000000
     25351      1203  TIP3      OH2           -14.1135839677       -8.3763997934       34.6669480915  TIP3      1011            0.0000000000
     25352      1203  TIP3      H1            -14.0473331869       -7.6798536111       35.3544913403  TIP3      1011            0.0000000000
     25353      1203  TIP3      H2            -15.0555937432       -8.2707940477       34.4657268423  TIP3      1011            0.0000000000
     25354      1204  TIP3      OH2            -7.3225609837       -2.4175078912       26.3749997115  TIP3      1012            0.0000000000
     25355      1204  TIP3      H1             -6.9112953799       -2.1148989094       27.1971403511  TIP3      1012            0.0000000000
     25356      1204  TIP3      H2             -7.9260031807       -1.6925772104       26.1552018617  TIP3      1012            0.0000000000
     25357      1205  TIP3      OH2           -12.8026704857       -2.4716662335       36.2548179389  TIP3      1013            0.0000000000
     25358      1205  TIP3      H1            -12.8669739349       -2.5682353203       35.2895795420  TIP3      1013            0.0000000000
     25359      1205  TIP3      H2            -13.7323412729       -2.6041821551       36.5244339833  TIP3      1013            0.0000000000
     25360      1206  TIP3      OH2           -13.2562840512       -8.7373144058       24.5651120072  TIP3      1014            0.0000000000
     25361      1206  TIP3      H1            -13.6259148297       -7.8617727632       24.3016763826  TIP3      1014            0.0000000000
     25362      1206  TIP3      H2            -14.0775524372       -9.2525557927       24.6226170589  TIP3      1014            0.0000000000
     25363      1207  TIP3      OH2            -0.1843286478       -3.0554548552       21.2859034727  TIP3      1015            0.0000000000
     25364      1207  TIP3      H1             -0.1427878119       -2.0961809470       21.2745883011  TIP3      1015            0.0000000000
     25365      1207  TIP3      H2              0.6779413616       -3.3560992617       21.0288079081  TIP3      1015            0.0000000000
     25366      1208  TIP3      OH2           -17.2734030121       -6.2296149609       33.6751693396  TIP3      1016            0.0000000000
     25367      1208  TIP3      H1            -17.7163638334       -6.3037213801       32.8095877111  TIP3      1016            0.0000000000
     25368      1208  TIP3      H2            -17.1917423940       -7.1831598943       33.8821305510  TIP3      1016            0.0000000000
     25369      1209  TIP3      OH2           -17.5199000246       -3.4886963368       30.4543492688  TIP3      1017            0.0000000000
     25370      1209  TIP3      H1            -16.5618532404       -3.6062251063       30.4123726106  TIP3      1017            0.0000000000
     25371      1209  TIP3      H2            -17.5925170786       -2.6663928017       30.9520913910  TIP3      1017            0.0000000000
     25372      1210  TIP3      OH2             0.7143138523       -2.7892711849       36.1000149057  TIP3      1018            0.0000000000
     25373      1210  TIP3      H1              0.6027817455       -3.7486125705       36.1123912350  TIP3      1018            0.0000000000
     25374      1210  TIP3      H2             -0.1363814704       -2.5383305767       36.5365148712  TIP3      1018            0.0000000000
     25375      1211  TIP3      OH2            -8.3179567802       -3.2486633342       34.9985242041  TIP3      1019            0.0000000000
     25376      1211  TIP3      H1             -8.2614809996       -2.4128250658       35.5204555640  TIP3      1019            0.0000000000
     25377      1211  TIP3      H2             -9.1913864320       -3.6072564380       35.2446876916  TIP3      1019            0.0000000000
     25378      1212  TIP3      OH2            -7.8266821638        0.4966212918       24.8006608719  TIP3      1020            0.0000000000
     25379      1212  TIP3      H1             -8.0421100855        0.4071387681       23.8657760828  TIP3      1020            0.0000000000
     25380      1212  TIP3      H2             -7.8695139412        1.4586288763       24.9725708614  TIP3      1020            0.0000000000
     25381      1213  TIP3      OH2           -14.2688638682       -0.6097623555       26.6376798698  TIP3      1021            0.0000000000
     25382      1213  TIP3      H1            -14.0857366034       -1.0421927504       27.4965376650  TIP3      1021            0.0000000000
     25383      1213  TIP3      H2            -15.0820940604       -1.0566676386       26.3729861054  TIP3      1021            0.0000000000
     25384      1214  TIP3      OH2            -4.8365782201       -0.3153233242       21.7662048315  TIP3      1022            0.0000000000
     25385      1214  TIP3      H1             -4.4068998220       -1.0792188952       21.3551156902  TIP3      1022            0.0000000000
     25386      1214  TIP3      H2             -4.7792589618       -0.5726937463       22.7044889102  TIP3      1022            0.0000000000
     25387      1215  TIP3      OH2            -5.1242858037       -0.3194500096       24.6195484205  TIP3      1023            0.0000000000
     25388      1215  TIP3      H1             -6.0961393932       -0.2728483113       24.7305566769  TIP3      1023            0.0000000000
     25389      1215  TIP3      H2             -4.9147089858       -1.1267386079       25.1006278613  TIP3      1023            0.0000000000
     25390      1216  TIP3      OH2            -2.0998985281      -11.3049815563       36.5390375392  TIP3      1024            0.0000000000
     25391      1216  TIP3      H1             -2.6885132784      -10.9207584602       35.8819873104  TIP3      1024            0.0000000000
     25392      1216  TIP3      H2             -2.1523118467      -12.2516620539       36.3241139872  TIP3      1024            0.0000000000
     25393      1217  TIP3      OH2           -14.9876301138       -4.9199302408       34.6062884126  TIP3      1025            0.0000000000
     25394      1217  TIP3      H1            -14.7655045707       -5.2787132270       35.4934190375  TIP3      1025            0.0000000000
     25395      1217  TIP3      H2            -15.8521405955       -5.3265295375       34.3925312065  TIP3      1025            0.0000000000
     25396      1218  TIP3      OH2           -12.3198170457      -16.4380326382       30.5658781582  TIP3      1026            0.0000000000
     25397      1218  TIP3      H1            -13.2122772471      -16.5769568688       30.1792307420  TIP3      1026            0.0000000000
     25398      1218  TIP3      H2            -12.4427494786      -15.6016970563       31.0227269463  TIP3      1026            0.0000000000
     25399      1219  TIP3      OH2            -7.6661967450      -16.7727308246       33.9089432977  TIP3      1027            0.0000000000
     25400      1219  TIP3      H1             -7.2770890962      -17.1880457633       34.7011305335  TIP3      1027            0.0000000000
     25401      1219  TIP3      H2             -8.6372643899      -16.8882506001       34.0553754869  TIP3      1027            0.0000000000
     25402      1220  TIP3      OH2            -4.3467938061      -12.8844635096       34.8274659281  TIP3      1028            0.0000000000
     25403      1220  TIP3      H1             -4.9400209504      -13.1539973348       35.5796186286  TIP3      1028            0.0000000000
     25404      1220  TIP3      H2             -4.6103634475      -11.9951909447       34.5801265809  TIP3      1028            0.0000000000
     25405      1221  TIP3      OH2           -12.1824008867      -11.3930829776       31.7580399688  TIP3      1029            0.0000000000
     25406      1221  TIP3      H1            -13.0461842245      -11.2752961289       32.1446091473  TIP3      1029            0.0000000000
     25407      1221  TIP3      H2            -12.1306615167      -10.4990701525       31.3151275519  TIP3      1029            0.0000000000
     25408      1222  TIP3      OH2           -12.2605526364      -11.3051839867       26.6303281085  TIP3      1030            0.0000000000
     25409      1222  TIP3      H1            -13.1874565439      -11.6123857457       26.5398351035  TIP3      1030            0.0000000000
     25410      1222  TIP3      H2            -11.8524436125      -11.7160398669       25.8406349529  TIP3      1030            0.0000000000
     25411      1223  TIP3      OH2            -6.7756870194      -10.8896811217       25.3937410766  TIP3      1031            0.0000000000
     25412      1223  TIP3      H1             -7.1057021051      -10.0113936915       25.1006205711  TIP3      1031            0.0000000000
     25413      1223  TIP3      H2             -6.0272145725      -11.0225193151       24.7896938867  TIP3      1031            0.0000000000
     25414      1224  TIP3      OH2            -7.6667619531      -10.6340128975       36.8709196719  TIP3      1032            0.0000000000
     25415      1224  TIP3      H1             -8.1842768463      -11.4131111902       37.1847318657  TIP3      1032            0.0000000000
     25416      1224  TIP3      H2             -6.8333728937      -10.7475915076       37.3574318888  TIP3      1032            0.0000000000
     25417      1225  TIP3      OH2            -5.6884580897      -11.3457150168       28.2868476909  TIP3      1033            0.0000000000
     25418      1225  TIP3      H1             -5.9742953631      -10.7896710521       27.5444138012  TIP3      1033            0.0000000000
     25419      1225  TIP3      H2             -5.5937169343      -12.2006998676       27.8241496435  TIP3      1033            0.0000000000
     25420      1226  TIP3      OH2           -14.7268678978      -11.1674888190       33.5428753260  TIP3      1034            0.0000000000
     25421      1226  TIP3      H1            -14.6344350237      -10.7337583298       34.4180461271  TIP3      1034            0.0000000000
     25422      1226  TIP3      H2            -15.1795845882      -12.0032010987       33.7423948089  TIP3      1034            0.0000000000
     25423      1227  TIP3      OH2           -11.1640279951      -13.6771106932       20.3978518586  TIP3      1035            0.0000000000
     25424      1227  TIP3      H1            -11.5793013055      -14.2677259095       21.0639315205  TIP3      1035            0.0000000000
     25425      1227  TIP3      H2            -11.9210627595      -13.4772678456       19.8353686849  TIP3      1035            0.0000000000
     25426      1228  TIP3      OH2           -17.9105855362      -14.1333028369       27.4333626598  TIP3      1036            0.0000000000
     25427      1228  TIP3      H1            -17.2403166969      -14.1526396322       28.1429711237  TIP3      1036            0.0000000000
     25428      1228  TIP3      H2            -17.4283356611      -14.4870527911       26.6864592071  TIP3      1036            0.0000000000
     25429      1229  TIP3      OH2           -16.5974590868      -13.2706318151       22.9313638884  TIP3      1037            0.0000000000
     25430      1229  TIP3      H1            -16.1595730834      -12.7802366488       22.2300977545  TIP3      1037            0.0000000000
     25431      1229  TIP3      H2            -17.3384053813      -12.6898340983       23.1620453238  TIP3      1037            0.0000000000
     25432      1230  TIP3      OH2            -6.4479838522       -9.7842876468       32.8769116724  TIP3      1038            0.0000000000
     25433      1230  TIP3      H1             -6.1344630434      -10.4645126804       32.2445863686  TIP3      1038            0.0000000000
     25434      1230  TIP3      H2             -6.9908370946      -10.3009043605       33.4990168516  TIP3      1038            0.0000000000
     25435      1231  TIP3      OH2            -9.6967776330      -13.7883245784       27.6983720618  TIP3      1039            0.0000000000
     25436      1231  TIP3      H1            -10.6309039549      -13.7867176354       27.9880166647  TIP3      1039            0.0000000000
     25437      1231  TIP3      H2             -9.2091929640      -13.9685535738       28.5133831532  TIP3      1039            0.0000000000
     25438      1232  TIP3      OH2           -14.8470538761      -12.2102275400       26.4907770279  TIP3      1040            0.0000000000
     25439      1232  TIP3      H1            -15.7622854502      -12.0948854598       26.1545872582  TIP3      1040            0.0000000000
     25440      1232  TIP3      H2            -14.5891949903      -13.0919281589       26.1660616039  TIP3      1040            0.0000000000
     25441      1233  TIP3      OH2           -11.2669796583      -12.1504112911       24.3347585971  TIP3      1041            0.0000000000
     25442      1233  TIP3      H1            -10.2771495419      -12.2234481333       24.4018753055  TIP3      1041            0.0000000000
     25443      1233  TIP3      H2            -11.4245404837      -11.8767071938       23.4541795353  TIP3      1041            0.0000000000
     25444      1234  TIP3      OH2            -5.2821835725      -14.5550081137       30.9121440678  TIP3      1042            0.0000000000
     25445      1234  TIP3      H1             -5.9715091026      -14.5113478865       31.6122355612  TIP3      1042            0.0000000000
     25446      1234  TIP3      H2             -5.7920632972      -14.8188011568       30.1321272785  TIP3      1042            0.0000000000
     25447      1235  TIP3      OH2            -2.0922791068        1.0843494415       37.2869800856  TIP3      1043            0.0000000000
     25448      1235  TIP3      H1             -1.8139200897        1.4452499344       36.4245749728  TIP3      1043            0.0000000000
     25449      1235  TIP3      H2             -1.3595733432        1.3860173319       37.8512201627  TIP3      1043            0.0000000000
     25450      1236  TIP3      OH2           -14.3949740784       -6.4559655031       36.8272708307  TIP3      1044            0.0000000000
     25451      1236  TIP3      H1            -13.6975812411       -6.2032944844       37.4559174826  TIP3      1044            0.0000000000
     25452      1236  TIP3      H2            -15.1866096778       -6.3775768463       37.4003744924  TIP3      1044            0.0000000000
     25453      1237  TIP3      OH2            -8.4038949769      -11.0320570078       29.5690873691  TIP3      1045            0.0000000000
     25454      1237  TIP3      H1             -7.8155239952      -11.5686545964       29.0265841842  TIP3      1045            0.0000000000
     25455      1237  TIP3      H2             -8.5348085521      -11.5874961587       30.3452783551  TIP3      1045            0.0000000000
     25456      1238  TIP3      OH2           -13.3925100835      -14.8484702075       25.9457444548  TIP3      1046            0.0000000000
     25457      1238  TIP3      H1            -13.6863755571      -15.7760916612       26.0123822539  TIP3      1046            0.0000000000
     25458      1238  TIP3      H2            -12.5811251026      -14.9964567099       25.4426893395  TIP3      1046            0.0000000000
     25459      1239  TIP3      OH2            -9.7918863769      -12.7293558979       32.0207891760  TIP3      1047            0.0000000000
     25460      1239  TIP3      H1            -10.5574066809      -12.1364555738       32.0319254895  TIP3      1047            0.0000000000
     25461      1239  TIP3      H2             -9.1892916012      -12.3542704070       32.6933907977  TIP3      1047            0.0000000000
     25462      1240  TIP3      OH2            -9.1740830747       -6.5501005008       23.6647189199  TIP3      1048            0.0000000000
     25463      1240  TIP3      H1            -10.0074682275       -6.9598857535       23.3809522682  TIP3      1048            0.0000000000
     25464      1240  TIP3      H2             -9.3877622139       -6.3209672307       24.5974806219  TIP3      1048            0.0000000000
     25465      1241  TIP3      OH2            -1.9774183355       -7.3475682653       32.4935166898  TIP3      1049            0.0000000000
     25466      1241  TIP3      H1             -1.4415354951       -6.7984507636       31.8723801827  TIP3      1049            0.0000000000
     25467      1241  TIP3      H2             -2.8436632093       -7.2351522931       32.0323321403  TIP3      1049            0.0000000000
     25468      1242  TIP3      OH2            -5.3446065868      -13.6616921493       21.8404633633  TIP3      1050            0.0000000000
     25469      1242  TIP3      H1             -6.2876625489      -13.5170633433       21.7401304915  TIP3      1050            0.0000000000
     25470      1242  TIP3      H2             -5.0180879428      -12.8074743449       22.1927810892  TIP3      1050            0.0000000000
     25471      1243  TIP3      OH2            -7.6942353991       -6.2233153404       34.9206321616  TIP3      1051            0.0000000000
     25472      1243  TIP3      H1             -8.0429212572       -6.6448062852       35.7123280402  TIP3      1051            0.0000000000
     25473      1243  TIP3      H2             -7.9450500540       -5.2980804951       35.0339314232  TIP3      1051            0.0000000000
     25474      1244  TIP3      OH2            -4.5907528109      -11.7684695383       23.5566526615  TIP3      1052            0.0000000000
     25475      1244  TIP3      H1             -3.6900871388      -11.8933910740       23.9193778520  TIP3      1052            0.0000000000
     25476      1244  TIP3      H2             -4.5452055845      -10.9689225959       23.0017792816  TIP3      1052            0.0000000000
     25477      1245  TIP3      OH2           -14.0571650002       -7.0788702095       29.4969525727  TIP3      1053            0.0000000000
     25478      1245  TIP3      H1            -13.3807054948       -7.1733224029       28.8025447657  TIP3      1053            0.0000000000
     25479      1245  TIP3      H2            -14.0199635953       -7.9424034924       29.9367816276  TIP3      1053            0.0000000000
     25480      1246  TIP3      OH2            -7.0621820606       -5.0439168751       22.7288785276  TIP3      1054            0.0000000000
     25481      1246  TIP3      H1             -7.4027667399       -4.2001918681       23.0657898844  TIP3      1054            0.0000000000
     25482      1246  TIP3      H2             -7.8088981451       -5.6423959992       22.9454196830  TIP3      1054            0.0000000000
     25483      1247  TIP3      OH2           -17.0791804754       -8.7168207943       34.7314618493  TIP3      1055            0.0000000000
     25484      1247  TIP3      H1            -16.9282301555       -9.1155088434       35.6115612115  TIP3      1055            0.0000000000
     25485      1247  TIP3      H2            -17.7298814617       -9.3031550765       34.3127672830  TIP3      1055            0.0000000000
     25486      1248  TIP3      OH2           -10.0921948008       -9.1629263128       36.9095111490  TIP3      1056            0.0000000000
     25487      1248  TIP3      H1            -10.3643997299       -9.4312654962       36.0331661381  TIP3      1056            0.0000000000
     25488      1248  TIP3      H2             -9.1489849121       -9.4366421596       36.9295239334  TIP3      1056            0.0000000000
     25489      1249  TIP3      OH2            -5.3787189885       -3.7950511420       34.8805149082  TIP3      1057            0.0000000000
     25490      1249  TIP3      H1             -6.3028712882       -3.6149427759       34.6431201509  TIP3      1057            0.0000000000
     25491      1249  TIP3      H2             -5.4168351906       -3.5016090928       35.8108092410  TIP3      1057            0.0000000000
     25492      1250  TIP3      OH2             0.2586483809      -11.5916317935       23.2808498003  TIP3      1058            0.0000000000
     25493      1250  TIP3      H1             -0.2739305182      -11.9126509028       22.5423065883  TIP3      1058            0.0000000000
     25494      1250  TIP3      H2              0.3648331121      -10.6604984705       22.9846564606  TIP3      1058            0.0000000000
     25495      1251  TIP3      OH2             0.2580856985       -5.8042506013       36.0617029793  TIP3      1059            0.0000000000
     25496      1251  TIP3      H1             -0.6127423961       -5.4970387977       35.7128575739  TIP3      1059            0.0000000000
     25497      1251  TIP3      H2              0.8313282537       -5.7607152050       35.2677446666  TIP3      1059            0.0000000000
     25498      1252  TIP3      OH2            -1.3772215718       -2.7958951833       23.7054995752  TIP3      1060            0.0000000000
     25499      1252  TIP3      H1             -1.8173379415       -3.6068550789       23.9847902043  TIP3      1060            0.0000000000
     25500      1252  TIP3      H2             -1.1648597324       -2.9747981434       22.7640002105  TIP3      1060            0.0000000000
     25501      1253  TIP3      OH2            -4.2087390772       -7.9918570221       30.8083928177  TIP3      1061            0.0000000000
     25502      1253  TIP3      H1             -5.1537265184       -8.1517996149       30.6318119162  TIP3      1061            0.0000000000
     25503      1253  TIP3      H2             -3.7965936313       -8.7192407747       30.3034868401  TIP3      1061            0.0000000000
     25504      1254  TIP3      OH2           -11.6854389392       -3.6427340201       26.8445488596  TIP3      1062            0.0000000000
     25505      1254  TIP3      H1            -11.2109726831       -2.8196509824       26.6309501074  TIP3      1062            0.0000000000
     25506      1254  TIP3      H2            -12.5730456665       -3.4050192438       26.5444408546  TIP3      1062            0.0000000000
     25507      1255  TIP3      OH2           -15.8742764920       -8.7868765687       21.4069302989  TIP3      1063            0.0000000000
     25508      1255  TIP3      H1            -15.3422942046       -8.1137922804       21.8358715186  TIP3      1063            0.0000000000
     25509      1255  TIP3      H2            -16.7809457816       -8.5608230981       21.6988923517  TIP3      1063            0.0000000000
     25510      1256  TIP3      OH2           -10.2964349214       -5.9690323211       26.3616265422  TIP3      1064            0.0000000000
     25511      1256  TIP3      H1            -10.5999909067       -5.0438525126       26.4589165246  TIP3      1064            0.0000000000
     25512      1256  TIP3      H2            -10.9995727468       -6.4450342213       26.8389427422  TIP3      1064            0.0000000000
     25513      1257  TIP3      OH2            -9.8355194126       -1.7863889876       32.8022523804  TIP3      1065            0.0000000000
     25514      1257  TIP3      H1             -9.3706128882       -0.9848289226       32.5121676452  TIP3      1065            0.0000000000
     25515      1257  TIP3      H2             -9.2162237155       -2.1314778853       33.4721189776  TIP3      1065            0.0000000000
     25516      1258  TIP3      OH2           -11.5998376265       -1.0137081942       26.0343524804  TIP3      1066            0.0000000000
     25517      1258  TIP3      H1            -12.5672626783       -0.8567028402       26.0296919784  TIP3      1066            0.0000000000
     25518      1258  TIP3      H2            -11.2496978577       -0.1323635114       26.2318292681  TIP3      1066            0.0000000000
     25519      1259  TIP3      OH2            -6.3080285356       -5.7905285412       32.4206088617  TIP3      1067            0.0000000000
     25520      1259  TIP3      H1             -6.6435449923       -5.9831673183       33.3223539439  TIP3      1067            0.0000000000
     25521      1259  TIP3      H2             -5.6863217453       -6.5088884697       32.2355580696  TIP3      1067            0.0000000000
     25522      1260  TIP3      OH2            -4.0036555548       -4.7929595464       21.5138424564  TIP3      1068            0.0000000000
     25523      1260  TIP3      H1             -3.6851123232       -5.2159593094       22.3284124437  TIP3      1068            0.0000000000
     25524      1260  TIP3      H2             -4.9609369723       -4.8568070262       21.6098452592  TIP3      1068            0.0000000000
     25525      1261  TIP3      OH2            -3.4826762549       -1.2110423406       34.9019318159  TIP3      1069            0.0000000000
     25526      1261  TIP3      H1             -4.1825446495       -1.7012390389       34.4267222877  TIP3      1069            0.0000000000
     25527      1261  TIP3      H2             -3.3086736825       -0.5085703629       34.2380943159  TIP3      1069            0.0000000000
     25528      1262  TIP3      OH2           -15.4342631916      -13.9258906712       34.2890444743  TIP3      1070            0.0000000000
     25529      1262  TIP3      H1            -16.3522672496      -13.5946704758       34.2949385245  TIP3      1070            0.0000000000
     25530      1262  TIP3      H2            -15.5337622197      -14.7805650142       34.7557681727  TIP3      1070            0.0000000000
     25531      1263  TIP3      OH2            -3.1959436652       -6.0834348900       23.7887368902  TIP3      1071            0.0000000000
     25532      1263  TIP3      H1             -3.4342596212       -6.8853023584       24.2978741020  TIP3      1071            0.0000000000
     25533      1263  TIP3      H2             -2.2391830410       -6.0469477628       23.9294726676  TIP3      1071            0.0000000000
     25534      1264  TIP3      OH2           -15.8189886575       -2.1745239328       32.7190127716  TIP3      1072            0.0000000000
     25535      1264  TIP3      H1            -15.5100809548       -3.0932049226       32.7265320754  TIP3      1072            0.0000000000
     25536      1264  TIP3      H2            -15.5571389873       -1.8805543289       33.5985481828  TIP3      1072            0.0000000000
     25537      1265  TIP3      OH2           -14.5426928379       -6.8742325605       22.9233287258  TIP3      1073            0.0000000000
     25538      1265  TIP3      H1            -15.2227095558       -6.4933852681       23.4876374642  TIP3      1073            0.0000000000
     25539      1265  TIP3      H2            -14.0510497066       -6.0723113103       22.6904396377  TIP3      1073            0.0000000000
     25540      1266  TIP3      OH2            -6.6912187215      -14.1739112617       33.2565935415  TIP3      1074            0.0000000000
     25541      1266  TIP3      H1             -5.9801091430      -14.1218888807       33.9023045549  TIP3      1074            0.0000000000
     25542      1266  TIP3      H2             -7.0799009218      -15.0491459916       33.4619564048  TIP3      1074            0.0000000000
     25543      1267  TIP3      OH2            -5.9397904230      -14.6211342008       24.3218016204  TIP3      1075            0.0000000000
     25544      1267  TIP3      H1             -5.7145762356      -14.1232282039       23.5219632603  TIP3      1075            0.0000000000
     25545      1267  TIP3      H2             -5.3926609492      -14.1735355897       24.9826861439  TIP3      1075            0.0000000000
     25546      1268  TIP3      OH2            -8.7959746765      -12.7731373374       25.1315630128  TIP3      1076            0.0000000000
     25547      1268  TIP3      H1             -7.9360786379      -12.2976158314       25.2001354735  TIP3      1076            0.0000000000
     25548      1268  TIP3      H2             -8.9783310987      -13.0183950217       26.0649334340  TIP3      1076            0.0000000000
     25549      1269  TIP3      OH2            -8.1932411386      -11.8513448776       34.3716871702  TIP3      1077            0.0000000000
     25550      1269  TIP3      H1             -8.0681039587      -11.2777168661       35.1544924440  TIP3      1077            0.0000000000
     25551      1269  TIP3      H2             -7.5018315033      -12.5242713495       34.4388854058  TIP3      1077            0.0000000000
     25552      1270  TIP3      OH2            -7.8523376862      -15.7693778772       26.0849126642  TIP3      1078            0.0000000000
     25553      1270  TIP3      H1             -8.1956646448      -15.1205215414       26.7206996835  TIP3      1078            0.0000000000
     25554      1270  TIP3      H2             -7.1619724158      -15.2442409167       25.6155560359  TIP3      1078            0.0000000000
     25555      1271  TIP3      OH2           -12.2035079727      -14.6935779591       22.7270850122  TIP3      1079            0.0000000000
     25556      1271  TIP3      H1            -12.2848418952      -13.8431715604       23.1566609763  TIP3      1079            0.0000000000
     25557      1271  TIP3      H2            -11.3188363130      -14.9946792870       23.0171475521  TIP3      1079            0.0000000000
     25558      1272  TIP3      OH2            -1.9926132883      -13.9741068510       35.1918934348  TIP3      1080            0.0000000000
     25559      1272  TIP3      H1             -2.9266132134      -13.6787266560       35.0701101822  TIP3      1080            0.0000000000
     25560      1272  TIP3      H2             -1.6954643280      -14.0100289337       34.2680371941  TIP3      1080            0.0000000000
     25561      1273  TIP3      OH2            -3.3809377427      -10.1695605694       29.2412957630  TIP3      1081            0.0000000000
     25562      1273  TIP3      H1             -4.1966464835      -10.6147306236       28.9380864888  TIP3      1081            0.0000000000
     25563      1273  TIP3      H2             -2.9020813907      -10.8832190823       29.7150571605  TIP3      1081            0.0000000000
     25564      1274  TIP3      OH2           -13.9536960810       -4.2916081467       21.8984362320  TIP3      1082            0.0000000000
     25565      1274  TIP3      H1            -13.3625436157       -3.5566590420       22.1408871368  TIP3      1082            0.0000000000
     25566      1274  TIP3      H2            -13.5259647632       -4.6609344403       21.1422565663  TIP3      1082            0.0000000000
     25567      1275  TIP3      OH2            -2.3169945363       -0.9428109471       30.8469875539  TIP3      1083            0.0000000000
     25568      1275  TIP3      H1             -2.4220086244       -0.2100392051       30.2257867051  TIP3      1083            0.0000000000
     25569      1275  TIP3      H2             -1.3627405199       -0.8736630936       31.0803971228  TIP3      1083            0.0000000000
     25570      1276  TIP3      OH2           -14.8534048001      -16.7883313226       29.6722390858  TIP3      1084            0.0000000000
     25571      1276  TIP3      H1            -15.0099121934      -16.8006125696       28.7014155447  TIP3      1084            0.0000000000
     25572      1276  TIP3      H2            -15.2540326462      -17.6519473437       29.9280314452  TIP3      1084            0.0000000000
     25573      1277  TIP3      OH2           -15.9092323197       -2.8878368066       25.8006797018  TIP3      1085            0.0000000000
     25574      1277  TIP3      H1            -16.7314904915       -2.3843407178       25.7865455874  TIP3      1085            0.0000000000
     25575      1277  TIP3      H2            -15.3719993132       -2.4224884945       25.1403180712  TIP3      1085            0.0000000000
     25576      1278  TIP3      OH2           -16.6430488269       -0.2319498200       37.0815860343  TIP3      1086            0.0000000000
     25577      1278  TIP3      H1            -16.0703443611       -0.4178884036       37.8532558333  TIP3      1086            0.0000000000
     25578      1278  TIP3      H2            -17.0950416544       -1.0835853294       36.9611940582  TIP3      1086            0.0000000000
     25579      1279  TIP3      OH2           -11.9721888694       -1.3411108556       38.7192159261  TIP3      1087            0.0000000000
     25580      1279  TIP3      H1            -11.2007929091       -1.8140779586       39.0494731417  TIP3      1087            0.0000000000
     25581      1279  TIP3      H2            -11.9950663750       -1.5981351600       37.7769086551  TIP3      1087            0.0000000000
     25582      1280  TIP3      OH2            -5.5036337815       -2.9138815037       37.4627515882  TIP3      1088            0.0000000000
     25583      1280  TIP3      H1             -5.8030712775       -3.8077100229       37.7309244825  TIP3      1088            0.0000000000
     25584      1280  TIP3      H2             -4.7114402011       -2.7982868320       38.0236781329  TIP3      1088            0.0000000000
     25585      1281  TIP3      OH2           -16.7706989524       -6.4843816769       38.1089491332  TIP3      1089            0.0000000000
     25586      1281  TIP3      H1            -16.5741425579       -7.3791265755       37.7677716160  TIP3      1089            0.0000000000
     25587      1281  TIP3      H2            -17.4859722616       -6.2003744923       37.5118419658  TIP3      1089            0.0000000000
     25588      1282  TIP3      OH2           -10.0267037998       -6.4791472773       37.4625386056  TIP3      1090            0.0000000000
     25589      1282  TIP3      H1            -10.3766814776       -6.1525712000       36.6138126214  TIP3      1090            0.0000000000
     25590      1282  TIP3      H2             -9.9679518660       -7.4556432100       37.3525167487  TIP3      1090            0.0000000000
     25591      1283  TIP3      OH2            -7.0421244998       -5.0464637770       19.8778226476  TIP3      1091            0.0000000000
     25592      1283  TIP3      H1             -7.2027149677       -4.8992445755       20.8241590973  TIP3      1091            0.0000000000
     25593      1283  TIP3      H2             -7.1347895774       -5.9883193046       19.7742970533  TIP3      1091            0.0000000000
     25594      1284  TIP3      OH2            -4.3208642697       -6.6223829821       34.8732818993  TIP3      1092            0.0000000000
     25595      1284  TIP3      H1             -3.5651712698       -5.9952512101       34.8343026523  TIP3      1092            0.0000000000
     25596      1284  TIP3      H2             -5.0397884869       -5.9639009015       34.9266166271  TIP3      1092            0.0000000000
     25597      1285  TIP3      OH2           -15.8070074386       -9.2290611566       37.4948276076  TIP3      1093            0.0000000000
     25598      1285  TIP3      H1            -15.4249391659      -10.1082330379       37.4296030695  TIP3      1093            0.0000000000
     25599      1285  TIP3      H2            -16.0481984442       -9.1940051606       38.4422801288  TIP3      1093            0.0000000000
     25600      1286  TIP3      OH2           -11.1328286862       -8.0704878245       22.4995128652  TIP3      1094            0.0000000000
     25601      1286  TIP3      H1            -11.6964028527       -8.4513327303       23.1920654614  TIP3      1094            0.0000000000
     25602      1286  TIP3      H2            -10.8605728611       -8.7258329351       21.8311542617  TIP3      1094            0.0000000000
     25603      1287  TIP3      OH2           -12.0424144346      -10.3427184614       34.7134776639  TIP3      1095            0.0000000000
     25604      1287  TIP3      H1            -12.4926364403       -9.5774125085       35.1239926512  TIP3      1095            0.0000000000
     25605      1287  TIP3      H2            -11.4883435127       -9.8595721840       34.0640311831  TIP3      1095            0.0000000000
     25606      1288  TIP3      OH2            -6.8523074110       -7.7101967411       38.2620258185  TIP3      1096            0.0000000000
     25607      1288  TIP3      H1             -5.9094282159       -7.7439462624       38.0691169928  TIP3      1096            0.0000000000
     25608      1288  TIP3      H2             -7.0215391389       -8.5034113635       38.7937319913  TIP3      1096            0.0000000000
     25609      1289  TIP3      OH2           -11.6321251329      -12.8977395831       35.8333139770  TIP3      1097            0.0000000000
     25610      1289  TIP3      H1            -11.3340947578      -13.6293881802       35.2545319018  TIP3      1097            0.0000000000
     25611      1289  TIP3      H2            -11.4547226005      -12.0553564948       35.3808218037  TIP3      1097            0.0000000000
     25612      1290  TIP3      OH2           -11.1770954479      -14.4015903889       33.4791209183  TIP3      1098            0.0000000000
     25613      1290  TIP3      H1            -10.5860027518      -14.0957613797       32.7400156587  TIP3      1098            0.0000000000
     25614      1290  TIP3      H2            -11.9939632966      -14.6857030227       33.0082193100  TIP3      1098            0.0000000000
     25615      1291  TIP3      OH2            -9.6305298050       -9.0653467672       33.6636427434  TIP3      1099            0.0000000000
     25616      1291  TIP3      H1             -8.8297822125       -9.1877361210       33.1398084714  TIP3      1099            0.0000000000
     25617      1291  TIP3      H2             -9.9379535643       -8.1892562516       33.3680499013  TIP3      1099            0.0000000000
     25618      1292  TIP3      OH2            -5.1953116523      -11.3026053812       38.6465023156  TIP3      1100            0.0000000000
     25619      1292  TIP3      H1             -4.9716401099      -12.2430759886       38.5787842417  TIP3      1100            0.0000000000
     25620      1292  TIP3      H2             -4.3239129428      -10.8789684999       38.6819940138  TIP3      1100            0.0000000000
     25621      1293  TIP3      OH2            -3.8357441739       -8.4975650418       36.8122787145  TIP3      1101            0.0000000000
     25622      1293  TIP3      H1             -4.1158762444       -7.7467816215       36.2398131319  TIP3      1101            0.0000000000
     25623      1293  TIP3      H2             -2.8740434453       -8.4870739136       36.6710813004  TIP3      1101            0.0000000000
     25624      1294  TIP3      OH2           -13.0749893218      -11.6600845954       37.8376080043  TIP3      1102            0.0000000000
     25625      1294  TIP3      H1            -13.8559114196      -12.2248402491       37.6602469689  TIP3      1102            0.0000000000
     25626      1294  TIP3      H2            -12.4265616906      -12.0277574271       37.2085429160  TIP3      1102            0.0000000000
     25627      1295  TIP3      OH2           -10.3508257743      -17.0770806471       33.8604991166  TIP3      1103            0.0000000000
     25628      1295  TIP3      H1            -10.5120649354      -16.1230455374       33.7455077239  TIP3      1103            0.0000000000
     25629      1295  TIP3      H2            -11.0755262079      -17.4725534637       33.3397999333  TIP3      1103            0.0000000000
     25630      1296  TIP3      OH2            -9.0731212356      -12.7442344761       37.4837835202  TIP3      1104            0.0000000000
     25631      1296  TIP3      H1             -9.3763313010      -12.9765317802       38.3847875951  TIP3      1104            0.0000000000
     25632      1296  TIP3      H2             -9.8391073208      -12.9701380156       36.9379728041  TIP3      1104            0.0000000000
     25633      1297  TIP3      OH2            -6.3393971690      -13.6319763440       36.5406844383  TIP3      1105            0.0000000000
     25634      1297  TIP3      H1             -7.2964159833      -13.5611214062       36.6824639250  TIP3      1105            0.0000000000
     25635      1297  TIP3      H2             -6.0747888106      -14.2507102445       37.2491326252  TIP3      1105            0.0000000000
     25636      1298  TIP3      OH2            -4.8005356812      -14.9937608279       38.4577782358  TIP3      1106            0.0000000000
     25637      1298  TIP3      H1             -4.8116153831      -15.9681371135       38.4979717552  TIP3      1106            0.0000000000
     25638      1298  TIP3      H2             -5.0242560120      -14.6964324618       39.3723127395  TIP3      1106            0.0000000000
     25639      1299  TIP3      OH2           -14.9777088865      -13.7130845377       37.5749056313  TIP3      1107            0.0000000000
     25640      1299  TIP3      H1            -14.7573354078      -14.4766703120       37.0123812186  TIP3      1107            0.0000000000
     25641      1299  TIP3      H2            -15.0800518816      -14.1400028992       38.4547597049  TIP3      1107            0.0000000000
     25642      1300  TIP3      OH2           -10.1152049208      -17.6990279669       36.5450939708  TIP3      1108            0.0000000000
     25643      1300  TIP3      H1             -9.4464155323      -18.4135102530       36.5274527581  TIP3      1108            0.0000000000
     25644      1300  TIP3      H2            -10.2306085529      -17.5473211835       35.5876587479  TIP3      1108            0.0000000000
     25645      1301  TIP3      OH2            -9.7751530416      -16.0934249398       38.6465250421  TIP3      1109            0.0000000000
     25646      1301  TIP3      H1             -9.9382264447      -16.5943473055       37.8109386149  TIP3      1109            0.0000000000
     25647      1301  TIP3      H2            -10.3469692807      -15.3097482317       38.5389953549  TIP3      1109            0.0000000000
     25648      1302  TIP3      OH2           -17.9604968859        0.7903517286       26.2736823572  TIP3      1110            0.0000000000
     25649      1302  TIP3      H1            -18.6639256598        0.2958858596       25.8010465874  TIP3      1110            0.0000000000
     25650      1302  TIP3      H2            -17.6727885497        0.1353129428       26.9400906265  TIP3      1110            0.0000000000
     25651      1303  TIP3      OH2           -17.1336158752       -1.1065520321       28.1201662269  TIP3      1111            0.0000000000
     25652      1303  TIP3      H1            -17.4906774755       -1.9662057684       28.3715470091  TIP3      1111            0.0000000000
     25653      1303  TIP3      H2            -16.9097241499       -0.7465886944       28.9966014056  TIP3      1111            0.0000000000
     25654      1304  TIP3      OH2             0.3639841381       -0.2131967294       31.0565119095  TIP3      1112            0.0000000000
     25655      1304  TIP3      H1              0.4372817205       -0.1302605212       32.0284265917  TIP3      1112            0.0000000000
     25656      1304  TIP3      H2              1.1417060469        0.2901440531       30.7878774968  TIP3      1112            0.0000000000
     25657      1305  TIP3      OH2            -0.0188961382       -0.6838613781       34.0224824193  TIP3      1113            0.0000000000
     25658      1305  TIP3      H1             -0.4936667812       -1.4508551591       33.6373570004  TIP3      1113            0.0000000000
     25659      1305  TIP3      H2              0.4650359582       -1.1378742842       34.7353970818  TIP3      1113            0.0000000000
     25660      1306  TIP3      OH2            -1.5707622783       -4.9754192314       38.6918865541  TIP3      1114            0.0000000000
     25661      1306  TIP3      H1             -2.4708133040       -4.9818042375       39.0731429203  TIP3      1114            0.0000000000
     25662      1306  TIP3      H2             -1.2023123538       -4.1630593419       39.1025537121  TIP3      1114            0.0000000000
     25663      1307  TIP3      OH2            -0.2567497502       -6.6652268556       24.1338121126  TIP3      1115            0.0000000000
     25664      1307  TIP3      H1              0.5707158405       -6.2390206873       24.3303072963  TIP3      1115            0.0000000000
     25665      1307  TIP3      H2             -0.2823708032       -7.3766890104       24.8109204864  TIP3      1115            0.0000000000
     25666      1308  TIP3      OH2             0.1039860288       -8.5455585971       25.9908699578  TIP3      1116            0.0000000000
     25667      1308  TIP3      H1             -0.6514589933       -9.0477200109       26.3733549923  TIP3      1116            0.0000000000
     25668      1308  TIP3      H2              0.6909107234       -8.4283362574       26.7636841074  TIP3      1116            0.0000000000
     25669      1309  TIP3      OH2            -0.1442402568       -5.8830321389       31.0262594395  TIP3      1117            0.0000000000
     25670      1309  TIP3      H1              0.6620055543       -6.2359057710       30.6043690212  TIP3      1117            0.0000000000
     25671      1309  TIP3      H2             -0.0138566093       -4.9231933356       30.8316095942  TIP3      1117            0.0000000000
     25672      1310  TIP3      OH2            -1.5874369326       -2.9503369340       33.2638607394  TIP3      1118            0.0000000000
     25673      1310  TIP3      H1             -2.2769953960       -2.6094155478       33.8520386534  TIP3      1118            0.0000000000
     25674      1310  TIP3      H2             -2.1357136286       -3.3287911044       32.5439151956  TIP3      1118            0.0000000000
     25675      1311  TIP3      OH2             0.4443267325       -8.7179338054       22.4143629880  TIP3      1119            0.0000000000
     25676      1311  TIP3      H1             -0.1318262185       -8.4406144670       21.6785383965  TIP3      1119            0.0000000000
     25677      1311  TIP3      H2              0.3108355632       -7.9890581994       23.0402961546  TIP3      1119            0.0000000000
     25678      1312  TIP3      OH2            -2.0950736027      -10.0818387180       26.5672278771  TIP3      1120            0.0000000000
     25679      1312  TIP3      H1             -2.2226964507      -11.0423467959       26.5478635575  TIP3      1120            0.0000000000
     25680      1312  TIP3      H2             -2.4036910332       -9.8660151532       27.4655198596  TIP3      1120            0.0000000000
     25681      1313  TIP3      OH2           -17.0788123228       -7.9909429860       30.6445263071  TIP3      1121            0.0000000000
     25682      1313  TIP3      H1            -16.9047137830       -8.0751683459       29.6808894450  TIP3      1121            0.0000000000
     25683      1313  TIP3      H2            -16.1831058946       -8.1674823965       30.9904073699  TIP3      1121            0.0000000000
     25684      1314  TIP3      OH2            -1.2025558980       -8.1274649927       36.1869288008  TIP3      1122            0.0000000000
     25685      1314  TIP3      H1             -0.5915810538       -8.8539576991       36.4734046897  TIP3      1122            0.0000000000
     25686      1314  TIP3      H2             -0.6278864001       -7.3243800348       36.2999259077  TIP3      1122            0.0000000000
     25687      1315  TIP3      OH2             0.2624082948      -10.2231744585       36.8637572236  TIP3      1123            0.0000000000
     25688      1315  TIP3      H1             -0.6037622936      -10.6752088957       36.7968159589  TIP3      1123            0.0000000000
     25689      1315  TIP3      H2              0.8570851871      -10.9992332658       36.8721640193  TIP3      1123            0.0000000000
     25690      1316  TIP3      OH2            -2.4042495051      -12.5070153643       25.0585855871  TIP3      1124            0.0000000000
     25691      1316  TIP3      H1             -2.1091731370      -13.4395213156       25.1613945567  TIP3      1124            0.0000000000
     25692      1316  TIP3      H2             -1.6122483105      -12.1040867875       24.6660289364  TIP3      1124            0.0000000000
     25693      1317  TIP3      OH2            -1.7761551168      -11.9351429925       30.4939405945  TIP3      1125            0.0000000000
     25694      1317  TIP3      H1             -0.8098163265      -11.7359703089       30.4600201153  TIP3      1125            0.0000000000
     25695      1317  TIP3      H2             -1.9591573360      -11.8458626814       31.4310291447  TIP3      1125            0.0000000000
     25696      1318  TIP3      OH2            -1.6928729104      -11.2334428520       33.3552346912  TIP3      1126            0.0000000000
     25697      1318  TIP3      H1             -2.6391907168      -11.0106530700       33.5171095848  TIP3      1126            0.0000000000
     25698      1318  TIP3      H2             -1.2807065538      -10.4933747770       32.8559539810  TIP3      1126            0.0000000000
     25699      1319  TIP3      OH2           -17.4521336365      -12.7161631807       36.7459007385  TIP3      1127            0.0000000000
     25700      1319  TIP3      H1            -16.5239207856      -12.8918743910       37.0059332955  TIP3      1127            0.0000000000
     25701      1319  TIP3      H2            -17.9004969000      -13.5171855132       37.0971577185  TIP3      1127            0.0000000000
     25702      1320  TIP3      OH2             0.5781664132      -17.1759331195       38.5915390115  TIP3      1128            0.0000000000
     25703      1320  TIP3      H1              0.9366867945      -17.8535794065       37.9926122020  TIP3      1128            0.0000000000
     25704      1320  TIP3      H2              0.6712031293      -16.3634522467       38.0625619607  TIP3      1128            0.0000000000
     25705      1321  TIP3      OH2            -1.7272809016      -15.2126258007       25.0670566661  TIP3      1129            0.0000000000
     25706      1321  TIP3      H1             -1.5422559276      -15.6479569000       25.9251989853  TIP3      1129            0.0000000000
     25707      1321  TIP3      H2             -2.3651915818      -15.8482395312       24.6577972121  TIP3      1129            0.0000000000
     25708      1322  TIP3      OH2           -16.2669947942      -14.3944711422       29.7038369703  TIP3      1130            0.0000000000
     25709      1322  TIP3      H1            -15.7888829318      -15.2354519848       29.8853028662  TIP3      1130            0.0000000000
     25710      1322  TIP3      H2            -15.6721191976      -13.7101888692       30.0257638176  TIP3      1130            0.0000000000
     25711      1323  TIP3      OH2           -17.9500887562      -11.4336806765       30.7284236608  TIP3      1131            0.0000000000
     25712      1323  TIP3      H1            -17.4346783655      -11.6562311664       29.9213219211  TIP3      1131            0.0000000000
     25713      1323  TIP3      H2            -17.5193450074      -10.5833615886       30.9218040901  TIP3      1131            0.0000000000
     25714      1324  TIP3      OH2             0.0834984597      -15.0658654142       36.9584644484  TIP3      1132            0.0000000000
     25715      1324  TIP3      H1             -0.8547607883      -14.7916484044       36.9260206806  TIP3      1132            0.0000000000
     25716      1324  TIP3      H2              0.1085210192      -15.6190961093       36.1628263957  TIP3      1132            0.0000000000
     25717      1325  TIP3      OH2            -2.9918917580       -0.2791391817       26.5350039056  TIP3      1133            0.0000000000
     25718      1325  TIP3      H1             -2.2533318081       -0.5889196068       25.9654363312  TIP3      1133            0.0000000000
     25719      1325  TIP3      H2             -2.6601318745       -0.0248667698       27.3846494072  TIP3      1133            0.0000000000
     25720      1326  TIP3      OH2           -17.6580088495      -16.4805477469       33.0627555963  TIP3      1134            0.0000000000
     25721      1326  TIP3      H1            -18.3353486883      -16.7422377091       33.7162209989  TIP3      1134            0.0000000000
     25722      1326  TIP3      H2            -18.1224391829      -15.8487736173       32.4902259934  TIP3      1134            0.0000000000
     25723      1327  TIP3      OH2           -15.4169155484       -3.2752213058       37.2185902768  TIP3      1135            0.0000000000
     25724      1327  TIP3      H1            -16.2591717459       -3.0700315163       36.7833828644  TIP3      1135            0.0000000000
     25725      1327  TIP3      H2            -15.6874049490       -3.3456267339       38.1418621995  TIP3      1135            0.0000000000
     25726      1328  TIP3      OH2           -12.5233866524       -2.2812644016       33.4886945592  TIP3      1136            0.0000000000
     25727      1328  TIP3      H1            -12.8499243648       -1.4119832936       33.2190631018  TIP3      1136            0.0000000000
     25728      1328  TIP3      H2            -11.5965747958       -2.2002040705       33.1832535162  TIP3      1136            0.0000000000
     25729      1329  TIP3      OH2            -8.2069058324       -0.8637730288       36.3911492736  TIP3      1137            0.0000000000
     25730      1329  TIP3      H1             -8.0762942963       -1.2086568170       37.3062662692  TIP3      1137            0.0000000000
     25731      1329  TIP3      H2             -7.3013491784       -0.5583721441       36.1676862297  TIP3      1137            0.0000000000
     25732      1330  TIP3      OH2            -5.9169420248        0.4080754245       35.7037489510  TIP3      1138            0.0000000000
     25733      1330  TIP3      H1             -5.1875513684       -0.1786515741       35.4661320089  TIP3      1138            0.0000000000
     25734      1330  TIP3      H2             -5.5424845019        0.8485348955       36.4968926730  TIP3      1138            0.0000000000
     25735      1331  TIP3      OH2            -0.9203242486      -17.0031338215       34.8313706639  TIP3      1139            0.0000000000
     25736      1331  TIP3      H1             -1.7169296947      -16.6630169360       34.3920025876  TIP3      1139            0.0000000000
     25737      1331  TIP3      H2             -0.7192004118      -17.7923513489       34.2813968066  TIP3      1139            0.0000000000
     25738      1332  TIP3      OH2           -15.0985268788        0.9524247102       33.4769924979  TIP3      1140            0.0000000000
     25739      1332  TIP3      H1            -15.8313794954        1.4539218735       33.0847694544  TIP3      1140            0.0000000000
     25740      1332  TIP3      H2            -15.4059088951        0.7620801947       34.3753983315  TIP3      1140            0.0000000000
     25741      1333  TIP3      OH2           -12.6313427691        0.5288320290       32.5508192758  TIP3      1141            0.0000000000
     25742      1333  TIP3      H1            -13.5227688571        0.6862778379       32.9453318177  TIP3      1141            0.0000000000
     25743      1333  TIP3      H2            -12.6835852386        1.1189286733       31.7784416287  TIP3      1141            0.0000000000
     25744      1334  TIP3      OH2            -7.9224518089        0.4445654606       31.7234930980  TIP3      1142            0.0000000000
     25745      1334  TIP3      H1             -8.3864770566        1.0001598779       31.0788038848  TIP3      1142            0.0000000000
     25746      1334  TIP3      H2             -7.7919430417        1.0755644363       32.4641072102  TIP3      1142            0.0000000000
     25747      1335  TIP3      OH2            -5.6432098250       -0.7563340905       32.7652578771  TIP3      1143            0.0000000000
     25748      1335  TIP3      H1             -6.4888905684       -0.4719941613       32.3822386784  TIP3      1143            0.0000000000
     25749      1335  TIP3      H2             -5.1527889704        0.0770216698       32.6760006620  TIP3      1143            0.0000000000
     25750      1336  TIP3      OH2            -3.0540575120        0.8131336876       32.9714894556  TIP3      1144            0.0000000000
     25751      1336  TIP3      H1             -3.1097964447        1.7781995198       32.7587857385  TIP3      1144            0.0000000000
     25752      1336  TIP3      H2             -2.8424258626        0.4442332859       32.0997439172  TIP3      1144            0.0000000000
     25753      1337  TIP3      OH2           -15.6399565189       -0.3992384128       30.4254700882  TIP3      1145            0.0000000000
     25754      1337  TIP3      H1            -15.7193046124       -0.8584913243       31.2858768852  TIP3      1145            0.0000000000
     25755      1337  TIP3      H2            -14.8225706231       -0.7808304288       30.0374676974  TIP3      1145            0.0000000000
     25756      1338  TIP3      OH2           -13.5741219505       -1.6875803149       29.0942017446  TIP3      1146            0.0000000000
     25757      1338  TIP3      H1            -13.7285919713       -2.6268106761       29.3085138240  TIP3      1146            0.0000000000
     25758      1338  TIP3      H2            -12.7043300094       -1.5332713442       29.5197808521  TIP3      1146            0.0000000000
     25759      1339  TIP3      OH2           -10.9550919346       -1.2096373317       29.9575900249  TIP3      1147            0.0000000000
     25760      1339  TIP3      H1            -10.8064451694       -2.1325358309       29.6874597343  TIP3      1147            0.0000000000
     25761      1339  TIP3      H2            -10.9129019299       -1.2655771659       30.9237176516  TIP3      1147            0.0000000000
     25762      1340  TIP3      OH2            -7.5073780625      -15.5537234284       29.0963187107  TIP3      1148            0.0000000000
     25763      1340  TIP3      H1             -8.1838687675      -16.1937479398       29.3747884194  TIP3      1148            0.0000000000
     25764      1340  TIP3      H2             -6.9565893617      -16.0880945226       28.5116206632  TIP3      1148            0.0000000000
     25765      1341  TIP3      OH2            -2.3722710904      -17.5157949219       29.1593809998  TIP3      1149            0.0000000000
     25766      1341  TIP3      H1             -1.7606268931      -16.9171224536       28.6609504943  TIP3      1149            0.0000000000
     25767      1341  TIP3      H2             -3.2540547603      -17.1548102350       28.9242764959  TIP3      1149            0.0000000000
     25768      1342  TIP3      OH2            -0.7095451946      -16.2639554070       27.4272688293  TIP3      1150            0.0000000000
     25769      1342  TIP3      H1             -0.0128179070      -16.8358164709       27.0276208055  TIP3      1150            0.0000000000
     25770      1342  TIP3      H2             -0.2053748554      -15.4287511742       27.5744204426  TIP3      1150            0.0000000000
     25771      1343  TIP3      OH2           -15.1397880515      -16.9199245486       26.9810202524  TIP3      1151            0.0000000000
     25772      1343  TIP3      H1            -15.8951810222      -17.1442058790       26.4132756813  TIP3      1151            0.0000000000
     25773      1343  TIP3      H2            -14.6575004364      -17.7741150246       26.8859316463  TIP3      1151            0.0000000000
     25774      1344  TIP3      OH2           -10.6866060354      -16.9762406029       26.7458192462  TIP3      1152            0.0000000000
     25775      1344  TIP3      H1             -9.7736404960      -16.6573758070       26.6382837498  TIP3      1152            0.0000000000
     25776      1344  TIP3      H2            -10.6900319505      -17.2396887399       27.6644609642  TIP3      1152            0.0000000000
     25777      1345  TIP3      OH2            -4.9543687584      -16.9836976148       28.3575476547  TIP3      1153            0.0000000000
     25778      1345  TIP3      H1             -4.9953882624      -16.8821631252       27.3971555057  TIP3      1153            0.0000000000
     25779      1345  TIP3      H2             -5.3400629163      -17.8847096649       28.4832362925  TIP3      1153            0.0000000000
     25780      1346  TIP3      OH2            -3.6889947548      -16.9104507445       24.1337211630  TIP3      1154            0.0000000000
     25781      1346  TIP3      H1             -4.4346443781      -16.3787186386       23.8379873257  TIP3      1154            0.0000000000
     25782      1346  TIP3      H2             -4.0845052075      -17.8155279023       24.2142894375  TIP3      1154            0.0000000000
     25783      1347  TIP3      OH2           -16.5652440272       -1.2331321657       23.6800296318  TIP3      1155            0.0000000000
     25784      1347  TIP3      H1            -17.0706029241       -1.1461035365       22.8640223620  TIP3      1155            0.0000000000
     25785      1347  TIP3      H2            -16.3611675914       -0.2901383821       23.8342533332  TIP3      1155            0.0000000000
     25786      1348  TIP3      OH2            -9.6069189150      -14.9462189359       23.6205343742  TIP3      1156            0.0000000000
     25787      1348  TIP3      H1             -9.2720147340      -15.5674334108       24.2892277243  TIP3      1156            0.0000000000
     25788      1348  TIP3      H2             -9.4002140134      -14.1061102292       24.0639171095  TIP3      1156            0.0000000000
     25789      1349  TIP3      OH2            -0.9220282296       -0.3819653276       24.7614670976  TIP3      1157            0.0000000000
     25790      1349  TIP3      H1             -1.1049399211       -1.1785213208       24.1975110243  TIP3      1157            0.0000000000
     25791      1349  TIP3      H2             -0.9389529184        0.3170450261       24.0596300507  TIP3      1157            0.0000000000
     25792      1350  TIP3      OH2           -15.2463865271      -16.3646667172       36.3640774156  TIP3      1158            0.0000000000
     25793      1350  TIP3      H1            -15.6487973352      -17.1526604059       36.7783919929  TIP3      1158            0.0000000000
     25794      1350  TIP3      H2            -14.3518723274      -16.4276458456       36.7675957640  TIP3      1158            0.0000000000
     25795      1351  TIP3      OH2           -13.2585230336      -16.9895679699       38.0491267068  TIP3      1159            0.0000000000
     25796      1351  TIP3      H1            -12.3782980981      -17.3380934367       37.7982803156  TIP3      1159            0.0000000000
     25797      1351  TIP3      H2            -13.6297930529      -17.7971326309       38.4558711608  TIP3      1159            0.0000000000
     25798      1352  TIP3      OH2           -14.5930749118       -0.2351745215       20.6580593991  TIP3      1160            0.0000000000
     25799      1352  TIP3      H1            -14.9407760651        0.0168206314       21.5189234175  TIP3      1160            0.0000000000
     25800      1352  TIP3      H2            -13.8243289026       -0.7751709479       20.8514260846  TIP3      1160            0.0000000000
     25801      1353  TIP3      OH2            -4.8390645064      -17.7620285960       38.1671850231  TIP3      1161            0.0000000000
     25802      1353  TIP3      H1             -4.7439391848      -18.1703165245       39.0496124140  TIP3      1161            0.0000000000
     25803      1353  TIP3      H2             -3.9144898622      -17.7295253228       37.8476472498  TIP3      1161            0.0000000000
     25804      1354  TIP3      OH2            -1.6422328303       -1.6643798955       36.8476695058  TIP3      1162            0.0000000000
     25805      1354  TIP3      H1             -2.4328776851       -1.8015594510       36.2798679442  TIP3      1162            0.0000000000
     25806      1354  TIP3      H2             -1.7454565723       -0.7105951580       37.0308279472  TIP3      1162            0.0000000000
     25807      1355  TIP3      OH2            12.8225102849       -7.7786130597       26.7977573649  TIP3      1163            0.0000000000
     25808      1355  TIP3      H1             12.7908219894       -6.8020489268       26.7692539653  TIP3      1163            0.0000000000
     25809      1355  TIP3      H2             12.0842400869       -8.0155746565       26.2167434068  TIP3      1163            0.0000000000
     25810      1356  TIP3      OH2            11.6665646947       -8.5369332015       30.2914796605  TIP3      1164            0.0000000000
     25811      1356  TIP3      H1             11.6524790501       -9.1809237391       31.0139412468  TIP3      1164            0.0000000000
     25812      1356  TIP3      H2             11.3079864916       -9.0484114259       29.5458350878  TIP3      1164            0.0000000000
     25813      1357  TIP3      OH2             4.0151937418       -8.8526413479       31.8550108392  TIP3      1165            0.0000000000
     25814      1357  TIP3      H1              4.1124809211       -9.5473717119       32.5393120924  TIP3      1165            0.0000000000
     25815      1357  TIP3      H2              4.7665165544       -8.2831315396       32.0724330553  TIP3      1165            0.0000000000
     25816      1358  TIP3      OH2            15.3383737305       -5.5732197307       28.5879431381  TIP3      1166            0.0000000000
     25817      1358  TIP3      H1             14.9375556761       -6.3019876284       29.0723848022  TIP3      1166            0.0000000000
     25818      1358  TIP3      H2             15.3673632546       -4.8768508465       29.2716677602  TIP3      1166            0.0000000000
     25819      1359  TIP3      OH2             4.9421640171       -4.4058004930       30.3366369566  TIP3      1167            0.0000000000
     25820      1359  TIP3      H1              4.6307098597       -5.2783544365       30.0235401380  TIP3      1167            0.0000000000
     25821      1359  TIP3      H2              5.8963267057       -4.5971485863       30.4123540700  TIP3      1167            0.0000000000
     25822      1360  TIP3      OH2             1.6020960684      -10.8300632601       25.7716951905  TIP3      1168            0.0000000000
     25823      1360  TIP3      H1              1.1317435327       -9.9752644399       25.7920921130  TIP3      1168            0.0000000000
     25824      1360  TIP3      H2              0.9973196203      -11.3750535739       25.2491047290  TIP3      1168            0.0000000000
     25825      1361  TIP3      OH2             2.2833742941       -8.6398312321       27.9880488341  TIP3      1169            0.0000000000
     25826      1361  TIP3      H1              2.5640796530       -9.4542687875       28.4490982534  TIP3      1169            0.0000000000
     25827      1361  TIP3      H2              2.9912462789       -8.5398949799       27.3379674853  TIP3      1169            0.0000000000
     25828      1362  TIP3      OH2            12.4752214454       -0.4227089140       28.8219033394  TIP3      1170            0.0000000000
     25829      1362  TIP3      H1             13.1163086753       -1.1132398050       28.5219273866  TIP3      1170            0.0000000000
     25830      1362  TIP3      H2             12.2505572505       -0.7684626239       29.6863333441  TIP3      1170            0.0000000000
     25831      1363  TIP3      OH2            10.0374884181       -6.1402441384       30.7762915999  TIP3      1171            0.0000000000
     25832      1363  TIP3      H1             10.3748755149       -6.7606350951       30.1127428977  TIP3      1171            0.0000000000
     25833      1363  TIP3      H2             10.8510821625       -5.9757584997       31.2858746457  TIP3      1171            0.0000000000
     25834      1364  TIP3      OH2            18.6267916143      -14.4665426233       31.4889124689  TIP3      1172            0.0000000000
     25835      1364  TIP3      H1             18.8139030173      -13.8870149342       32.2592605390  TIP3      1172            0.0000000000
     25836      1364  TIP3      H2             19.2028807414      -14.0515994198       30.8317206409  TIP3      1172            0.0000000000
     25837      1365  TIP3      OH2            13.2052866095      -11.6651854923       31.0867696095  TIP3      1173            0.0000000000
     25838      1365  TIP3      H1             13.3739691320      -12.6239644693       31.0933863684  TIP3      1173            0.0000000000
     25839      1365  TIP3      H2             13.1011018213      -11.5257913877       30.1259496490  TIP3      1173            0.0000000000
     25840      1366  TIP3      OH2             6.3039452379      -13.5699600064       28.2951442382  TIP3      1174            0.0000000000
     25841      1366  TIP3      H1              6.4309954547      -12.7392079073       27.7991531182  TIP3      1174            0.0000000000
     25842      1366  TIP3      H2              5.9196497048      -14.1427316324       27.5980468449  TIP3      1174            0.0000000000
     25843      1367  TIP3      OH2            14.0444273929      -13.4865806652       26.6963197547  TIP3      1175            0.0000000000
     25844      1367  TIP3      H1             14.7159655982      -13.8148745161       27.3375051683  TIP3      1175            0.0000000000
     25845      1367  TIP3      H2             14.5986360163      -12.9308115348       26.1262110438  TIP3      1175            0.0000000000
     25846      1368  TIP3      OH2             2.9387928148      -11.1661319092       29.0410052968  TIP3      1176            0.0000000000
     25847      1368  TIP3      H1              3.6122697881      -11.7060416403       29.4941743345  TIP3      1176            0.0000000000
     25848      1368  TIP3      H2              3.0479977632      -11.4741482210       28.1320177831  TIP3      1176            0.0000000000
     25849      1369  TIP3      OH2             8.0957361723       -9.6094035662       28.3597775251  TIP3      1177            0.0000000000
     25850      1369  TIP3      H1              8.7705210766      -10.1918995225       28.7515558387  TIP3      1177            0.0000000000
     25851      1369  TIP3      H2              7.5914577857      -10.2597516634       27.8281176995  TIP3      1177            0.0000000000
     25852      1370  TIP3      OH2            19.0785945470      -13.0824895521       33.7740008674  TIP3      1178            0.0000000000
     25853      1370  TIP3      H1             18.4764919745      -12.3094963342       33.6558281365  TIP3      1178            0.0000000000
     25854      1370  TIP3      H2             19.1068989306      -13.1469980936       34.7365655089  TIP3      1178            0.0000000000
     25855      1371  TIP3      OH2             5.2298507026      -14.6754229000       32.3379358944  TIP3      1179            0.0000000000
     25856      1371  TIP3      H1              4.9465497008      -14.1026642147       31.5935719471  TIP3      1179            0.0000000000
     25857      1371  TIP3      H2              4.5541295068      -14.4477626120       33.0214191644  TIP3      1179            0.0000000000
     25858      1372  TIP3      OH2            12.5087465499       -5.1959162430       25.8954652665  TIP3      1180            0.0000000000
     25859      1372  TIP3      H1             12.1988117637       -5.4504193702       25.0158127194  TIP3      1180            0.0000000000
     25860      1372  TIP3      H2             12.2147982278       -4.2585334062       25.9434919446  TIP3      1180            0.0000000000
     25861      1373  TIP3      OH2             7.7382211288       -7.0343375323       32.5732965167  TIP3      1181            0.0000000000
     25862      1373  TIP3      H1              7.0373222645       -6.3881460365       32.8022541568  TIP3      1181            0.0000000000
     25863      1373  TIP3      H2              8.4476851483       -6.4364572529       32.2864760301  TIP3      1181            0.0000000000
     25864      1374  TIP3      OH2            15.8796927218      -14.1437944159       28.6583844637  TIP3      1182            0.0000000000
     25865      1374  TIP3      H1             15.6543421863      -14.9167030160       29.1827581657  TIP3      1182            0.0000000000
     25866      1374  TIP3      H2             16.5318471994      -13.7052042796       29.2304547731  TIP3      1182            0.0000000000
     25867      1375  TIP3      OH2             4.8009174027      -12.8171089434       30.3727491082  TIP3      1183            0.0000000000
     25868      1375  TIP3      H1              5.4337030820      -12.1334468571       30.6891577761  TIP3      1183            0.0000000000
     25869      1375  TIP3      H2              5.3154957648      -13.2241383587       29.6287431532  TIP3      1183            0.0000000000
     25870      1376  TIP3      OH2             6.1931912450       -5.0318678577       33.4005918908  TIP3      1184            0.0000000000
     25871      1376  TIP3      H1              6.1466456601       -4.1160189322       33.0629074425  TIP3      1184            0.0000000000
     25872      1376  TIP3      H2              5.3088113723       -5.1080636014       33.8401902592  TIP3      1184            0.0000000000
     25873      1377  TIP3      OH2            15.8744582289       -3.7442388597       30.9510516807  TIP3      1185            0.0000000000
     25874      1377  TIP3      H1             14.9060302300       -3.6318370959       31.0683143404  TIP3      1185            0.0000000000
     25875      1377  TIP3      H2             16.1436193344       -2.8300747651       30.7431095290  TIP3      1185            0.0000000000
     25876      1378  TIP3      OH2            16.2032202377      -15.4647892102       32.3359404005  TIP3      1186            0.0000000000
     25877      1378  TIP3      H1             15.4779783349      -14.8313176670       32.2426699675  TIP3      1186            0.0000000000
     25878      1378  TIP3      H2             16.9167561850      -15.0451687435       31.8154391129  TIP3      1186            0.0000000000
     25879      1379  TIP3      OH2             9.1644082153      -17.3338282817       29.7860464703  TIP3      1187            0.0000000000
     25880      1379  TIP3      H1              9.0243584243      -18.2960959524       29.7245861854  TIP3      1187            0.0000000000
     25881      1379  TIP3      H2              8.2896823674      -17.0317967613       30.1093780989  TIP3      1187            0.0000000000
     25882      1380  TIP3      OH2            14.1437173846       -1.9751744716       27.5419998200  TIP3      1188            0.0000000000
     25883      1380  TIP3      H1             14.5638462904       -2.6796065393       27.0144545742  TIP3      1188            0.0000000000
     25884      1380  TIP3      H2             14.5669591287       -1.1802518044       27.1534043508  TIP3      1188            0.0000000000
     25885      1381  TIP3      OH2            15.4068075184       -4.0528033857       26.0395517326  TIP3      1189            0.0000000000
     25886      1381  TIP3      H1             15.0291754560       -4.7371969803       25.4753338762  TIP3      1189            0.0000000000
     25887      1381  TIP3      H2             15.3889632996       -4.5177818747       26.8974087029  TIP3      1189            0.0000000000
     25888      1382  TIP3      OH2            16.9645060620       -5.4351235215       34.5526576654  TIP3      1190            0.0000000000
     25889      1382  TIP3      H1             17.1031265737       -6.0859962649       33.8300831637  TIP3      1190            0.0000000000
     25890      1382  TIP3      H2             17.1717497322       -4.5961653638       34.1034137910  TIP3      1190            0.0000000000
     25891      1383  TIP3      OH2            11.4612251753       -8.5662070146       24.2922568004  TIP3      1191            0.0000000000
     25892      1383  TIP3      H1             10.7632923998       -7.9467918772       23.9892617126  TIP3      1191            0.0000000000
     25893      1383  TIP3      H2             12.1760635746       -8.4459299721       23.6478839231  TIP3      1191            0.0000000000
     25894      1384  TIP3      OH2            18.8531313742       -9.1234415077       32.5932805979  TIP3      1192            0.0000000000
     25895      1384  TIP3      H1             18.1949218300       -8.4012689043       32.6254003462  TIP3      1192            0.0000000000
     25896      1384  TIP3      H2             19.3504439208       -8.8927011372       31.7871948030  TIP3      1192            0.0000000000
     25897      1385  TIP3      OH2            14.8797958820       -8.4234996966       25.1810217714  TIP3      1193            0.0000000000
     25898      1385  TIP3      H1             14.2122918875       -8.0866276633       25.8289364767  TIP3      1193            0.0000000000
     25899      1385  TIP3      H2             15.3989736909       -8.9890556400       25.7798521545  TIP3      1193            0.0000000000
     25900      1386  TIP3      OH2            14.8404972412      -10.1710047199       34.3586967352  TIP3      1194            0.0000000000
     25901      1386  TIP3      H1             14.8502128926       -9.3559272521       34.8837069634  TIP3      1194            0.0000000000
     25902      1386  TIP3      H2             14.2101425382       -9.8824939354       33.6663843713  TIP3      1194            0.0000000000
     25903      1387  TIP3      OH2             6.5109062504       -7.6734838137       27.1599025739  TIP3      1195            0.0000000000
     25904      1387  TIP3      H1              6.2179295399       -8.0757308359       26.3186636014  TIP3      1195            0.0000000000
     25905      1387  TIP3      H2              7.1412410082       -8.3541577411       27.4860397409  TIP3      1195            0.0000000000
     25906      1388  TIP3      OH2             7.8395204606       -4.3020872456       29.8290643304  TIP3      1196            0.0000000000
     25907      1388  TIP3      H1              7.8352544270       -4.8197317869       29.0140361789  TIP3      1196            0.0000000000
     25908      1388  TIP3      H2              8.6239134038       -4.6549974337       30.2885457613  TIP3      1196            0.0000000000
     25909      1389  TIP3      OH2             6.8492415066       -8.9322858682       30.8169224194  TIP3      1197            0.0000000000
     25910      1389  TIP3      H1              7.3997044677       -8.8364655827       30.0149188580  TIP3      1197            0.0000000000
     25911      1389  TIP3      H2              7.2446124471       -8.2690107197       31.4255318168  TIP3      1197            0.0000000000
     25912      1390  TIP3      OH2            13.2677815303       -3.3606824858       31.5142874107  TIP3      1198            0.0000000000
     25913      1390  TIP3      H1             12.9835066933       -2.7235063092       32.1750001574  TIP3      1198            0.0000000000
     25914      1390  TIP3      H2             13.0192830362       -4.2113175482       31.9458823917  TIP3      1198            0.0000000000
     25915      1391  TIP3      OH2             7.8133970165       -4.4974792764       35.5070935959  TIP3      1199            0.0000000000
     25916      1391  TIP3      H1              7.3905721446       -3.7693873241       36.0076314305  TIP3      1199            0.0000000000
     25917      1391  TIP3      H2              7.1406412695       -4.7081652241       34.8185121744  TIP3      1199            0.0000000000
     25918      1392  TIP3      OH2            13.7529120169       -9.0969593370       22.8758841598  TIP3      1200            0.0000000000
     25919      1392  TIP3      H1             14.2715299366       -8.9904294755       23.7256835726  TIP3      1200            0.0000000000
     25920      1392  TIP3      H2             14.2828325559       -8.6678807411       22.2176344224  TIP3      1200            0.0000000000
     25921      1393  TIP3      OH2             4.7606249482       -8.3436857611       34.6616378700  TIP3      1201            0.0000000000
     25922      1393  TIP3      H1              4.8103470879       -7.6763131452       35.3724376334  TIP3      1201            0.0000000000
     25923      1393  TIP3      H2              3.8235262727       -8.2510359656       34.4511538757  TIP3      1201            0.0000000000
     25924      1394  TIP3      OH2            11.4903021161       -2.4202322564       26.3980676853  TIP3      1202            0.0000000000
     25925      1394  TIP3      H1             11.9389752375       -2.0957072067       27.1849732410  TIP3      1202            0.0000000000
     25926      1394  TIP3      H2             10.9512640882       -1.6731422989       26.1147278898  TIP3      1202            0.0000000000
     25927      1395  TIP3      OH2             6.0528547739       -2.4707770474       36.2547636898  TIP3      1203            0.0000000000
     25928      1395  TIP3      H1              5.9891793333       -2.5690844989       35.2897341157  TIP3      1203            0.0000000000
     25929      1395  TIP3      H2              5.1245676161       -2.6059385043       36.5259706392  TIP3      1203            0.0000000000
     25930      1396  TIP3      OH2            17.4929910536      -17.4345681560       22.8386431533  TIP3      1204            0.0000000000
     25931      1396  TIP3      H1             16.5349242178      -17.3101257197       23.0458135832  TIP3      1204            0.0000000000
     25932      1396  TIP3      H2             17.6750890526      -16.6275605296       22.3649264288  TIP3      1204            0.0000000000
     25933      1397  TIP3      OH2             5.5235850171       -8.6649667799       24.6976139430  TIP3      1205            0.0000000000
     25934      1397  TIP3      H1              5.2083480307       -7.8541933051       24.2511652016  TIP3      1205            0.0000000000
     25935      1397  TIP3      H2              4.7933151996       -9.2777197742       24.6198450919  TIP3      1205            0.0000000000
     25936      1398  TIP3      OH2             1.5468000961       -6.2251154981       33.6851648153  TIP3      1206            0.0000000000
     25937      1398  TIP3      H1              1.1512944633       -6.2987318271       32.7970546000  TIP3      1206            0.0000000000
     25938      1398  TIP3      H2              1.6954808008       -7.1681636455       33.8831097541  TIP3      1206            0.0000000000
     25939      1399  TIP3      OH2             1.3415289743       -3.4966910519       30.4664607795  TIP3      1207            0.0000000000
     25940      1399  TIP3      H1              2.3009202998       -3.6016207468       30.4143235073  TIP3      1207            0.0000000000
     25941      1399  TIP3      H2              1.2656433110       -2.6853400819       30.9792574141  TIP3      1207            0.0000000000
     25942      1400  TIP3      OH2            19.5714902457       -2.7985096619       36.0997625388  TIP3      1208            0.0000000000
     25943      1400  TIP3      H1             19.4449816447       -3.7561854353       36.1169285386  TIP3      1208            0.0000000000
     25944      1400  TIP3      H2             18.7203668717       -2.5343196114       36.5283638463  TIP3      1208            0.0000000000
     25945      1401  TIP3      OH2            10.5191049052       -3.2276239086       34.9619651362  TIP3      1209            0.0000000000
     25946      1401  TIP3      H1             10.6052773289       -2.4255585422       35.5326870671  TIP3      1209            0.0000000000
     25947      1401  TIP3      H2              9.6763444921       -3.6160641592       35.2655147610  TIP3      1209            0.0000000000
     25948      1402  TIP3      OH2            10.9585018759        0.5045415166       24.8143442516  TIP3      1210            0.0000000000
     25949      1402  TIP3      H1             10.8744065437        0.4424025625       23.8642711876  TIP3      1210            0.0000000000
     25950      1402  TIP3      H2             11.0085199595        1.4591858745       25.0031739415  TIP3      1210            0.0000000000
     25951      1403  TIP3      OH2             4.6246094734       -0.6589916273       26.6266070123  TIP3      1211            0.0000000000
     25952      1403  TIP3      H1              4.7599170213       -1.0386354531       27.5238071720  TIP3      1211            0.0000000000
     25953      1403  TIP3      H2              3.7710125144       -1.0284300178       26.3714425024  TIP3      1211            0.0000000000
     25954      1404  TIP3      OH2            13.6767831857       -0.3199569912       24.6123997477  TIP3      1212            0.0000000000
     25955      1404  TIP3      H1             12.7206748635       -0.3033890897       24.7799771378  TIP3      1212            0.0000000000
     25956      1404  TIP3      H2             13.9650673741       -1.0814984408       25.1381683863  TIP3      1212            0.0000000000
     25957      1405  TIP3      OH2            16.7151232499      -11.3075761914       36.5913114470  TIP3      1213            0.0000000000
     25958      1405  TIP3      H1             16.2413657822      -10.8668825707       35.8729127457  TIP3      1213            0.0000000000
     25959      1405  TIP3      H2             16.7102220133      -12.2303317242       36.3004760531  TIP3      1213            0.0000000000
     25960      1406  TIP3      OH2             3.8694586918       -4.9115891767       34.5998885753  TIP3      1214            0.0000000000
     25961      1406  TIP3      H1              4.0856640003       -5.2742351952       35.4834056259  TIP3      1214            0.0000000000
     25962      1406  TIP3      H2              2.9986841131       -5.3003416576       34.3905969241  TIP3      1214            0.0000000000
     25963      1407  TIP3      OH2             6.5508432107      -16.4257122477       30.5392021037  TIP3      1215            0.0000000000
     25964      1407  TIP3      H1              5.6452821903      -16.5650947334       30.1864270033  TIP3      1215            0.0000000000
     25965      1407  TIP3      H2              6.4120549153      -15.6071264873       31.0432824694  TIP3      1215            0.0000000000
     25966      1408  TIP3      OH2            11.1938974034      -16.7756207032       33.9123718720  TIP3      1216            0.0000000000
     25967      1408  TIP3      H1             11.5862101191      -17.1968400238       34.7005461982  TIP3      1216            0.0000000000
     25968      1408  TIP3      H2             10.2222589747      -16.8901595859       34.0572676438  TIP3      1216            0.0000000000
     25969      1409  TIP3      OH2            14.4796025141      -12.9181658554       34.8000426556  TIP3      1217            0.0000000000
     25970      1409  TIP3      H1             13.9211395765      -13.1416948120       35.5846896547  TIP3      1217            0.0000000000
     25971      1409  TIP3      H2             14.2932908270      -11.9885248994       34.5878773033  TIP3      1217            0.0000000000
     25972      1410  TIP3      OH2             6.6533462221      -11.4597660182       31.8126600028  TIP3      1218            0.0000000000
     25973      1410  TIP3      H1              5.9157754626      -11.4723143519       32.4495390274  TIP3      1218            0.0000000000
     25974      1410  TIP3      H2              6.6035003060      -10.5533256036       31.4364388397  TIP3      1218            0.0000000000
     25975      1411  TIP3      OH2             6.6095738728      -11.3413122153       26.6738402005  TIP3      1219            0.0000000000
     25976      1411  TIP3      H1              5.6749108330      -11.6106354054       26.5442653987  TIP3      1219            0.0000000000
     25977      1411  TIP3      H2              7.0153696094      -11.6657189839       25.8391057949  TIP3      1219            0.0000000000
     25978      1412  TIP3      OH2            12.0988893304      -10.8724828854       25.4268428612  TIP3      1220            0.0000000000
     25979      1412  TIP3      H1             11.7309700573      -10.0252978662       25.0918949709  TIP3      1220            0.0000000000
     25980      1412  TIP3      H2             12.8191164798      -11.0423140534       24.7969556635  TIP3      1220            0.0000000000
     25981      1413  TIP3      OH2            11.1870180156      -10.6399638377       36.8688831355  TIP3      1221            0.0000000000
     25982      1413  TIP3      H1             10.6655907581      -11.4176384414       37.1801768634  TIP3      1221            0.0000000000
     25983      1413  TIP3      H2             12.0198788671      -10.7463219596       37.3572538370  TIP3      1221            0.0000000000
     25984      1414  TIP3      OH2            13.1671396185      -11.3428370255       28.2831476206  TIP3      1222            0.0000000000
     25985      1414  TIP3      H1             12.8872620664      -10.7855409096       27.5365498520  TIP3      1222            0.0000000000
     25986      1414  TIP3      H2             13.2615623124      -12.1994641857       27.8226196668  TIP3      1222            0.0000000000
     25987      1415  TIP3      OH2             4.2733197692      -11.2199420676       33.4852441069  TIP3      1223            0.0000000000
     25988      1415  TIP3      H1              4.3616799864      -10.8106540654       34.3630799151  TIP3      1223            0.0000000000
     25989      1415  TIP3      H2              3.8329831649      -12.0572053222       33.7048555409  TIP3      1223            0.0000000000
     25990      1416  TIP3      OH2             7.6958045970      -13.7459249753       20.4108563371  TIP3      1224            0.0000000000
     25991      1416  TIP3      H1              7.2296029976      -14.2733769939       21.0676941964  TIP3      1224            0.0000000000
     25992      1416  TIP3      H2              6.9742496680      -13.5439847170       19.8037521194  TIP3      1224            0.0000000000
     25993      1417  TIP3      OH2             0.9315198168      -14.1227500213       27.4744617019  TIP3      1225            0.0000000000
     25994      1417  TIP3      H1              1.6125625850      -14.1584890850       28.1761284760  TIP3      1225            0.0000000000
     25995      1417  TIP3      H2              1.3811954976      -14.4908849820       26.6935265673  TIP3      1225            0.0000000000
     25996      1418  TIP3      OH2            12.3613517042       -9.7731793789       32.8391071832  TIP3      1226            0.0000000000
     25997      1418  TIP3      H1             12.7443538930      -10.4609044789       32.2570145676  TIP3      1226            0.0000000000
     25998      1418  TIP3      H2             11.8919156012      -10.2998785469       33.5109690067  TIP3      1226            0.0000000000
     25999      1419  TIP3      OH2             9.1643087467      -13.7891586421       27.6860493037  TIP3      1227            0.0000000000
     26000      1419  TIP3      H1              8.2303018354      -13.7866594488       27.9744056016  TIP3      1227            0.0000000000
     26001      1419  TIP3      H2              9.6455288147      -13.9703789921       28.5045024436  TIP3      1227            0.0000000000
     26002      1420  TIP3      OH2             3.9902157097      -12.2166297052       26.4717976247  TIP3      1228            0.0000000000
     26003      1420  TIP3      H1              3.0606944297      -12.1255416683       26.1680154170  TIP3      1228            0.0000000000
     26004      1420  TIP3      H2              4.2491522297      -13.1120055773       26.1694280000  TIP3      1228            0.0000000000
     26005      1421  TIP3      OH2             7.5676859175      -12.0963269251       24.2260764492  TIP3      1229            0.0000000000
     26006      1421  TIP3      H1              8.5404516435      -12.1712569611       24.3251145070  TIP3      1229            0.0000000000
     26007      1421  TIP3      H2              7.4664426172      -11.5374596883       23.4605845232  TIP3      1229            0.0000000000
     26008      1422  TIP3      OH2            13.5660619733      -14.5575191655       30.9215774172  TIP3      1230            0.0000000000
     26009      1422  TIP3      H1             12.8843748386      -14.5108812213       31.6273640194  TIP3      1230            0.0000000000
     26010      1422  TIP3      H2             13.0608548806      -14.8164690719       30.1379442466  TIP3      1230            0.0000000000
     26011      1423  TIP3      OH2            16.7545736377        1.0788338702       37.2845664189  TIP3      1231            0.0000000000
     26012      1423  TIP3      H1             17.0347627717        1.4416911476       36.4230109955  TIP3      1231            0.0000000000
     26013      1423  TIP3      H2             17.4903845417        1.3862480166       37.8402045437  TIP3      1231            0.0000000000
     26014      1424  TIP3      OH2             4.4576886413       -6.4627618068       36.8230193483  TIP3      1232            0.0000000000
     26015      1424  TIP3      H1              5.1570709577       -6.2062573265       37.4527219085  TIP3      1232            0.0000000000
     26016      1424  TIP3      H2              3.6683207904       -6.3772531980       37.3992140288  TIP3      1232            0.0000000000
     26017      1425  TIP3      OH2            10.4452298349      -11.0374509113       29.5727566761  TIP3      1233            0.0000000000
     26018      1425  TIP3      H1             11.0476210136      -11.5680314912       29.0376678317  TIP3      1233            0.0000000000
     26019      1425  TIP3      H2             10.3003315987      -11.5892165142       30.3542469596  TIP3      1233            0.0000000000
     26020      1426  TIP3      OH2             5.4511385968      -14.8621769301       25.9897266300  TIP3      1234            0.0000000000
     26021      1426  TIP3      H1              5.1346055839      -15.7839129478       26.0021677219  TIP3      1234            0.0000000000
     26022      1426  TIP3      H2              6.2686389560      -14.9600586743       25.4762881502  TIP3      1234            0.0000000000
     26023      1427  TIP3      OH2             9.0849918564      -12.7111236003       31.9857991193  TIP3      1235            0.0000000000
     26024      1427  TIP3      H1              8.2619017294      -12.1904467003       32.0725270703  TIP3      1235            0.0000000000
     26025      1427  TIP3      H2              9.6419917866      -12.3568427021       32.7052446917  TIP3      1235            0.0000000000
     26026      1428  TIP3      OH2             9.6889437602       -6.5371701804       23.6871658984  TIP3      1236            0.0000000000
     26027      1428  TIP3      H1              8.8616653078       -6.9383886053       23.3590884822  TIP3      1236            0.0000000000
     26028      1428  TIP3      H2              9.4603271329       -6.3374178818       24.6176294472  TIP3      1236            0.0000000000
     26029      1429  TIP3      OH2            16.8629086529       -7.2754410769       32.4925609588  TIP3      1237            0.0000000000
     26030      1429  TIP3      H1             17.4244798677       -6.7983723817       31.8530085328  TIP3      1237            0.0000000000
     26031      1429  TIP3      H2             16.0039858471       -7.2416835335       32.0251565764  TIP3      1237            0.0000000000
     26032      1430  TIP3      OH2            13.5153422829      -13.6861516162       21.9077553033  TIP3      1238            0.0000000000
     26033      1430  TIP3      H1             12.5915915093      -13.5367513409       21.6455479958  TIP3      1238            0.0000000000
     26034      1430  TIP3      H2             13.8049234546      -12.8135330346       22.2249777766  TIP3      1238            0.0000000000
     26035      1431  TIP3      OH2            11.1529021325       -6.2203287131       34.9238864949  TIP3      1239            0.0000000000
     26036      1431  TIP3      H1             10.8233390673       -6.6306381973       35.7308859231  TIP3      1239            0.0000000000
     26037      1431  TIP3      H2             10.9253708077       -5.2923923909       35.0532378846  TIP3      1239            0.0000000000
     26038      1432  TIP3      OH2            14.2530469730      -11.7177825261       23.5444213867  TIP3      1240            0.0000000000
     26039      1432  TIP3      H1             15.1420842222      -11.8936976384       23.9095245564  TIP3      1240            0.0000000000
     26040      1432  TIP3      H2             14.3401789468      -10.9410368050       22.9806618054  TIP3      1240            0.0000000000
     26041      1433  TIP3      OH2             4.7879886411       -7.0842693902       29.4760432409  TIP3      1241            0.0000000000
     26042      1433  TIP3      H1              5.4778884320       -7.1863556121       28.7919768720  TIP3      1241            0.0000000000
     26043      1433  TIP3      H2              4.8410384272       -7.9361213004       29.9435468953  TIP3      1241            0.0000000000
     26044      1434  TIP3      OH2            11.8305524147       -5.0691588339       22.8389269885  TIP3      1242            0.0000000000
     26045      1434  TIP3      H1             11.4639891709       -4.1765555652       23.0331681175  TIP3      1242            0.0000000000
     26046      1434  TIP3      H2             11.0200545093       -5.6123565584       22.9198520578  TIP3      1242            0.0000000000
     26047      1435  TIP3      OH2             1.7083711106       -8.6719881320       34.7736861941  TIP3      1243            0.0000000000
     26048      1435  TIP3      H1              1.9738461366       -9.1224643020       35.6021261644  TIP3      1243            0.0000000000
     26049      1435  TIP3      H2              1.2275037603       -9.3596265909       34.2965152684  TIP3      1243            0.0000000000
     26050      1436  TIP3      OH2             8.7839070743       -9.1384831762       36.9208019967  TIP3      1244            0.0000000000
     26051      1436  TIP3      H1              8.4738610963       -9.4324812925       36.0565368042  TIP3      1244            0.0000000000
     26052      1436  TIP3      H2              9.7121033387       -9.4485926642       36.9164834121  TIP3      1244            0.0000000000
     26053      1437  TIP3      OH2            13.4315373538       -3.8611451273       34.7616806810  TIP3      1245            0.0000000000
     26054      1437  TIP3      H1             12.5074022269       -3.6103876927       34.6279333753  TIP3      1245            0.0000000000
     26055      1437  TIP3      H2             13.4953627929       -3.5555841067       35.6969631049  TIP3      1245            0.0000000000
     26056      1438  TIP3      OH2            19.1264085156       -5.7733662259       36.0673286025  TIP3      1246            0.0000000000
     26057      1438  TIP3      H1             18.2457193217       -5.5277844310       35.6875393378  TIP3      1246            0.0000000000
     26058      1438  TIP3      H2             19.6782903271       -5.8063939739       35.2607864122  TIP3      1246            0.0000000000
     26059      1439  TIP3      OH2            17.5214520771       -2.8015212932       23.6705952491  TIP3      1247            0.0000000000
     26060      1439  TIP3      H1             17.0574140826       -3.5691057169       24.0513444239  TIP3      1247            0.0000000000
     26061      1439  TIP3      H2             17.6436418078       -2.9971317522       22.7435305717  TIP3      1247            0.0000000000
     26062      1440  TIP3      OH2            14.6421359953       -7.9722356773       30.7736596753  TIP3      1248            0.0000000000
     26063      1440  TIP3      H1             13.6976907716       -8.1724891929       30.6668931752  TIP3      1248            0.0000000000
     26064      1440  TIP3      H2             15.0689690824       -8.7287443327       30.3284311196  TIP3      1248            0.0000000000
     26065      1441  TIP3      OH2             7.1412704063       -3.6573560695       26.8388629294  TIP3      1249            0.0000000000
     26066      1441  TIP3      H1              7.6585851344       -2.8454923298       26.6868631413  TIP3      1249            0.0000000000
     26067      1441  TIP3      H2              6.2769499806       -3.3800784437       26.5328942053  TIP3      1249            0.0000000000
     26068      1442  TIP3      OH2             8.5733820537       -5.9810770004       26.3918301694  TIP3      1250            0.0000000000
     26069      1442  TIP3      H1              8.2788567610       -5.0543976558       26.4833036685  TIP3      1250            0.0000000000
     26070      1442  TIP3      H2              7.8593578318       -6.4671610748       26.8456432906  TIP3      1250            0.0000000000
     26071      1443  TIP3      OH2             9.0217288698       -1.7869165390       32.8012998311  TIP3      1251            0.0000000000
     26072      1443  TIP3      H1              9.4834759959       -0.9852875770       32.5114961934  TIP3      1251            0.0000000000
     26073      1443  TIP3      H2              9.6399529180       -2.1327667886       33.4719453946  TIP3      1251            0.0000000000
     26074      1444  TIP3      OH2             7.2471928037       -0.9913617570       25.9285468203  TIP3      1252            0.0000000000
     26075      1444  TIP3      H1              6.2916107571       -0.8637726347       26.0865632316  TIP3      1252            0.0000000000
     26076      1444  TIP3      H2              7.6136707899       -0.1526417504       26.2720701390  TIP3      1252            0.0000000000
     26077      1445  TIP3      OH2            12.5286094518       -5.8061335337       32.3993713439  TIP3      1253            0.0000000000
     26078      1445  TIP3      H1             12.2208858734       -5.9892127492       33.3138175304  TIP3      1253            0.0000000000
     26079      1445  TIP3      H2             13.1836914672       -6.5042730388       32.2416403143  TIP3      1253            0.0000000000
     26080      1446  TIP3      OH2            15.3702058023       -1.1973815367       34.8932151939  TIP3      1254            0.0000000000
     26081      1446  TIP3      H1             14.6615810243       -1.6926712293       34.4388840503  TIP3      1254            0.0000000000
     26082      1446  TIP3      H2             15.5450080183       -0.5047222811       34.2205679084  TIP3      1254            0.0000000000
     26083      1447  TIP3      OH2             3.4264996622      -13.9495283554       34.3044369051  TIP3      1255            0.0000000000
     26084      1447  TIP3      H1              2.5181723421      -13.6019912387       34.2760744582  TIP3      1255            0.0000000000
     26085      1447  TIP3      H2              3.3130935144      -14.8003110880       34.7567599113  TIP3      1255            0.0000000000
     26086      1448  TIP3      OH2             3.0366495390       -2.1739131942       32.7190346942  TIP3      1256            0.0000000000
     26087      1448  TIP3      H1              3.3493467268       -3.0917281254       32.7259391406  TIP3      1256            0.0000000000
     26088      1448  TIP3      H2              3.2991740405       -1.8804183032       33.5990202966  TIP3      1256            0.0000000000
     26089      1449  TIP3      OH2             4.3048073456       -6.9299351571       22.9948695669  TIP3      1257            0.0000000000
     26090      1449  TIP3      H1              3.5822133482       -6.5307118164       23.4795895525  TIP3      1257            0.0000000000
     26091      1449  TIP3      H2              4.8536767944       -6.1865271519       22.7456302235  TIP3      1257            0.0000000000
     26092      1450  TIP3      OH2            12.1573788491      -14.1816406337       33.2624698306  TIP3      1258            0.0000000000
     26093      1450  TIP3      H1             12.8747673964      -14.1206470406       33.9027767351  TIP3      1258            0.0000000000
     26094      1450  TIP3      H2             11.7749183126      -15.0579467767       33.4672789168  TIP3      1258            0.0000000000
     26095      1451  TIP3      OH2            12.9277672856      -14.5921332821       24.3782202811  TIP3      1259            0.0000000000
     26096      1451  TIP3      H1             13.1354774043      -14.1706867789       23.5220821828  TIP3      1259            0.0000000000
     26097      1451  TIP3      H2             13.5113515787      -14.1244364066       24.9869565532  TIP3      1259            0.0000000000
     26098      1452  TIP3      OH2            10.6370152966       -2.3664163821       23.2235552142  TIP3      1260            0.0000000000
     26099      1452  TIP3      H1              9.7476628003       -1.9707509240       23.1993170183  TIP3      1260            0.0000000000
     26100      1452  TIP3      H2             11.1176487138       -2.0067371930       22.4684703729  TIP3      1260            0.0000000000
     26101      1453  TIP3      OH2            10.0878097039      -12.8166781040       25.1601546854  TIP3      1261            0.0000000000
     26102      1453  TIP3      H1             10.9125203872      -12.2921247955       25.2078221183  TIP3      1261            0.0000000000
     26103      1453  TIP3      H2              9.8625696454      -13.0044705653       26.0947781423  TIP3      1261            0.0000000000
     26104      1454  TIP3      OH2            10.6926053090      -11.8293034686       34.3553201819  TIP3      1262            0.0000000000
     26105      1454  TIP3      H1             10.7636781917      -11.2863518505       35.1628402294  TIP3      1262            0.0000000000
     26106      1454  TIP3      H2             11.3421246361      -12.5389756664       34.4450789233  TIP3      1262            0.0000000000
     26107      1455  TIP3      OH2            10.9777425554      -15.8037473225       26.0428277117  TIP3      1263            0.0000000000
     26108      1455  TIP3      H1             10.6485990512      -15.1456474834       26.6768588847  TIP3      1263            0.0000000000
     26109      1455  TIP3      H2             11.6745002264      -15.2658868966       25.5914009620  TIP3      1263            0.0000000000
     26110      1456  TIP3      OH2             7.9128520000       -1.4002195478       23.1841810663  TIP3      1264            0.0000000000
     26111      1456  TIP3      H1              8.1152120784       -0.5889307554       22.6750764774  TIP3      1264            0.0000000000
     26112      1456  TIP3      H2              7.7132832654       -1.0718472911       24.0796509467  TIP3      1264            0.0000000000
     26113      1457  TIP3      OH2            16.8638368525      -13.9531134991       35.1991002769  TIP3      1265            0.0000000000
     26114      1457  TIP3      H1             15.9331368884      -13.6486573671       35.0678959619  TIP3      1265            0.0000000000
     26115      1457  TIP3      H2             17.1619169880      -13.9868978428       34.2737386495  TIP3      1265            0.0000000000
     26116      1458  TIP3      OH2            15.4799245047      -10.1850891622       29.2152639503  TIP3      1266            0.0000000000
     26117      1458  TIP3      H1             14.6541280151      -10.6266160366       28.9301558306  TIP3      1266            0.0000000000
     26118      1458  TIP3      H2             15.9461949968      -10.8728531878       29.7377663795  TIP3      1266            0.0000000000
     26119      1459  TIP3      OH2            16.5390854646       -0.9134896622       30.8772594824  TIP3      1267            0.0000000000
     26120      1459  TIP3      H1             16.4540828463       -0.2358885864       30.1792327547  TIP3      1267            0.0000000000
     26121      1459  TIP3      H2             17.5035728836       -0.8664006353       31.0534415096  TIP3      1267            0.0000000000
     26122      1460  TIP3      OH2             4.0284570670      -16.7984634562       29.6856019725  TIP3      1268            0.0000000000
     26123      1460  TIP3      H1              3.8376157635      -16.7821653312       28.7216169929  TIP3      1268            0.0000000000
     26124      1460  TIP3      H2              3.6200314375      -17.6544135876       29.9362371684  TIP3      1268            0.0000000000
     26125      1461  TIP3      OH2             2.1722971240       -0.2250972328       37.1135112828  TIP3      1269            0.0000000000
     26126      1461  TIP3      H1              2.7823125862       -0.4170309676       37.8570951655  TIP3      1269            0.0000000000
     26127      1461  TIP3      H2              1.7746347841       -1.0948374964       36.9451171281  TIP3      1269            0.0000000000
     26128      1462  TIP3      OH2             6.8815143981       -1.3340579544       38.7260798004  TIP3      1270            0.0000000000
     26129      1462  TIP3      H1              7.6657762801       -1.8100792712       39.0494481301  TIP3      1270            0.0000000000
     26130      1462  TIP3      H2              6.8709183868       -1.6054103512       37.7855477141  TIP3      1270            0.0000000000
     26131      1463  TIP3      OH2            13.6587709077       -2.9049249490       37.1135890835  TIP3      1271            0.0000000000
     26132      1463  TIP3      H1             13.1161956057       -3.6071116069       37.5082354149  TIP3      1271            0.0000000000
     26133      1463  TIP3      H2             14.1117478353       -2.6835163777       37.9449275072  TIP3      1271            0.0000000000
     26134      1464  TIP3      OH2             2.0990273663       -6.4688207233       38.1170732038  TIP3      1272            0.0000000000
     26135      1464  TIP3      H1              2.2863852984       -7.3687880057       37.7888371936  TIP3      1272            0.0000000000
     26136      1464  TIP3      H2              1.3819022493       -6.1871022289       37.5241418611  TIP3      1272            0.0000000000
     26137      1465  TIP3      OH2             8.8013527903       -6.4757360276       37.4473443316  TIP3      1273            0.0000000000
     26138      1465  TIP3      H1              8.4583227575       -6.1620584270       36.5945484610  TIP3      1273            0.0000000000
     26139      1465  TIP3      H2              8.8950575877       -7.4485845680       37.3480105344  TIP3      1273            0.0000000000
     26140      1466  TIP3      OH2            14.5100776295       -6.6061671034       34.8930812740  TIP3      1274            0.0000000000
     26141      1466  TIP3      H1             15.3012550510       -6.0281323523       34.8285494621  TIP3      1274            0.0000000000
     26142      1466  TIP3      H2             13.8138959275       -5.9309521049       34.9345152972  TIP3      1274            0.0000000000
     26143      1467  TIP3      OH2             2.9670499396       -9.2366240217       37.4760012772  TIP3      1275            0.0000000000
     26144      1467  TIP3      H1              3.4364995089      -10.0761738880       37.4043447318  TIP3      1275            0.0000000000
     26145      1467  TIP3      H2              2.7993242871       -9.1993009245       38.4387026496  TIP3      1275            0.0000000000
     26146      1468  TIP3      OH2             7.6758402557       -8.1411028139       22.5446838792  TIP3      1276            0.0000000000
     26147      1468  TIP3      H1              7.2339274319       -8.6627837206       23.2232051212  TIP3      1276            0.0000000000
     26148      1468  TIP3      H2              7.9679438135       -8.7716476838       21.8737411287  TIP3      1276            0.0000000000
     26149      1469  TIP3      OH2             6.9179169950      -10.2857362040       34.8403092682  TIP3      1277            0.0000000000
     26150      1469  TIP3      H1              6.3252031611       -9.5618052376       35.0974567494  TIP3      1277            0.0000000000
     26151      1469  TIP3      H2              7.3216468732       -9.9167444720       34.0361425357  TIP3      1277            0.0000000000
     26152      1470  TIP3      OH2            12.0160908988       -7.7922437431       38.2347868493  TIP3      1278            0.0000000000
     26153      1470  TIP3      H1             12.9629137403       -7.7641311370       38.0703707222  TIP3      1278            0.0000000000
     26154      1470  TIP3      H2             11.8346122118       -8.5387350788       38.8204015028  TIP3      1278            0.0000000000
     26155      1471  TIP3      OH2             7.3268218994      -12.8941442761       35.8781309974  TIP3      1279            0.0000000000
     26156      1471  TIP3      H1              7.4450990072      -13.6118680280       35.2281000633  TIP3      1279            0.0000000000
     26157      1471  TIP3      H2              7.2833322966      -12.0854936079       35.3338591009  TIP3      1279            0.0000000000
     26158      1472  TIP3      OH2             7.7338654301      -14.5265587558       33.4550262856  TIP3      1280            0.0000000000
     26159      1472  TIP3      H1              8.2400023600      -14.0583932205       32.7485037114  TIP3      1280            0.0000000000
     26160      1472  TIP3      H2              6.8389419513      -14.6010249509       33.0514553362  TIP3      1280            0.0000000000
     26161      1473  TIP3      OH2             9.2629811724       -9.0330766903       33.6963386325  TIP3      1281            0.0000000000
     26162      1473  TIP3      H1             10.0253747276       -9.1957115578       33.1307716122  TIP3      1281            0.0000000000
     26163      1473  TIP3      H2              8.9030991425       -8.1974681390       33.3565124591  TIP3      1281            0.0000000000
     26164      1474  TIP3      OH2            13.6736293254      -11.2784455322       38.6564563833  TIP3      1282            0.0000000000
     26165      1474  TIP3      H1             13.8959879818      -12.2192035395       38.5763474955  TIP3      1282            0.0000000000
     26166      1474  TIP3      H2             14.5485053929      -10.8658994249       38.6532618553  TIP3      1282            0.0000000000
     26167      1475  TIP3      OH2            15.0382751227       -8.4321570994       36.9004628864  TIP3      1283            0.0000000000
     26168      1475  TIP3      H1             14.7464768754       -7.7850747340       36.2170332081  TIP3      1283            0.0000000000
     26169      1475  TIP3      H2             15.9687387903       -8.5437614791       36.6028593464  TIP3      1283            0.0000000000
     26170      1476  TIP3      OH2             5.8113821997      -11.6691119110       37.8495599922  TIP3      1284            0.0000000000
     26171      1476  TIP3      H1              5.0225622959      -12.2168631399       37.6472012380  TIP3      1284            0.0000000000
     26172      1476  TIP3      H2              6.4356757827      -12.0152754894       37.1834681291  TIP3      1284            0.0000000000
     26173      1477  TIP3      OH2             8.5064168798      -17.1009728994       33.8636234951  TIP3      1285            0.0000000000
     26174      1477  TIP3      H1              8.3308011816      -16.1371587753       33.7555016271  TIP3      1285            0.0000000000
     26175      1477  TIP3      H2              7.7676725276      -17.4617318143       33.3422181120  TIP3      1285            0.0000000000
     26176      1478  TIP3      OH2             9.7959078038      -12.7579638189       37.4914558504  TIP3      1286            0.0000000000
     26177      1478  TIP3      H1              9.4648561464      -12.9783828415       38.3824436424  TIP3      1286            0.0000000000
     26178      1478  TIP3      H2              9.0217310529      -12.9486367573       36.9266430725  TIP3      1286            0.0000000000
     26179      1479  TIP3      OH2            12.5098757608      -13.6177486620       36.5460452523  TIP3      1287            0.0000000000
     26180      1479  TIP3      H1             11.5515256432      -13.5412621981       36.6872073338  TIP3      1287            0.0000000000
     26181      1479  TIP3      H2             12.7784630329      -14.2468571346       37.2441340204  TIP3      1287            0.0000000000
     26182      1480  TIP3      OH2            14.0570443525      -14.9889360695       38.4573538067  TIP3      1288            0.0000000000
     26183      1480  TIP3      H1             14.0465847906      -15.9659038503       38.4958924421  TIP3      1288            0.0000000000
     26184      1480  TIP3      H2             13.8316409394      -14.6955147209       39.3722205369  TIP3      1288            0.0000000000
     26185      1481  TIP3      OH2             3.8697991578      -13.7143612139       37.5672582094  TIP3      1289            0.0000000000
     26186      1481  TIP3      H1              4.1212961442      -14.4591172181       36.9952876035  TIP3      1289            0.0000000000
     26187      1481  TIP3      H2              3.7855459861      -14.1481285760       38.4446352534  TIP3      1289            0.0000000000
     26188      1482  TIP3      OH2             8.7444839289      -17.6938505364       36.5444283230  TIP3      1290            0.0000000000
     26189      1482  TIP3      H1              9.4208674235      -18.3992658321       36.5157125815  TIP3      1290            0.0000000000
     26190      1482  TIP3      H2              8.6191967481      -17.5470674477       35.5869892628  TIP3      1290            0.0000000000
     26191      1483  TIP3      OH2             9.0792978418      -16.0931244460       38.6488042046  TIP3      1291            0.0000000000
     26192      1483  TIP3      H1              8.9201647122      -16.5895272367       37.8108681973  TIP3      1291            0.0000000000
     26193      1483  TIP3      H2              8.5101326927      -15.3080906977       38.5394029036  TIP3      1291            0.0000000000
     26194      1484  TIP3      OH2             8.5969754247        0.8450956463       21.8558409428  TIP3      1292            0.0000000000
     26195      1484  TIP3      H1              9.5413655565        0.9827511272       21.9107515076  TIP3      1292            0.0000000000
     26196      1484  TIP3      H2              8.3091280618        1.4527321927       21.1669611395  TIP3      1292            0.0000000000
     26197      1485  TIP3      OH2             0.7442215875        0.7923597133       26.3868545101  TIP3      1293            0.0000000000
     26198      1485  TIP3      H1              0.2720277068        0.2665113957       25.7020197511  TIP3      1293            0.0000000000
     26199      1485  TIP3      H2              1.2506094600        0.1186046420       26.8794429859  TIP3      1293            0.0000000000
     26200      1486  TIP3      OH2             1.6778437097       -1.0685965358       28.1562292193  TIP3      1294            0.0000000000
     26201      1486  TIP3      H1              1.3716066494       -1.9620228038       28.3660031465  TIP3      1294            0.0000000000
     26202      1486  TIP3      H2              1.9975422581       -0.7668098029       29.0319597949  TIP3      1294            0.0000000000
     26203      1487  TIP3      OH2            19.2613977751       -0.2751803010       31.0726842685  TIP3      1295            0.0000000000
     26204      1487  TIP3      H1             19.2939895441       -0.1204850427       32.0339385365  TIP3      1295            0.0000000000
     26205      1487  TIP3      H2             19.9643225501        0.3093457094       30.7717929363  TIP3      1295            0.0000000000
     26206      1488  TIP3      OH2            18.8337354255       -0.6785393332       34.0151391768  TIP3      1296            0.0000000000
     26207      1488  TIP3      H1             18.3620537828       -1.4506900696       33.6364926317  TIP3      1296            0.0000000000
     26208      1488  TIP3      H2             19.3169631796       -1.1239371559       34.7298647712  TIP3      1296            0.0000000000
     26209      1489  TIP3      OH2            17.3019126657       -5.0506680713       38.8301157833  TIP3      1297            0.0000000000
     26210      1489  TIP3      H1             16.3502528984       -4.9267887220       39.0356865494  TIP3      1297            0.0000000000
     26211      1489  TIP3      H2             17.6595884145       -4.1630761949       39.0847560284  TIP3      1297            0.0000000000
     26212      1490  TIP3      OH2            18.6105451371       -6.6779469567       24.0776753977  TIP3      1298            0.0000000000
     26213      1490  TIP3      H1             19.4533231849       -6.2647091582       24.3176416564  TIP3      1298            0.0000000000
     26214      1490  TIP3      H2             18.5834210937       -7.3593163388       24.7829603247  TIP3      1298            0.0000000000
     26215      1491  TIP3      OH2            18.9552763131       -8.5675904769       26.0038160305  TIP3      1299            0.0000000000
     26216      1491  TIP3      H1             18.1948337553       -9.0395460652       26.4075912453  TIP3      1299            0.0000000000
     26217      1491  TIP3      H2             19.5452481856       -8.4094780563       26.7693605860  TIP3      1299            0.0000000000
     26218      1492  TIP3      OH2            18.7073421920       -5.8638735507       30.9960284656  TIP3      1300            0.0000000000
     26219      1492  TIP3      H1             19.5199863643       -6.2379470779       30.6121602495  TIP3      1300            0.0000000000
     26220      1492  TIP3      H2             18.8531588448       -4.9086173981       30.8308274286  TIP3      1300            0.0000000000
     26221      1493  TIP3      OH2            17.2667958411       -2.9605714700       33.2704158546  TIP3      1301            0.0000000000
     26222      1493  TIP3      H1             16.5739251246       -2.6077964772       33.8515617259  TIP3      1301            0.0000000000
     26223      1493  TIP3      H2             16.7205547639       -3.3493688612       32.5550863790  TIP3      1301            0.0000000000
     26224      1494  TIP3      OH2            16.7716574011      -10.0887201742       26.5678339162  TIP3      1302            0.0000000000
     26225      1494  TIP3      H1             16.6158226635      -11.0429693728       26.5612610980  TIP3      1302            0.0000000000
     26226      1494  TIP3      H2             16.4476063360       -9.8601139493       27.4600219879  TIP3      1302            0.0000000000
     26227      1495  TIP3      OH2             1.7798526770       -8.0228017707       30.6514195013  TIP3      1303            0.0000000000
     26228      1495  TIP3      H1              1.9549826814       -8.0705742965       29.6830020080  TIP3      1303            0.0000000000
     26229      1495  TIP3      H2              2.6900088536       -8.1678387208       30.9815303911  TIP3      1303            0.0000000000
     26230      1496  TIP3      OH2            17.6332896972       -8.1048960738       36.3424023352  TIP3      1304            0.0000000000
     26231      1496  TIP3      H1             18.2455883180       -8.8771434780       36.3663593407  TIP3      1304            0.0000000000
     26232      1496  TIP3      H2             18.2464824209       -7.3488898555       36.2299565500  TIP3      1304            0.0000000000
     26233      1497  TIP3      OH2            19.1149435801      -10.2253000172       36.9461677632  TIP3      1305            0.0000000000
     26234      1497  TIP3      H1             18.2525969543      -10.6454501976       36.7417540426  TIP3      1305            0.0000000000
     26235      1497  TIP3      H2             19.7039384926      -10.9937752448       36.8526923045  TIP3      1305            0.0000000000
     26236      1498  TIP3      OH2            16.8894109353      -14.0901110839       20.1174260135  TIP3      1306            0.0000000000
     26237      1498  TIP3      H1             17.4232373483      -14.5204284877       20.7674707765  TIP3      1306            0.0000000000
     26238      1498  TIP3      H2             15.9996466784      -14.4405620285       20.2354984002  TIP3      1306            0.0000000000
     26239      1499  TIP3      OH2            16.4328683429      -12.5284740563       25.0410421985  TIP3      1307            0.0000000000
     26240      1499  TIP3      H1             16.7295047483      -13.4603273706       25.1758448179  TIP3      1307            0.0000000000
     26241      1499  TIP3      H2             17.2194710628      -12.1015093077       24.6937874093  TIP3      1307            0.0000000000
     26242      1500  TIP3      OH2            17.0806216379      -11.9538530104       30.4837300268  TIP3      1308            0.0000000000
     26243      1500  TIP3      H1             18.0404489271      -11.7240054151       30.4692941344  TIP3      1308            0.0000000000
     26244      1500  TIP3      H2             16.8938145568      -11.8138936553       31.4229852124  TIP3      1308            0.0000000000
     26245      1501  TIP3      OH2            17.1523766192      -11.2305785206       33.2838833211  TIP3      1309            0.0000000000
     26246      1501  TIP3      H1             16.2633003450      -10.9450200880       33.5845989301  TIP3      1309            0.0000000000
     26247      1501  TIP3      H2             17.5801041315      -10.3742237993       33.0400234471  TIP3      1309            0.0000000000
     26248      1502  TIP3      OH2             1.3868018070      -12.6945194297       36.7717747278  TIP3      1310            0.0000000000
     26249      1502  TIP3      H1              2.3241293940      -12.8881150383       36.9760003374  TIP3      1310            0.0000000000
     26250      1502  TIP3      H2              0.9492030183      -13.5218212383       37.0766124894  TIP3      1310            0.0000000000
     26251      1503  TIP3      OH2            19.4357869852      -17.1653165828       38.5964998577  TIP3      1311            0.0000000000
     26252      1503  TIP3      H1             19.7757417272      -17.8440175157       37.9946550036  TIP3      1311            0.0000000000
     26253      1503  TIP3      H2             19.5221892631      -16.3547275083       38.0619954321  TIP3      1311            0.0000000000
     26254      1504  TIP3      OH2            17.0843139470      -15.2121801812       25.0850836709  TIP3      1312            0.0000000000
     26255      1504  TIP3      H1             17.3129272745      -15.6431150064       25.9390178709  TIP3      1312            0.0000000000
     26256      1504  TIP3      H2             16.4768646822      -15.8716485705       24.6732702111  TIP3      1312            0.0000000000
     26257      1505  TIP3      OH2             2.5978597108      -14.4018062153       29.6462130842  TIP3      1313            0.0000000000
     26258      1505  TIP3      H1              3.0596431589      -15.2274503257       29.9028577951  TIP3      1313            0.0000000000
     26259      1505  TIP3      H2              3.1529472062      -13.7114202709       30.0311557221  TIP3      1313            0.0000000000
     26260      1506  TIP3      OH2             0.8707443049      -11.3794224507       30.6876254106  TIP3      1314            0.0000000000
     26261      1506  TIP3      H1              1.4277397550      -11.6669495964       29.9284382815  TIP3      1314            0.0000000000
     26262      1506  TIP3      H2              1.3836813133      -10.5963092099       30.9262820788  TIP3      1314            0.0000000000
     26263      1507  TIP3      OH2            18.9377071380      -15.0666294695       36.9577823426  TIP3      1315            0.0000000000
     26264      1507  TIP3      H1             17.9973363030      -14.7970031280       36.9271035401  TIP3      1315            0.0000000000
     26265      1507  TIP3      H2             18.9641178846      -15.6189172183       36.1609296206  TIP3      1315            0.0000000000
     26266      1508  TIP3      OH2             1.2305434382      -15.1027949002       24.7614188698  TIP3      1316            0.0000000000
     26267      1508  TIP3      H1              0.2838774594      -14.9553643081       24.6459445653  TIP3      1316            0.0000000000
     26268      1508  TIP3      H2              1.6387135078      -14.6909519647       23.9994853508  TIP3      1316            0.0000000000
     26269      1509  TIP3      OH2            15.9786165660       -0.1988747980       26.6833172504  TIP3      1317            0.0000000000
     26270      1509  TIP3      H1             16.6567080162       -0.5017923991       26.0665813950  TIP3      1317            0.0000000000
     26271      1509  TIP3      H2             16.4882781666        0.3042478350       27.3363146690  TIP3      1317            0.0000000000
     26272      1510  TIP3      OH2             1.1901189968      -16.4897249014       33.0414713785  TIP3      1318            0.0000000000
     26273      1510  TIP3      H1              0.5268874001      -16.6807630993       33.7263415346  TIP3      1318            0.0000000000
     26274      1510  TIP3      H2              0.7319388071      -15.8156300361       32.5010007505  TIP3      1318            0.0000000000
     26275      1511  TIP3      OH2             3.4321800727       -3.2714714909       37.2138566499  TIP3      1319            0.0000000000
     26276      1511  TIP3      H1              2.5901308658       -3.0665623028       36.7853114208  TIP3      1319            0.0000000000
     26277      1511  TIP3      H2              3.1698491494       -3.3458769823       38.1410553611  TIP3      1319            0.0000000000
     26278      1512  TIP3      OH2             6.3327976310       -2.2812008923       33.4891735895  TIP3      1320            0.0000000000
     26279      1512  TIP3      H1              6.0076912467       -1.4117636204       33.2189833160  TIP3      1320            0.0000000000
     26280      1512  TIP3      H2              7.2602125841       -2.2006987617       33.1841986250  TIP3      1320            0.0000000000
     26281      1513  TIP3      OH2            10.6466235046       -0.8605656425       36.3561932175  TIP3      1321            0.0000000000
     26282      1513  TIP3      H1             10.7513833380       -1.2079788066       37.2844409822  TIP3      1321            0.0000000000
     26283      1513  TIP3      H2             11.5622885958       -0.5787647721       36.1693313716  TIP3      1321            0.0000000000
     26284      1514  TIP3      OH2            12.9476997898        0.4388346166       35.6827410594  TIP3      1322            0.0000000000
     26285      1514  TIP3      H1             13.6564823569       -0.1914122123       35.4816324916  TIP3      1322            0.0000000000
     26286      1514  TIP3      H2             13.3079003831        0.8326774914       36.5071336649  TIP3      1322            0.0000000000
     26287      1515  TIP3      OH2            17.9595919324      -16.9814950519       34.8153839617  TIP3      1323            0.0000000000
     26288      1515  TIP3      H1             17.1329328804      -16.6802308563       34.4018430060  TIP3      1323            0.0000000000
     26289      1515  TIP3      H2             18.1260689504      -17.8030192992       34.2958571562  TIP3      1323            0.0000000000
     26290      1516  TIP3      OH2             3.7554477390        0.9489061572       33.4749403426  TIP3      1324            0.0000000000
     26291      1516  TIP3      H1              3.0240673435        1.4555750922       33.0862078247  TIP3      1324            0.0000000000
     26292      1516  TIP3      H2              3.4515626590        0.7640822770       34.3757268700  TIP3      1324            0.0000000000
     26293      1517  TIP3      OH2             6.2225108628        0.5269627054       32.5491083604  TIP3      1325            0.0000000000
     26294      1517  TIP3      H1              5.3324429492        0.6827652854       32.9469387416  TIP3      1325            0.0000000000
     26295      1517  TIP3      H2              6.1739357556        1.1206545487       31.7794357622  TIP3      1325            0.0000000000
     26296      1518  TIP3      OH2            10.9341028628        0.4437692064       31.7213381533  TIP3      1326            0.0000000000
     26297      1518  TIP3      H1             10.4698445381        1.0008252910       31.0773877223  TIP3      1326            0.0000000000
     26298      1518  TIP3      H2             11.0635242867        1.0749601462       32.4626495634  TIP3      1326            0.0000000000
     26299      1519  TIP3      OH2            13.2153799540       -0.7544950688       32.7605098943  TIP3      1327            0.0000000000
     26300      1519  TIP3      H1             12.3665857947       -0.4716494405       32.3834429458  TIP3      1327            0.0000000000
     26301      1519  TIP3      H2             13.7079202934        0.0799520449       32.6654782543  TIP3      1327            0.0000000000
     26302      1520  TIP3      OH2            15.8037655049        0.8223932415       32.9582610574  TIP3      1328            0.0000000000
     26303      1520  TIP3      H1             15.7543803264        1.7834801017       32.7365508788  TIP3      1328            0.0000000000
     26304      1520  TIP3      H2             16.0249946668        0.4465505820       32.0860906968  TIP3      1328            0.0000000000
     26305      1521  TIP3      OH2             3.1840314055       -0.4114738884       30.4008783159  TIP3      1329            0.0000000000
     26306      1521  TIP3      H1              3.1279874190       -0.8340075584       31.2875541447  TIP3      1329            0.0000000000
     26307      1521  TIP3      H2              4.0222980947       -0.7706671543       30.0379215081  TIP3      1329            0.0000000000
     26308      1522  TIP3      OH2             5.2923646910       -1.6985110644       29.0653994109  TIP3      1330            0.0000000000
     26309      1522  TIP3      H1              5.1304630178       -2.6272187599       29.3187147723  TIP3      1330            0.0000000000
     26310      1522  TIP3      H2              6.1434944723       -1.5291905141       29.5247871211  TIP3      1330            0.0000000000
     26311      1523  TIP3      OH2             7.8903590213       -1.2034258147       29.9575974503  TIP3      1331            0.0000000000
     26312      1523  TIP3      H1              8.0492463571       -2.1279880269       29.6956780918  TIP3      1331            0.0000000000
     26313      1523  TIP3      H2              7.9429270987       -1.2583147757       30.9225473614  TIP3      1331            0.0000000000
     26314      1524  TIP3      OH2            11.3478141187      -15.5583364301       29.0999468905  TIP3      1332            0.0000000000
     26315      1524  TIP3      H1             10.6690357857      -16.1970235928       29.3762465221  TIP3      1332            0.0000000000
     26316      1524  TIP3      H2             11.8961749355      -16.0909247394       28.5131126641  TIP3      1332            0.0000000000
     26317      1525  TIP3      OH2            16.4764772713      -17.5088299949       29.1659494453  TIP3      1333            0.0000000000
     26318      1525  TIP3      H1             17.0880484231      -16.9191939372       28.6589605880  TIP3      1333            0.0000000000
     26319      1525  TIP3      H2             15.5970394567      -17.1475370389       28.9289704689  TIP3      1333            0.0000000000
     26320      1526  TIP3      OH2            18.1440417128      -16.2602328352       27.4385167556  TIP3      1334            0.0000000000
     26321      1526  TIP3      H1             18.8317496694      -16.8395105195       27.0396910117  TIP3      1334            0.0000000000
     26322      1526  TIP3      H2             18.6485826244      -15.4334052890       27.6030553630  TIP3      1334            0.0000000000
     26323      1527  TIP3      OH2             3.7228548388      -16.9085819946       26.9273974067  TIP3      1335            0.0000000000
     26324      1527  TIP3      H1              2.9002261723      -17.1248896592       26.4520943198  TIP3      1335            0.0000000000
     26325      1527  TIP3      H2              4.1726529612      -17.7765262212       26.8826947308  TIP3      1335            0.0000000000
     26326      1528  TIP3      OH2             8.1998738984      -17.0407626086       26.7272816701  TIP3      1336            0.0000000000
     26327      1528  TIP3      H1              9.0798008277      -16.6241847203       26.6635915936  TIP3      1336            0.0000000000
     26328      1528  TIP3      H2              8.1595153002      -17.2184101883       27.6672406754  TIP3      1336            0.0000000000
     26329      1529  TIP3      OH2            13.9062233596      -16.9880702815       28.3494908559  TIP3      1337            0.0000000000
     26330      1529  TIP3      H1             13.8534258444      -16.8683632359       27.3923496599  TIP3      1337            0.0000000000
     26331      1529  TIP3      H2             13.5272877011      -17.8935269372       28.4725045421  TIP3      1337            0.0000000000
     26332      1530  TIP3      OH2            15.1668797985      -16.9359697959       24.0540510541  TIP3      1338            0.0000000000
     26333      1530  TIP3      H1             14.4135724414      -16.3725539442       23.8302089017  TIP3      1338            0.0000000000
     26334      1530  TIP3      H2             14.7273689644      -17.8009094232       24.2279136672  TIP3      1338            0.0000000000
     26335      1531  TIP3      OH2             9.2998142473      -15.0138007018       23.5674000350  TIP3      1339            0.0000000000
     26336      1531  TIP3      H1              9.5718360724      -15.5698942795       24.2984104723  TIP3      1339            0.0000000000
     26337      1531  TIP3      H2              9.3960928416      -14.1387961599       23.9834702643  TIP3      1339            0.0000000000
     26338      1532  TIP3      OH2            18.0301741581       -0.3782879065       24.6521348496  TIP3      1340            0.0000000000
     26339      1532  TIP3      H1             17.6956446630       -1.1692076519       24.1690476738  TIP3      1340            0.0000000000
     26340      1532  TIP3      H2             17.8713000832        0.3516232146       24.0405412829  TIP3      1340            0.0000000000
     26341      1533  TIP3      OH2             3.5982867812      -16.3904604505       36.3911403958  TIP3      1341            0.0000000000
     26342      1533  TIP3      H1              3.2075306526      -17.1864666757       36.8008353846  TIP3      1341            0.0000000000
     26343      1533  TIP3      H2              4.5089307917      -16.4359967467       36.7652782238  TIP3      1341            0.0000000000
     26344      1534  TIP3      OH2             5.6025399703      -16.9857981219       38.0588352461  TIP3      1342            0.0000000000
     26345      1534  TIP3      H1              6.4741570514      -17.3421168197       37.7918252856  TIP3      1342            0.0000000000
     26346      1534  TIP3      H2              5.2241739499      -17.8015533943       38.4442814180  TIP3      1342            0.0000000000
     26347      1535  TIP3      OH2            14.0105850934      -17.7105097179       38.1911933326  TIP3      1343            0.0000000000
     26348      1535  TIP3      H1             14.1064085438      -18.1938340735       39.0333108766  TIP3      1343            0.0000000000
     26349      1535  TIP3      H2             14.9259935370      -17.7458450937       37.8421550415  TIP3      1343            0.0000000000
     26350      1536  TIP3      OH2            17.2460024785       -1.6497758758       36.7996053913  TIP3      1344            0.0000000000
     26351      1536  TIP3      H1             16.4129858628       -1.8145095416       36.3010703929  TIP3      1344            0.0000000000
     26352      1536  TIP3      H2             17.0942444076       -0.7140963964       37.0371376863  TIP3      1344            0.0000000000
     26353      1537  TIP3      OH2            31.6645979690       -7.7942930390       26.8131508530  TIP3      1345            0.0000000000
     26354      1537  TIP3      H1             31.6578946396       -6.8159200948       26.7536420714  TIP3      1345            0.0000000000
     26355      1537  TIP3      H2             30.9412035934       -8.0252560755       26.2115685709  TIP3      1345            0.0000000000
     26356      1538  TIP3      OH2            30.5196719654       -8.5353875378       30.2997150070  TIP3      1346            0.0000000000
     26357      1538  TIP3      H1             30.5014803767       -9.1820260915       31.0212793498  TIP3      1346            0.0000000000
     26358      1538  TIP3      H2             30.1747508180       -9.0460359334       29.5463575606  TIP3      1346            0.0000000000
     26359      1539  TIP3      OH2            22.8697869866       -8.8537359116       31.8503066043  TIP3      1347            0.0000000000
     26360      1539  TIP3      H1             22.9542587844       -9.5423666033       32.5425237081  TIP3      1347            0.0000000000
     26361      1539  TIP3      H2             23.6207838373       -8.2854268715       32.0745738324  TIP3      1347            0.0000000000
     26362      1540  TIP3      OH2            34.2126844918       -5.6180086519       28.6154024702  TIP3      1348            0.0000000000
     26363      1540  TIP3      H1             33.7891050264       -6.3216442742       29.1097939640  TIP3      1348            0.0000000000
     26364      1540  TIP3      H2             34.2842926908       -4.9148802889       29.2792483650  TIP3      1348            0.0000000000
     26365      1541  TIP3      OH2            23.7959232902       -4.4051936145       30.3443464876  TIP3      1349            0.0000000000
     26366      1541  TIP3      H1             23.4863243453       -5.2783936248       30.0334010763  TIP3      1349            0.0000000000
     26367      1541  TIP3      H2             24.7506877555       -4.5898398252       30.3930544410  TIP3      1349            0.0000000000
     26368      1542  TIP3      OH2            20.4618409117      -10.8315701072       25.7601685427  TIP3      1350            0.0000000000
     26369      1542  TIP3      H1             19.9983993977       -9.9645454314       25.8066696022  TIP3      1350            0.0000000000
     26370      1542  TIP3      H2             19.8229736772      -11.3948301521       25.3382538939  TIP3      1350            0.0000000000
     26371      1543  TIP3      OH2            21.1346437030       -8.6455224195       27.9513997321  TIP3      1351            0.0000000000
     26372      1543  TIP3      H1             21.4207006697       -9.4492373239       28.4254059150  TIP3      1351            0.0000000000
     26373      1543  TIP3      H2             21.8648689809       -8.5021769404       27.3305590556  TIP3      1351            0.0000000000
     26374      1544  TIP3      OH2            31.3587009902       -0.4066366956       28.8461452318  TIP3      1352            0.0000000000
     26375      1544  TIP3      H1             31.9798971329       -1.1069839307       28.5171326478  TIP3      1352            0.0000000000
     26376      1544  TIP3      H2             31.1066810741       -0.7916863120       29.6788517887  TIP3      1352            0.0000000000
     26377      1545  TIP3      OH2            28.8886937821       -6.1343270593       30.7810883644  TIP3      1353            0.0000000000
     26378      1545  TIP3      H1             29.2259036561       -6.7568315256       30.1152940795  TIP3      1353            0.0000000000
     26379      1545  TIP3      H2             29.7053783999       -5.9742332667       31.2859488155  TIP3      1353            0.0000000000
     26380      1546  TIP3      OH2            32.0433380349      -11.6634485103       31.0779371037  TIP3      1354            0.0000000000
     26381      1546  TIP3      H1             32.2327968891      -12.6184392653       31.0904717179  TIP3      1354            0.0000000000
     26382      1546  TIP3      H2             31.9546248363      -11.5304334695       30.1157615312  TIP3      1354            0.0000000000
     26383      1547  TIP3      OH2            25.1570894012      -13.5690286174       28.3008152502  TIP3      1355            0.0000000000
     26384      1547  TIP3      H1             25.2943715631      -12.7358362112       27.8095203311  TIP3      1355            0.0000000000
     26385      1547  TIP3      H2             24.7917057757      -14.1478343190       27.6062805572  TIP3      1355            0.0000000000
     26386      1548  TIP3      OH2            32.9246839372      -13.4674891899       26.7111702355  TIP3      1356            0.0000000000
     26387      1548  TIP3      H1             33.5998760819      -13.8006363971       27.3521516747  TIP3      1356            0.0000000000
     26388      1548  TIP3      H2             33.4416086883      -12.9331997857       26.0932971762  TIP3      1356            0.0000000000
     26389      1549  TIP3      OH2            21.7979912405      -11.1507502674       29.0512808708  TIP3      1357            0.0000000000
     26390      1549  TIP3      H1             22.4654655719      -11.7032083349       29.4975688562  TIP3      1357            0.0000000000
     26391      1549  TIP3      H2             21.9114239055      -11.4587213776       28.1421747545  TIP3      1357            0.0000000000
     26392      1550  TIP3      OH2            26.9466284310       -9.6174614929       28.3728792709  TIP3      1358            0.0000000000
     26393      1550  TIP3      H1             27.6326744073      -10.1941034495       28.7480030047  TIP3      1358            0.0000000000
     26394      1550  TIP3      H2             26.4475761947      -10.2706094064       27.8387712117  TIP3      1358            0.0000000000
     26395      1551  TIP3      OH2            24.0855707441      -14.6768810241       32.3383669377  TIP3      1359            0.0000000000
     26396      1551  TIP3      H1             23.8049924465      -14.1026734403       31.5931648058  TIP3      1359            0.0000000000
     26397      1551  TIP3      H2             23.4098983917      -14.4476314682       33.0212970753  TIP3      1359            0.0000000000
     26398      1552  TIP3      OH2            31.3459549110       -5.2005635939       25.9013919984  TIP3      1360            0.0000000000
     26399      1552  TIP3      H1             31.1178432472       -5.4459018897       24.9937364776  TIP3      1360            0.0000000000
     26400      1552  TIP3      H2             31.0646459117       -4.2611512630       25.9361807068  TIP3      1360            0.0000000000
     26401      1553  TIP3      OH2            26.5951466501       -7.0272787180       32.5691911864  TIP3      1361            0.0000000000
     26402      1553  TIP3      H1             25.8939361383       -6.3834013022       32.7999981390  TIP3      1361            0.0000000000
     26403      1553  TIP3      H2             27.3067663515       -6.4320986890       32.2860837810  TIP3      1361            0.0000000000
     26404      1554  TIP3      OH2            34.5390303808      -14.1768558311       28.7192406314  TIP3      1362            0.0000000000
     26405      1554  TIP3      H1             34.4638406273      -14.9683221297       29.2493333848  TIP3      1362            0.0000000000
     26406      1554  TIP3      H2             35.2578820108      -13.6931206379       29.1743520333  TIP3      1362            0.0000000000
     26407      1555  TIP3      OH2            23.6584525361      -12.8244407468       30.3794146635  TIP3      1363            0.0000000000
     26408      1555  TIP3      H1             24.2813338371      -12.1297962510       30.6892010461  TIP3      1363            0.0000000000
     26409      1555  TIP3      H2             24.1727655182      -13.2223889668       29.6291751149  TIP3      1363            0.0000000000
     26410      1556  TIP3      OH2            25.0462735166       -5.0276757818       33.3990668926  TIP3      1364            0.0000000000
     26411      1556  TIP3      H1             24.9967897811       -4.1146255516       33.0589820336  TIP3      1364            0.0000000000
     26412      1556  TIP3      H2             24.1621267179       -5.1106433708       33.8397279872  TIP3      1364            0.0000000000
     26413      1557  TIP3      OH2            21.1012463014       -5.3800004393       24.1787386649  TIP3      1365            0.0000000000
     26414      1557  TIP3      H1             20.9018115085       -5.0962212330       23.2847000871  TIP3      1365            0.0000000000
     26415      1557  TIP3      H2             21.2059051283       -4.5791779057       24.7408397211  TIP3      1365            0.0000000000
     26416      1558  TIP3      OH2            34.6447379074       -3.7924661172       31.0256178533  TIP3      1366            0.0000000000
     26417      1558  TIP3      H1             33.6778663189       -3.6480036779       31.0823051904  TIP3      1366            0.0000000000
     26418      1558  TIP3      H2             34.9756657700       -2.9120273252       30.7606451775  TIP3      1366            0.0000000000
     26419      1559  TIP3      OH2            34.9791545429      -15.3520064969       32.2024489894  TIP3      1367            0.0000000000
     26420      1559  TIP3      H1             34.2243704697      -14.7349420359       32.2254226346  TIP3      1367            0.0000000000
     26421      1559  TIP3      H2             35.6665449829      -14.8639253247       31.7393948785  TIP3      1367            0.0000000000
     26422      1560  TIP3      OH2            28.0208000460      -17.3430695297       29.8183030370  TIP3      1368            0.0000000000
     26423      1560  TIP3      H1             27.8803322977      -18.3069041969       29.7331014194  TIP3      1368            0.0000000000
     26424      1560  TIP3      H2             27.1377540896      -17.0382994930       30.1148492693  TIP3      1368            0.0000000000
     26425      1561  TIP3      OH2            32.9647054990       -2.0007466784       27.5360437323  TIP3      1369            0.0000000000
     26426      1561  TIP3      H1             33.4328755501       -2.6961878541       27.0309278452  TIP3      1369            0.0000000000
     26427      1561  TIP3      H2             33.4185614241       -1.2011426554       27.1879550778  TIP3      1369            0.0000000000
     26428      1562  TIP3      OH2            34.2239322402       -4.0676449851       26.0177203753  TIP3      1370            0.0000000000
     26429      1562  TIP3      H1             33.8775146967       -4.7645496439       25.4400914671  TIP3      1370            0.0000000000
     26430      1562  TIP3      H2             34.2390872673       -4.5451497018       26.8734509166  TIP3      1370            0.0000000000
     26431      1563  TIP3      OH2            35.6104984390       -5.3456748968       34.6259537712  TIP3      1371            0.0000000000
     26432      1563  TIP3      H1             35.9077646816       -6.0280561394       33.9963755453  TIP3      1371            0.0000000000
     26433      1563  TIP3      H2             36.0154346470       -4.5586287546       34.2056539687  TIP3      1371            0.0000000000
     26434      1564  TIP3      OH2            30.3196560859       -8.5069332275       24.3255240633  TIP3      1372            0.0000000000
     26435      1564  TIP3      H1             29.6228034648       -7.9476246411       23.9399094778  TIP3      1372            0.0000000000
     26436      1564  TIP3      H2             31.0189156967       -8.4850612345       23.6402639118  TIP3      1372            0.0000000000
     26437      1565  TIP3      OH2            33.7544338927       -8.3189240914       25.2514533076  TIP3      1373            0.0000000000
     26438      1565  TIP3      H1             33.0243785448       -8.0815811386       25.8641884946  TIP3      1373            0.0000000000
     26439      1565  TIP3      H2             34.2387614220       -8.9921131520       25.7847916989  TIP3      1373            0.0000000000
     26440      1566  TIP3      OH2            33.6358725833      -10.2002689912       34.3365777907  TIP3      1374            0.0000000000
     26441      1566  TIP3      H1             33.6878829762       -9.3912052275       34.8705472708  TIP3      1374            0.0000000000
     26442      1566  TIP3      H2             33.0489846603       -9.8692475023       33.6331650543  TIP3      1374            0.0000000000
     26443      1567  TIP3      OH2            25.3824778172       -7.6796993400       27.1569832403  TIP3      1375            0.0000000000
     26444      1567  TIP3      H1             25.0644168895       -8.0636438556       26.3033853853  TIP3      1375            0.0000000000
     26445      1567  TIP3      H2             25.9923564663       -8.3760700464       27.4865058491  TIP3      1375            0.0000000000
     26446      1568  TIP3      OH2            26.7023491231       -4.2913421871       29.8305631539  TIP3      1376            0.0000000000
     26447      1568  TIP3      H1             26.6964112715       -4.8189677866       29.0206829736  TIP3      1376            0.0000000000
     26448      1568  TIP3      H2             27.4824210702       -4.6538693973       30.2899385310  TIP3      1376            0.0000000000
     26449      1569  TIP3      OH2            25.7045557393       -8.9339070422       30.8171386374  TIP3      1377            0.0000000000
     26450      1569  TIP3      H1             26.2546428324       -8.8391239075       30.0141435881  TIP3      1377            0.0000000000
     26451      1569  TIP3      H2             26.0992179024       -8.2691743990       31.4243339958  TIP3      1377            0.0000000000
     26452      1570  TIP3      OH2            32.0654816738       -3.3428355738       31.5138858234  TIP3      1378            0.0000000000
     26453      1570  TIP3      H1             31.8760611417       -2.7468392860       32.2357935095  TIP3      1378            0.0000000000
     26454      1570  TIP3      H2             31.8920343166       -4.2237038624       31.9287699816  TIP3      1378            0.0000000000
     26455      1571  TIP3      OH2            26.6781564094       -4.4804600410       35.4935230387  TIP3      1379            0.0000000000
     26456      1571  TIP3      H1             26.2303660060       -3.7809183577       36.0145648041  TIP3      1379            0.0000000000
     26457      1571  TIP3      H2             25.9950036862       -4.7024433889       34.8134487720  TIP3      1379            0.0000000000
     26458      1572  TIP3      OH2            32.6104677548       -9.0992086436       22.9086786689  TIP3      1380            0.0000000000
     26459      1572  TIP3      H1             33.1626842457       -8.9582018243       23.7103181019  TIP3      1380            0.0000000000
     26460      1572  TIP3      H2             33.0712500202       -8.6305192548       22.2109897112  TIP3      1380            0.0000000000
     26461      1573  TIP3      OH2            23.6075787697       -8.3424520913       34.6566450490  TIP3      1381            0.0000000000
     26462      1573  TIP3      H1             23.6617798356       -7.6776748193       35.3680818295  TIP3      1381            0.0000000000
     26463      1573  TIP3      H2             22.6637250150       -8.2570902170       34.4540269957  TIP3      1381            0.0000000000
     26464      1574  TIP3      OH2            30.3677476181       -2.4310212208       26.3357371160  TIP3      1382            0.0000000000
     26465      1574  TIP3      H1             30.7991886364       -2.1216701521       27.1435933782  TIP3      1382            0.0000000000
     26466      1574  TIP3      H2             29.7894554132       -1.6876288483       26.1292896364  TIP3      1382            0.0000000000
     26467      1575  TIP3      OH2            24.9145886623       -2.4671630927       36.2535615671  TIP3      1383            0.0000000000
     26468      1575  TIP3      H1             24.8365486218       -2.5788081997       35.2913567311  TIP3      1383            0.0000000000
     26469      1575  TIP3      H2             23.9854723649       -2.6021894007       36.5287614253  TIP3      1383            0.0000000000
     26470      1576  TIP3      OH2            36.1526909799      -17.4652920179       22.7588503617  TIP3      1384            0.0000000000
     26471      1576  TIP3      H1             35.2441584554      -17.2558774279       23.0651185966  TIP3      1384            0.0000000000
     26472      1576  TIP3      H2             36.4158303423      -16.6710761200       22.3059614083  TIP3      1384            0.0000000000
     26473      1577  TIP3      OH2            24.3413971666       -8.6344114595       24.8083121884  TIP3      1385            0.0000000000
     26474      1577  TIP3      H1             24.0808505319       -7.8780293003       24.2359002692  TIP3      1385            0.0000000000
     26475      1577  TIP3      H2             23.6884984429       -9.2893576185       24.5646293559  TIP3      1385            0.0000000000
     26476      1578  TIP3      OH2            20.4474585162       -6.2295052089       33.6507962389  TIP3      1386            0.0000000000
     26477      1578  TIP3      H1             19.9945207513       -6.3133453841       32.7928697173  TIP3      1386            0.0000000000
     26478      1578  TIP3      H2             20.5222195975       -7.1749103680       33.8786891068  TIP3      1386            0.0000000000
     26479      1579  TIP3      OH2            20.2012240417       -3.5023579715       30.4595186310  TIP3      1387            0.0000000000
     26480      1579  TIP3      H1             21.1594071954       -3.6096526151       30.4250252734  TIP3      1387            0.0000000000
     26481      1579  TIP3      H2             20.1181022250       -2.6750185669       30.9491469639  TIP3      1387            0.0000000000
     26482      1580  TIP3      OH2            29.3734066897       -3.1961442463       34.9629499317  TIP3      1388            0.0000000000
     26483      1580  TIP3      H1             29.4433045524       -2.4321847924       35.5788758993  TIP3      1388            0.0000000000
     26484      1580  TIP3      H2             28.5377269080       -3.6290433741       35.2420912343  TIP3      1388            0.0000000000
     26485      1581  TIP3      OH2            29.8278200754        0.5001518693       24.7858251318  TIP3      1389            0.0000000000
     26486      1581  TIP3      H1             29.7550258086        0.4171868641       23.8181440950  TIP3      1389            0.0000000000
     26487      1581  TIP3      H2             29.8734954891        1.4611463756       24.9661024136  TIP3      1389            0.0000000000
     26488      1582  TIP3      OH2            23.4787348675       -0.6440392690       26.6188422389  TIP3      1390            0.0000000000
     26489      1582  TIP3      H1             23.6390169081       -1.0335464496       27.5067148573  TIP3      1390            0.0000000000
     26490      1582  TIP3      H2             22.6125812350       -1.0127205199       26.4248221582  TIP3      1390            0.0000000000
     26491      1583  TIP3      OH2            32.8902712364       -0.2805437967       21.7899630493  TIP3      1391            0.0000000000
     26492      1583  TIP3      H1             33.3017901455       -1.0518323359       21.3392812303  TIP3      1391            0.0000000000
     26493      1583  TIP3      H2             32.9223333300       -0.5731803355       22.7199374553  TIP3      1391            0.0000000000
     26494      1584  TIP3      OH2            32.5827808736       -0.3805085562       24.5643186487  TIP3      1392            0.0000000000
     26495      1584  TIP3      H1             31.6272647855       -0.3068364304       24.7322443456  TIP3      1392            0.0000000000
     26496      1584  TIP3      H2             32.8292667057       -1.1158082570       25.1383300079  TIP3      1392            0.0000000000
     26497      1585  TIP3      OH2            35.2256476931      -11.2380502091       36.6479824787  TIP3      1393            0.0000000000
     26498      1585  TIP3      H1             35.0892632791      -10.8465387562       35.7841793974  TIP3      1393            0.0000000000
     26499      1585  TIP3      H2             35.6499986034      -12.0920030236       36.3950019340  TIP3      1393            0.0000000000
     26500      1586  TIP3      OH2            22.7229695117       -4.9083043277       34.6019839355  TIP3      1394            0.0000000000
     26501      1586  TIP3      H1             22.9419121657       -5.2741112127       35.4823460811  TIP3      1394            0.0000000000
     26502      1586  TIP3      H2             21.8551755598       -5.3080199678       34.3896124408  TIP3      1394            0.0000000000
     26503      1587  TIP3      OH2            25.4028783610      -16.4287610567       30.5397773135  TIP3      1395            0.0000000000
     26504      1587  TIP3      H1             24.4983545742      -16.5649363270       30.1851851683  TIP3      1395            0.0000000000
     26505      1587  TIP3      H2             25.2660403830      -15.6078492049       31.0412595389  TIP3      1395            0.0000000000
     26506      1588  TIP3      OH2            30.0405017139      -16.7766745368       33.9126608145  TIP3      1396            0.0000000000
     26507      1588  TIP3      H1             30.4391542844      -17.1949466110       34.6991150522  TIP3      1396            0.0000000000
     26508      1588  TIP3      H2             29.0697444436      -16.8927346477       34.0593537695  TIP3      1396            0.0000000000
     26509      1589  TIP3      OH2            33.2975495456      -12.9330331649       34.7862684400  TIP3      1397            0.0000000000
     26510      1589  TIP3      H1             32.7768838598      -13.1323436208       35.5970686359  TIP3      1397            0.0000000000
     26511      1589  TIP3      H2             33.1512545011      -11.9865159999       34.6105763916  TIP3      1397            0.0000000000
     26512      1590  TIP3      OH2            25.5110519246      -11.4601760284       31.8198194320  TIP3      1398            0.0000000000
     26513      1590  TIP3      H1             24.7678937079      -11.4702917640       32.4509985568  TIP3      1398            0.0000000000
     26514      1590  TIP3      H2             25.4598290573      -10.5558200527       31.4368030850  TIP3      1398            0.0000000000
     26515      1591  TIP3      OH2            25.4630005742      -11.3534615452       26.6813659606  TIP3      1399            0.0000000000
     26516      1591  TIP3      H1             24.5271997052      -11.5902957150       26.5330569180  TIP3      1399            0.0000000000
     26517      1591  TIP3      H2             25.8597791250      -11.6430614478       25.8340512009  TIP3      1399            0.0000000000
     26518      1592  TIP3      OH2            30.9917965276      -10.8661278375       25.4112446884  TIP3      1400            0.0000000000
     26519      1592  TIP3      H1             30.6118513930      -10.0187623326       25.0915719809  TIP3      1400            0.0000000000
     26520      1592  TIP3      H2             31.7074569477      -11.0279011204       24.7730848403  TIP3      1400            0.0000000000
     26521      1593  TIP3      OH2            30.0441247879      -10.6321263119       36.8744584094  TIP3      1401            0.0000000000
     26522      1593  TIP3      H1             29.5370518493      -11.4209910506       37.1772854133  TIP3      1401            0.0000000000
     26523      1593  TIP3      H2             30.8819377361      -10.7454251112       37.3527699085  TIP3      1401            0.0000000000
     26524      1594  TIP3      OH2            32.0171444468      -11.3263175787       28.2828455374  TIP3      1402            0.0000000000
     26525      1594  TIP3      H1             31.7366082141      -10.7909692693       27.5242126935  TIP3      1402            0.0000000000
     26526      1594  TIP3      H2             32.1072798750      -12.1915042290       27.8260308575  TIP3      1402            0.0000000000
     26527      1595  TIP3      OH2            23.1278137610      -11.2193515915       33.4844941408  TIP3      1403            0.0000000000
     26528      1595  TIP3      H1             23.2168193841      -10.8096172824       34.3622897834  TIP3      1403            0.0000000000
     26529      1595  TIP3      H2             22.6874214262      -12.0566582951       33.7021343504  TIP3      1403            0.0000000000
     26530      1596  TIP3      OH2            19.8043748579      -14.1291361111       27.4574082248  TIP3      1404            0.0000000000
     26531      1596  TIP3      H1             20.4511640039      -14.1635952570       28.1998667458  TIP3      1404            0.0000000000
     26532      1596  TIP3      H2             20.2800443153      -14.5033015138       26.7143072007  TIP3      1404            0.0000000000
     26533      1597  TIP3      OH2            31.2193599162       -9.7807111260       32.8299737870  TIP3      1405            0.0000000000
     26534      1597  TIP3      H1             31.6139609333      -10.4754168148       32.2579860158  TIP3      1405            0.0000000000
     26535      1597  TIP3      H2             30.7537713866      -10.3001366331       33.5101164693  TIP3      1405            0.0000000000
     26536      1598  TIP3      OH2            28.0065392478      -13.7695760255       27.7129670010  TIP3      1406            0.0000000000
     26537      1598  TIP3      H1             27.0678613133      -13.7856496090       27.9959220760  TIP3      1406            0.0000000000
     26538      1598  TIP3      H2             28.4987322180      -13.9736426483       28.5199196489  TIP3      1406            0.0000000000
     26539      1599  TIP3      OH2            22.8230905846      -12.2450510879       26.5357134172  TIP3      1407            0.0000000000
     26540      1599  TIP3      H1             21.9299260644      -12.1124143672       26.1634634153  TIP3      1407            0.0000000000
     26541      1599  TIP3      H2             23.1232004275      -13.0967919341       26.1774197936  TIP3      1407            0.0000000000
     26542      1600  TIP3      OH2            26.4232641006      -12.1310564356       24.2275296678  TIP3      1408            0.0000000000
     26543      1600  TIP3      H1             27.4016997738      -12.1996700371       24.3657599140  TIP3      1408            0.0000000000
     26544      1600  TIP3      H2             26.3059061585      -11.4919281651       23.5205079910  TIP3      1408            0.0000000000
     26545      1601  TIP3      OH2            32.3955369361      -14.5838316070       30.9105482376  TIP3      1409            0.0000000000
     26546      1601  TIP3      H1             31.7166121356      -14.5215199377       31.6117173877  TIP3      1409            0.0000000000
     26547      1601  TIP3      H2             31.8869027526      -14.7983484223       30.1146286405  TIP3      1409            0.0000000000
     26548      1602  TIP3      OH2            35.6101035873        1.0905375962       37.2850489828  TIP3      1410            0.0000000000
     26549      1602  TIP3      H1             35.9061374036        1.4339156365       36.4278837634  TIP3      1410            0.0000000000
     26550      1602  TIP3      H2             36.3339273774        1.3943324384       37.8482036492  TIP3      1410            0.0000000000
     26551      1603  TIP3      OH2            23.3071240652       -6.4595003984       36.8325866367  TIP3      1411            0.0000000000
     26552      1603  TIP3      H1             24.0170713534       -6.2061631701       37.4482825672  TIP3      1411            0.0000000000
     26553      1603  TIP3      H2             22.5225639573       -6.3757190613       37.4097988498  TIP3      1411            0.0000000000
     26554      1604  TIP3      OH2            29.3044839898      -11.0411210630       29.5677146478  TIP3      1412            0.0000000000
     26555      1604  TIP3      H1             29.9122590169      -11.5746337218       29.0433296133  TIP3      1412            0.0000000000
     26556      1604  TIP3      H2             29.1557518106      -11.5869039576       30.3509895956  TIP3      1412            0.0000000000
     26557      1605  TIP3      OH2            24.2704933951      -14.8770223430       25.9291213781  TIP3      1413            0.0000000000
     26558      1605  TIP3      H1             24.0262396108      -15.8185941431       25.9836279181  TIP3      1413            0.0000000000
     26559      1605  TIP3      H2             25.1235550283      -14.9644173655       25.4713030183  TIP3      1413            0.0000000000
     26560      1606  TIP3      OH2            27.9413870071      -12.7135768095       31.9858745231  TIP3      1414            0.0000000000
     26561      1606  TIP3      H1             27.1189720403      -12.1918449764       32.0721512350  TIP3      1414            0.0000000000
     26562      1606  TIP3      H2             28.4987142618      -12.3584531005       32.7051043950  TIP3      1414            0.0000000000
     26563      1607  TIP3      OH2            28.5165564680       -6.5363512480       23.6683201657  TIP3      1415            0.0000000000
     26564      1607  TIP3      H1             27.6961579739       -6.9483252587       23.3652648447  TIP3      1415            0.0000000000
     26565      1607  TIP3      H2             28.3105785321       -6.3460538865       24.6087711554  TIP3      1415            0.0000000000
     26566      1608  TIP3      OH2            35.5692159137       -7.2245821479       32.4915299652  TIP3      1416            0.0000000000
     26567      1608  TIP3      H1             36.2088417156       -7.0482681279       31.7737013331  TIP3      1416            0.0000000000
     26568      1608  TIP3      H2             34.7449681317       -7.2569714849       31.9692175194  TIP3      1416            0.0000000000
     26569      1609  TIP3      OH2            30.0277299615       -6.2353989620       34.9128199945  TIP3      1417            0.0000000000
     26570      1609  TIP3      H1             29.6678938305       -6.6492861751       35.7047751836  TIP3      1417            0.0000000000
     26571      1609  TIP3      H2             29.8112807923       -5.3076798171       35.0361713862  TIP3      1417            0.0000000000
     26572      1610  TIP3      OH2            33.0630016241      -11.7804033322       23.5138090302  TIP3      1418            0.0000000000
     26573      1610  TIP3      H1             33.9593231916      -11.8763402961       23.8800387614  TIP3      1418            0.0000000000
     26574      1610  TIP3      H2             33.1223797818      -10.9736584271       22.9746193134  TIP3      1418            0.0000000000
     26575      1611  TIP3      OH2            23.6419055880       -7.0879064131       29.4806352276  TIP3      1419            0.0000000000
     26576      1611  TIP3      H1             24.3155155919       -7.1758398163       28.7773904635  TIP3      1419            0.0000000000
     26577      1611  TIP3      H2             23.7051275767       -7.9433556018       29.9431402348  TIP3      1419            0.0000000000
     26578      1612  TIP3      OH2            30.6429866270       -5.0339831927       22.7713114130  TIP3      1420            0.0000000000
     26579      1612  TIP3      H1             30.3020649700       -4.1654088923       23.0691980261  TIP3      1420            0.0000000000
     26580      1612  TIP3      H2             29.8716316033       -5.6253569489       22.9067221858  TIP3      1420            0.0000000000
     26581      1613  TIP3      OH2            20.6233435762       -8.6865503860       34.7567858498  TIP3      1421            0.0000000000
     26582      1613  TIP3      H1             20.7968675058       -9.1357518272       35.6061345081  TIP3      1421            0.0000000000
     26583      1613  TIP3      H2             20.0133057924       -9.2990586229       34.3056953509  TIP3      1421            0.0000000000
     26584      1614  TIP3      OH2            27.6412049819       -9.1354905033       36.9184577137  TIP3      1422            0.0000000000
     26585      1614  TIP3      H1             27.3206398083       -9.4503538971       36.0582822395  TIP3      1422            0.0000000000
     26586      1614  TIP3      H2             28.5657733143       -9.4528456107       36.9142090112  TIP3      1422            0.0000000000
     26587      1615  TIP3      OH2            32.3132102392       -3.7975663994       34.8513646753  TIP3      1423            0.0000000000
     26588      1615  TIP3      H1             31.3805453685       -3.6692717506       34.6568237159  TIP3      1423            0.0000000000
     26589      1615  TIP3      H2             32.3297466633       -3.5296949550       35.7925749158  TIP3      1423            0.0000000000
     26590      1616  TIP3      OH2            35.7112368182       -2.9557979992       23.6000293431  TIP3      1424            0.0000000000
     26591      1616  TIP3      H1             35.8512714308       -3.7682247999       24.0961869023  TIP3      1424            0.0000000000
     26592      1616  TIP3      H2             36.4030026471       -2.9814913388       22.9346378793  TIP3      1424            0.0000000000
     26593      1617  TIP3      OH2            33.4336554073       -8.0007299308       30.7931360222  TIP3      1425            0.0000000000
     26594      1617  TIP3      H1             32.4925356257       -8.2084592004       30.6324847374  TIP3      1425            0.0000000000
     26595      1617  TIP3      H2             33.9028261903       -8.7265803106       30.3360205343  TIP3      1425            0.0000000000
     26596      1618  TIP3      OH2            26.0230154189       -3.6442974167       26.8623676231  TIP3      1426            0.0000000000
     26597      1618  TIP3      H1             26.5169817713       -2.8314694033       26.6708720561  TIP3      1426            0.0000000000
     26598      1618  TIP3      H2             25.1436336488       -3.4093988913       26.5465968607  TIP3      1426            0.0000000000
     26599      1619  TIP3      OH2            27.4394555647       -5.9749370809       26.4021976645  TIP3      1427            0.0000000000
     26600      1619  TIP3      H1             27.1202752935       -5.0560552346       26.4814609616  TIP3      1427            0.0000000000
     26601      1619  TIP3      H2             26.7091475471       -6.4673075012       26.8275716670  TIP3      1427            0.0000000000
     26602      1620  TIP3      OH2            27.8680287971       -1.7552990235       32.8573187198  TIP3      1428            0.0000000000
     26603      1620  TIP3      H1             28.3264539088       -1.0366258281       32.4147538337  TIP3      1428            0.0000000000
     26604      1620  TIP3      H2             28.4937466989       -2.1943262623       33.4666490547  TIP3      1428            0.0000000000
     26605      1621  TIP3      OH2            26.1143551467       -0.9903204649       25.9237920261  TIP3      1429            0.0000000000
     26606      1621  TIP3      H1             25.1559124325       -0.8404321685       26.0748208313  TIP3      1429            0.0000000000
     26607      1621  TIP3      H2             26.4868361839       -0.1668790820       26.2846024262  TIP3      1429            0.0000000000
     26608      1622  TIP3      OH2            31.4134792838       -5.7939456154       32.4147663121  TIP3      1430            0.0000000000
     26609      1622  TIP3      H1             31.0775194760       -5.9878257469       33.3174069877  TIP3      1430            0.0000000000
     26610      1622  TIP3      H2             32.0417255667       -6.5155549425       32.2465744342  TIP3      1430            0.0000000000
     26611      1623  TIP3      OH2            33.7135193678       -4.7387020639       21.5278119502  TIP3      1431            0.0000000000
     26612      1623  TIP3      H1             33.9981869135       -5.2043993888       22.3360914229  TIP3      1431            0.0000000000
     26613      1623  TIP3      H2             32.7518890934       -4.8584526060       21.6032332828  TIP3      1431            0.0000000000
     26614      1624  TIP3      OH2            34.1446824907       -1.1534921640       34.9036910698  TIP3      1432            0.0000000000
     26615      1624  TIP3      H1             33.5410053985       -1.7322069409       34.4057236607  TIP3      1432            0.0000000000
     26616      1624  TIP3      H2             34.4306534206       -0.5181197419       34.2152530336  TIP3      1432            0.0000000000
     26617      1625  TIP3      OH2            22.2823566371      -13.9488471977       34.3053900561  TIP3      1433            0.0000000000
     26618      1625  TIP3      H1             21.3734531302      -13.6031308950       34.2755671923  TIP3      1433            0.0000000000
     26619      1625  TIP3      H2             22.1689592989      -14.7997974815       34.7574251292  TIP3      1433            0.0000000000
     26620      1626  TIP3      OH2            34.5150860171       -6.1278526498       23.7450635797  TIP3      1434            0.0000000000
     26621      1626  TIP3      H1             34.2660719669       -6.9100806731       24.2913240268  TIP3      1434            0.0000000000
     26622      1626  TIP3      H2             35.4549131721       -6.0586850924       23.9660403950  TIP3      1434            0.0000000000
     26623      1627  TIP3      OH2            21.8893495368       -2.1747185829       32.7196669411  TIP3      1435            0.0000000000
     26624      1627  TIP3      H1             22.1995072521       -3.0937035194       32.7279194704  TIP3      1435            0.0000000000
     26625      1627  TIP3      H2             22.1541234580       -1.8797265435       33.6000785479  TIP3      1435            0.0000000000
     26626      1628  TIP3      OH2            26.6573780098       -4.1167740000       22.4321596872  TIP3      1436            0.0000000000
     26627      1628  TIP3      H1             26.8894169697       -4.6214631753       23.2134567543  TIP3      1436            0.0000000000
     26628      1628  TIP3      H2             26.7103186042       -3.1887909336       22.7284585917  TIP3      1436            0.0000000000
     26629      1629  TIP3      OH2            23.2089804880       -6.8643248131       23.0035992202  TIP3      1437            0.0000000000
     26630      1629  TIP3      H1             22.4537900120       -6.4754988975       23.4810710065  TIP3      1437            0.0000000000
     26631      1629  TIP3      H2             23.6845887268       -6.1135454498       22.6204419486  TIP3      1437            0.0000000000
     26632      1630  TIP3      OH2            30.9955249762      -14.1874466629       33.2699772709  TIP3      1438            0.0000000000
     26633      1630  TIP3      H1             31.7423761019      -14.1178281591       33.8775694310  TIP3      1438            0.0000000000
     26634      1630  TIP3      H2             30.6294249868      -15.0693944652       33.4760433589  TIP3      1438            0.0000000000
     26635      1631  TIP3      OH2            31.9378056571      -14.6556374513       24.2822354100  TIP3      1439            0.0000000000
     26636      1631  TIP3      H1             31.9117668091      -14.0362365468       23.5415494293  TIP3      1439            0.0000000000
     26637      1631  TIP3      H2             32.3210400943      -14.1457125895       25.0041129863  TIP3      1439            0.0000000000
     26638      1632  TIP3      OH2            29.4478387735       -2.4798863437       23.1271329975  TIP3      1440            0.0000000000
     26639      1632  TIP3      H1             28.6264948366       -1.9649658758       23.2497431027  TIP3      1440            0.0000000000
     26640      1632  TIP3      H2             29.9964198280       -1.9218943955       22.5610996484  TIP3      1440            0.0000000000
     26641      1633  TIP3      OH2            28.9143786880      -12.7519192979       25.1350373357  TIP3      1441            0.0000000000
     26642      1633  TIP3      H1             29.7793212645      -12.3086372569       25.1885542642  TIP3      1441            0.0000000000
     26643      1633  TIP3      H2             28.7115033428      -13.0339952036       26.0444982802  TIP3      1441            0.0000000000
     26644      1634  TIP3      OH2            29.5467253225      -11.8461538695       34.3545872422  TIP3      1442            0.0000000000
     26645      1634  TIP3      H1             29.6424347823      -11.2759523157       35.1443629406  TIP3      1442            0.0000000000
     26646      1634  TIP3      H2             30.2156109034      -12.5396393188       34.4414000700  TIP3      1442            0.0000000000
     26647      1635  TIP3      OH2            29.8839744136      -15.8212505537       26.1295417037  TIP3      1443            0.0000000000
     26648      1635  TIP3      H1             29.4829379829      -15.1201252948       26.6539921345  TIP3      1443            0.0000000000
     26649      1635  TIP3      H2             30.4879686796      -15.2691452867       25.5821590169  TIP3      1443            0.0000000000
     26650      1636  TIP3      OH2            26.8801624371       -1.3574417128       23.1950118007  TIP3      1444            0.0000000000
     26651      1636  TIP3      H1             26.9184986551       -0.5613220189       22.6593558735  TIP3      1444            0.0000000000
     26652      1636  TIP3      H2             26.5668760415       -1.0693704880       24.0756856696  TIP3      1444            0.0000000000
     26653      1637  TIP3      OH2            35.6851208761      -14.0314974548       35.1131866933  TIP3      1445            0.0000000000
     26654      1637  TIP3      H1             34.7833874170      -13.6379411987       35.0592755229  TIP3      1445            0.0000000000
     26655      1637  TIP3      H2             36.0068093791      -13.9259729779       34.2147262244  TIP3      1445            0.0000000000
     26656      1638  TIP3      OH2            34.3477295608      -10.1708642363       29.2585596013  TIP3      1446            0.0000000000
     26657      1638  TIP3      H1             33.5230116555      -10.5905245540       28.9337497812  TIP3      1446            0.0000000000
     26658      1638  TIP3      H2             34.7398247207      -10.9155033491       29.7396821315  TIP3      1446            0.0000000000
     26659      1639  TIP3      OH2            35.4405192329       -0.9231673920       30.8877297435  TIP3      1447            0.0000000000
     26660      1639  TIP3      H1             35.2717311603       -0.2295939630       30.2173349417  TIP3      1447            0.0000000000
     26661      1639  TIP3      H2             36.3779383495       -0.8227880903       31.0686544633  TIP3      1447            0.0000000000
     26662      1640  TIP3      OH2            22.8687117890      -16.7894037738       29.6690231976  TIP3      1448            0.0000000000
     26663      1640  TIP3      H1             22.6829995713      -16.7909841472       28.7044298900  TIP3      1448            0.0000000000
     26664      1640  TIP3      H2             22.4735263658      -17.6471165137       29.9348258163  TIP3      1448            0.0000000000
     26665      1641  TIP3      OH2            21.7710480756       -2.9198528835       25.6984026186  TIP3      1449            0.0000000000
     26666      1641  TIP3      H1             20.9876494409       -2.3791743083       25.8514725277  TIP3      1449            0.0000000000
     26667      1641  TIP3      H2             22.3928182005       -2.3820515971       25.1990080409  TIP3      1449            0.0000000000
     26668      1642  TIP3      OH2            21.0378940449       -0.2158969946       37.1126477249  TIP3      1450            0.0000000000
     26669      1642  TIP3      H1             21.6419724550       -0.4149460558       37.8573154269  TIP3      1450            0.0000000000
     26670      1642  TIP3      H2             20.6343977510       -1.0858943310       36.9446818851  TIP3      1450            0.0000000000
     26671      1643  TIP3      OH2            25.7333306309       -1.3475699122       38.7333472895  TIP3      1451            0.0000000000
     26672      1643  TIP3      H1             26.5276697475       -1.7994674821       39.0544901626  TIP3      1451            0.0000000000
     26673      1643  TIP3      H2             25.7109205043       -1.6021839947       37.7872292033  TIP3      1451            0.0000000000
     26674      1644  TIP3      OH2            32.2387041884       -2.9234642316       37.4182990464  TIP3      1452            0.0000000000
     26675      1644  TIP3      H1             31.9251830264       -3.7903379126       37.7442171626  TIP3      1452            0.0000000000
     26676      1644  TIP3      H2             33.0067444157       -2.7778465169       38.0180082849  TIP3      1452            0.0000000000
     26677      1645  TIP3      OH2            34.3894122539       -1.9825978294       20.3473767693  TIP3      1453            0.0000000000
     26678      1645  TIP3      H1             34.5478155028       -2.8615721465       20.7371239056  TIP3      1453            0.0000000000
     26679      1645  TIP3      H2             35.1220255690       -1.8270985284       19.7480473369  TIP3      1453            0.0000000000
     26680      1646  TIP3      OH2            20.9071827169       -6.4977286552       38.1208559680  TIP3      1454            0.0000000000
     26681      1646  TIP3      H1             21.1519060550       -7.3706584738       37.7556390814  TIP3      1454            0.0000000000
     26682      1646  TIP3      H2             20.2427594566       -6.1945920566       37.4790449834  TIP3      1454            0.0000000000
     26683      1647  TIP3      OH2            27.6904770617       -6.4679697217       37.4604252436  TIP3      1455            0.0000000000
     26684      1647  TIP3      H1             27.3343284951       -6.1521334916       36.6114034396  TIP3      1455            0.0000000000
     26685      1647  TIP3      H2             27.7467621473       -7.4470672666       37.3546677733  TIP3      1455            0.0000000000
     26686      1648  TIP3      OH2            33.3399268461       -6.6379064425       34.8384760851  TIP3      1456            0.0000000000
     26687      1648  TIP3      H1             34.1338003733       -6.0473207762       34.8072020308  TIP3      1456            0.0000000000
     26688      1648  TIP3      H2             32.6791922980       -5.9406857958       34.9362478400  TIP3      1456            0.0000000000
     26689      1649  TIP3      OH2            21.8745483388       -9.2304166658       37.4868682078  TIP3      1457            0.0000000000
     26690      1649  TIP3      H1             22.2954887109      -10.0901328393       37.4005989406  TIP3      1457            0.0000000000
     26691      1649  TIP3      H2             21.6759737077       -9.2103420211       38.4404146096  TIP3      1457            0.0000000000
     26692      1650  TIP3      OH2            25.7759592261      -10.2861357490       34.8401937760  TIP3      1458            0.0000000000
     26693      1650  TIP3      H1             25.1828179338       -9.5624482548       35.0949114088  TIP3      1458            0.0000000000
     26694      1650  TIP3      H2             26.1782894981       -9.9175711645       34.0350596497  TIP3      1458            0.0000000000
     26695      1651  TIP3      OH2            30.8229723661       -7.6966209948       38.3031860868  TIP3      1459            0.0000000000
     26696      1651  TIP3      H1             31.7576497449       -7.7476334489       38.0425329874  TIP3      1459            0.0000000000
     26697      1651  TIP3      H2             30.6885599679       -8.5183666214       38.7982255480  TIP3      1459            0.0000000000
     26698      1652  TIP3      OH2            26.1957545533      -12.8937510746       35.8788239229  TIP3      1460            0.0000000000
     26699      1652  TIP3      H1             26.3022685399      -13.6115130675       35.2276267491  TIP3      1460            0.0000000000
     26700      1652  TIP3      H2             26.1406343417      -12.0852289164       35.3329864990  TIP3      1460            0.0000000000
     26701      1653  TIP3      OH2            26.5893676153      -14.5259547655       33.4549789226  TIP3      1461            0.0000000000
     26702      1653  TIP3      H1             27.0964131602      -14.0582135406       32.7486955660  TIP3      1461            0.0000000000
     26703      1653  TIP3      H2             25.6948638911      -14.6009135723       33.0510832171  TIP3      1461            0.0000000000
     26704      1654  TIP3      OH2            28.1210008781       -9.0332177458       33.6944561938  TIP3      1462            0.0000000000
     26705      1654  TIP3      H1             28.8797246358       -9.1990595589       33.1248956389  TIP3      1462            0.0000000000
     26706      1654  TIP3      H2             27.7692897146       -8.1932761493       33.3590065964  TIP3      1462            0.0000000000
     26707      1655  TIP3      OH2            32.5302186004      -11.2840869969       38.6805829157  TIP3      1463            0.0000000000
     26708      1655  TIP3      H1             32.7545799496      -12.2159847925       38.5450908916  TIP3      1463            0.0000000000
     26709      1655  TIP3      H2             33.4051044608      -10.8696970609       38.6460703955  TIP3      1463            0.0000000000
     26710      1656  TIP3      OH2            33.8125590765       -8.4641690618       36.8312105285  TIP3      1464            0.0000000000
     26711      1656  TIP3      H1             33.6005293414       -7.7468006354       36.2054445668  TIP3      1464            0.0000000000
     26712      1656  TIP3      H2             34.7744461039       -8.5225403026       36.6518276093  TIP3      1464            0.0000000000
     26713      1657  TIP3      OH2            24.6679031121      -11.6700514058       37.8494881214  TIP3      1465            0.0000000000
     26714      1657  TIP3      H1             23.8783770708      -12.2166019262       37.6470920155  TIP3      1465            0.0000000000
     26715      1657  TIP3      H2             25.2926202903      -12.0156222575       37.1828889266  TIP3      1465            0.0000000000
     26716      1658  TIP3      OH2            27.3701904463      -17.0929517159       33.8528272431  TIP3      1466            0.0000000000
     26717      1658  TIP3      H1             27.1977710219      -16.1264545681       33.7514322561  TIP3      1466            0.0000000000
     26718      1658  TIP3      H2             26.6275881985      -17.4559922314       33.3385410869  TIP3      1466            0.0000000000
     26719      1659  TIP3      OH2            28.6485223809      -12.7578134352       37.4920229949  TIP3      1467            0.0000000000
     26720      1659  TIP3      H1             28.3198522267      -12.9780187686       38.3827455538  TIP3      1467            0.0000000000
     26721      1659  TIP3      H2             27.8774636145      -12.9477794974       36.9255867837  TIP3      1467            0.0000000000
     26722      1660  TIP3      OH2            31.3477628975      -13.6044811446       36.5597004162  TIP3      1468            0.0000000000
     26723      1660  TIP3      H1             30.3862213438      -13.5656105098       36.6968895213  TIP3      1468            0.0000000000
     26724      1660  TIP3      H2             31.6484580833      -14.2425831325       37.2325949226  TIP3      1468            0.0000000000
     26725      1661  TIP3      OH2            32.9967281859      -14.9968598006       38.4851662238  TIP3      1469            0.0000000000
     26726      1661  TIP3      H1             32.8792875229      -15.9669246498       38.5022404065  TIP3      1469            0.0000000000
     26727      1661  TIP3      H2             32.7061748708      -14.6839457751       39.3754752325  TIP3      1469            0.0000000000
     26728      1662  TIP3      OH2            22.7234872260      -13.7109453001       37.5710182320  TIP3      1470            0.0000000000
     26729      1662  TIP3      H1             22.9734634738      -14.4550402204       36.9969498512  TIP3      1470            0.0000000000
     26730      1662  TIP3      H2             22.6422674813      -14.1485858818       38.4460593718  TIP3      1470            0.0000000000
     26731      1663  TIP3      OH2            27.5932990108      -17.6981206438       36.5430448314  TIP3      1471            0.0000000000
     26732      1663  TIP3      H1             28.2763936436      -18.3986802495       36.5187538126  TIP3      1471            0.0000000000
     26733      1663  TIP3      H2             27.4798129880      -17.5456129125       35.5858505710  TIP3      1471            0.0000000000
     26734      1664  TIP3      OH2            27.9355187543      -16.0944571073       38.6474463898  TIP3      1472            0.0000000000
     26735      1664  TIP3      H1             27.7744824064      -16.5939826310       37.8108176080  TIP3      1472            0.0000000000
     26736      1664  TIP3      H2             27.3663790619      -15.3089805733       38.5378939261  TIP3      1472            0.0000000000
     26737      1665  TIP3      OH2            19.7483980757        0.7854344504       26.2895366503  TIP3      1473            0.0000000000
     26738      1665  TIP3      H1             19.0251410686        0.3160377953       25.8204461676  TIP3      1473            0.0000000000
     26739      1665  TIP3      H2             20.0220763759        0.1444824263       26.9665736094  TIP3      1473            0.0000000000
     26740      1666  TIP3      OH2            20.5922349305       -1.0881309787       28.1324208225  TIP3      1474            0.0000000000
     26741      1666  TIP3      H1             20.2129849008       -1.9491797939       28.3588572863  TIP3      1474            0.0000000000
     26742      1666  TIP3      H2             20.7982301360       -0.7373692164       29.0195745416  TIP3      1474            0.0000000000
     26743      1667  TIP3      OH2            35.9312843798       -4.8212960604       38.5448604270  TIP3      1475            0.0000000000
     26744      1667  TIP3      H1             35.1741343959       -4.9975079905       39.1266449128  TIP3      1475            0.0000000000
     26745      1667  TIP3      H2             36.4688767513       -4.2208301755       39.0882768728  TIP3      1475            0.0000000000
     26746      1668  TIP3      OH2            36.1047487239       -3.0337802902       33.3143366646  TIP3      1476            0.0000000000
     26747      1668  TIP3      H1             35.4466585729       -2.5876882157       33.8641822967  TIP3      1476            0.0000000000
     26748      1668  TIP3      H2             35.5705398901       -3.3673650962       32.5630403345  TIP3      1476            0.0000000000
     26749      1669  TIP3      OH2            35.2753527436      -10.0195565882       26.6187189977  TIP3      1477            0.0000000000
     26750      1669  TIP3      H1             35.4066948672      -10.9769520795       26.6308309914  TIP3      1477            0.0000000000
     26751      1669  TIP3      H2             35.2475637296       -9.8150724534       27.5676096056  TIP3      1477            0.0000000000
     26752      1670  TIP3      OH2            20.6366735960       -7.9938345841       30.6392487312  TIP3      1478            0.0000000000
     26753      1670  TIP3      H1             20.8105834710       -8.0754875081       29.6783352227  TIP3      1478            0.0000000000
     26754      1670  TIP3      H2             21.5299760503       -8.1742205492       30.9922788762  TIP3      1478            0.0000000000
     26755      1671  TIP3      OH2           -37.0393685553       -8.0915031530       36.5311388549  TIP3      1479            0.0000000000
     26756      1671  TIP3      H1            -36.4435822419       -8.8594339414       36.5545774815  TIP3      1479            0.0000000000
     26757      1671  TIP3      H2            -36.4782588124       -7.3619070240       36.2254950812  TIP3      1479            0.0000000000
     26758      1672  TIP3      OH2            35.6760532227      -13.9603150754       20.1045477555  TIP3      1480            0.0000000000
     26759      1672  TIP3      H1             36.3116984418      -14.4388539547       20.6434841319  TIP3      1480            0.0000000000
     26760      1672  TIP3      H2             34.8901017038      -14.5218762878       20.2047499925  TIP3      1480            0.0000000000
     26761      1673  TIP3      OH2            35.2680977605      -12.5203496341       24.9642057275  TIP3      1481            0.0000000000
     26762      1673  TIP3      H1             35.5528454326      -13.4029578817       25.2669456732  TIP3      1481            0.0000000000
     26763      1673  TIP3      H2             36.0650393760      -12.1725504409       24.5742266090  TIP3      1481            0.0000000000
     26764      1674  TIP3      OH2            35.5272366903      -12.4725261569       30.4263974007  TIP3      1482            0.0000000000
     26765      1674  TIP3      H1             36.4726566559      -12.3474801803       30.2529908305  TIP3      1482            0.0000000000
     26766      1674  TIP3      H2             35.5425012989      -11.9660864467       31.2598006491  TIP3      1482            0.0000000000
     26767      1675  TIP3      OH2            35.9826366629      -11.2195257173       33.3959380321  TIP3      1483            0.0000000000
     26768      1675  TIP3      H1             35.0814210098      -10.9213359030       33.5996858260  TIP3      1483            0.0000000000
     26769      1675  TIP3      H2             36.3894925042      -10.4511811687       32.9639691278  TIP3      1483            0.0000000000
     26770      1676  TIP3      OH2            20.2611956415      -12.7107431508       36.7782089925  TIP3      1484            0.0000000000
     26771      1676  TIP3      H1             21.1964243326      -12.9130067230       36.9882459149  TIP3      1484            0.0000000000
     26772      1676  TIP3      H2             19.8027086556      -13.5300808852       37.0717146516  TIP3      1484            0.0000000000
     26773      1677  TIP3      OH2            35.1668540532      -15.4161245191       25.6041441967  TIP3      1485            0.0000000000
     26774      1677  TIP3      H1             36.0378315334      -15.6906614047       25.9405502544  TIP3      1485            0.0000000000
     26775      1677  TIP3      H2             35.1146604067      -15.9766836021       24.7955086488  TIP3      1485            0.0000000000
     26776      1678  TIP3      OH2            21.4552540070      -14.4009520138       29.6392045713  TIP3      1486            0.0000000000
     26777      1678  TIP3      H1             21.9134293461      -15.2264265372       29.9084121732  TIP3      1486            0.0000000000
     26778      1678  TIP3      H2             22.0046193307      -13.7116017660       30.0417836239  TIP3      1486            0.0000000000
     26779      1679  TIP3      OH2            19.7332843598      -11.3996002715       30.6776978091  TIP3      1487            0.0000000000
     26780      1679  TIP3      H1             20.2994170661      -11.6532794775       29.9202935775  TIP3      1487            0.0000000000
     26781      1679  TIP3      H2             20.2062449120      -10.5990180397       30.9477680662  TIP3      1487            0.0000000000
     26782      1680  TIP3      OH2            34.7052600625       -0.2965130362       26.7609634061  TIP3      1488            0.0000000000
     26783      1680  TIP3      H1             35.3536843293       -0.6557375542       26.1507965297  TIP3      1488            0.0000000000
     26784      1680  TIP3      H2             35.2478011486        0.2571952551       27.3515850689  TIP3      1488            0.0000000000
     26785      1681  TIP3      OH2            20.0477880052      -16.4946595593       33.0462463196  TIP3      1489            0.0000000000
     26786      1681  TIP3      H1             19.3820091851      -16.6841636530       33.7282549665  TIP3      1489            0.0000000000
     26787      1681  TIP3      H2             19.5914753518      -15.8183843066       32.5068105237  TIP3      1489            0.0000000000
     26788      1682  TIP3      OH2            22.2863314318       -3.2746946245       37.2190564838  TIP3      1490            0.0000000000
     26789      1682  TIP3      H1             21.4350665560       -3.0825758986       36.7912875411  TIP3      1490            0.0000000000
     26790      1682  TIP3      H2             22.0262676051       -3.3468613932       38.1453250296  TIP3      1490            0.0000000000
     26791      1683  TIP3      OH2            25.1815021351       -2.2916408815       33.5134097440  TIP3      1491            0.0000000000
     26792      1683  TIP3      H1             24.8482504045       -1.4277816059       33.2197821289  TIP3      1491            0.0000000000
     26793      1683  TIP3      H2             26.0924660727       -2.2317918053       33.1749835025  TIP3      1491            0.0000000000
     26794      1684  TIP3      OH2            29.5290373668       -0.8616563603       36.3450259588  TIP3      1492            0.0000000000
     26795      1684  TIP3      H1             29.5950190484       -1.1999273882       37.2871958692  TIP3      1492            0.0000000000
     26796      1684  TIP3      H2             30.4587519506       -0.5741712301       36.2424994869  TIP3      1492            0.0000000000
     26797      1685  TIP3      OH2            31.7902381340        0.4135239995       35.6804882786  TIP3      1493            0.0000000000
     26798      1685  TIP3      H1             32.5628013240       -0.1506646394       35.4717160880  TIP3      1493            0.0000000000
     26799      1685  TIP3      H2             32.1464024551        0.8399114307       36.5051485463  TIP3      1493            0.0000000000
     26800      1686  TIP3      OH2            22.6086613814        0.9512256776       33.4748231640  TIP3      1494            0.0000000000
     26801      1686  TIP3      H1             21.8789681152        1.4568327910       33.0870845228  TIP3      1494            0.0000000000
     26802      1686  TIP3      H2             22.3063356398        0.7658572012       34.3769896478  TIP3      1494            0.0000000000
     26803      1687  TIP3      OH2            25.0927881113        0.5407375236       32.5548050683  TIP3      1495            0.0000000000
     26804      1687  TIP3      H1             24.1929157245        0.6729806356       32.9434293173  TIP3      1495            0.0000000000
     26805      1687  TIP3      H2             25.0103643110        1.1211265320       31.7762287558  TIP3      1495            0.0000000000
     26806      1688  TIP3      OH2            29.8311067770        0.4834812400       31.5203360998  TIP3      1496            0.0000000000
     26807      1688  TIP3      H1             29.2686150297        0.9676554904       30.8651750721  TIP3      1496            0.0000000000
     26808      1688  TIP3      H2             30.1592601837        1.2430330099       32.0113483943  TIP3      1496            0.0000000000
     26809      1689  TIP3      OH2            31.9823589108       -0.6975175098       32.8499547118  TIP3      1497            0.0000000000
     26810      1689  TIP3      H1             31.2887571284       -0.5172548685       32.2093243926  TIP3      1497            0.0000000000
     26811      1689  TIP3      H2             32.5767910656        0.0606761345       32.6685780290  TIP3      1497            0.0000000000
     26812      1690  TIP3      OH2            34.5821329329        0.8705135990       32.9697199234  TIP3      1498            0.0000000000
     26813      1690  TIP3      H1             34.5892175141        1.8238448490       32.7490400343  TIP3      1498            0.0000000000
     26814      1690  TIP3      H2             34.9207568863        0.4723909800       32.1447391065  TIP3      1498            0.0000000000
     26815      1691  TIP3      OH2            22.0794035306       -0.3987912316       30.4215587584  TIP3      1499            0.0000000000
     26816      1691  TIP3      H1             21.9928750246       -0.8602446035       31.2835861457  TIP3      1499            0.0000000000
     26817      1691  TIP3      H2             22.8902605618       -0.7824924112       30.0352283802  TIP3      1499            0.0000000000
     26818      1692  TIP3      OH2            24.1503921457       -1.6924754979       29.0655396793  TIP3      1500            0.0000000000
     26819      1692  TIP3      H1             23.9890581181       -2.6215332452       29.3107266438  TIP3      1500            0.0000000000
     26820      1692  TIP3      H2             25.0001124529       -1.5294135521       29.5260480491  TIP3      1500            0.0000000000
     26821      1693  TIP3      OH2            26.7625927420       -1.1969615522       29.9591428892  TIP3      1501            0.0000000000
     26822      1693  TIP3      H1             26.8889382474       -2.1208701140       29.6737864077  TIP3      1501            0.0000000000
     26823      1693  TIP3      H2             26.7477838715       -1.3062153714       30.9212897585  TIP3      1501            0.0000000000
     26824      1694  TIP3      OH2            30.2098987589      -15.5544838896       29.0818719612  TIP3      1502            0.0000000000
     26825      1694  TIP3      H1             29.5280294021      -16.1914201383       29.3512941709  TIP3      1502            0.0000000000
     26826      1694  TIP3      H2             30.7614271274      -16.0855172858       28.4977140971  TIP3      1502            0.0000000000
     26827      1695  TIP3      OH2            35.3606833955      -17.5138824229       29.1824015826  TIP3      1503            0.0000000000
     26828      1695  TIP3      H1             35.9012684787      -16.8716324823       28.7085725765  TIP3      1503            0.0000000000
     26829      1695  TIP3      H2             34.4616959690      -17.1787994234       28.9637625915  TIP3      1503            0.0000000000
     26830      1696  TIP3      OH2            22.5522948533      -16.9108309075       26.9472333968  TIP3      1504            0.0000000000
     26831      1696  TIP3      H1             21.7650226882      -17.1542790357       26.4273657096  TIP3      1504            0.0000000000
     26832      1696  TIP3      H2             23.0343984023      -17.7635762782       26.8837493894  TIP3      1504            0.0000000000
     26833      1697  TIP3      OH2            27.0336040271      -17.0364494080       26.7242119164  TIP3      1505            0.0000000000
     26834      1697  TIP3      H1             27.9155451353      -16.6261915963       26.6178005617  TIP3      1505            0.0000000000
     26835      1697  TIP3      H2             27.0273107695      -17.2169148604       27.6601164057  TIP3      1505            0.0000000000
     26836      1698  TIP3      OH2            32.8125183155      -17.0174787162       28.3203373707  TIP3      1506            0.0000000000
     26837      1698  TIP3      H1             32.7204615419      -16.8690312284       27.3680024172  TIP3      1506            0.0000000000
     26838      1698  TIP3      H2             32.3757282510      -17.8930825123       28.4599750848  TIP3      1506            0.0000000000
     26839      1699  TIP3      OH2            33.9374910080      -17.0161991715       23.9448654274  TIP3      1507            0.0000000000
     26840      1699  TIP3      H1             33.2279697288      -16.3487069003       23.8998268894  TIP3      1507            0.0000000000
     26841      1699  TIP3      H2             33.4835608783      -17.8438434059       24.2418503555  TIP3      1507            0.0000000000
     26842      1700  TIP3      OH2            30.1472535297        0.0560206825       22.0420255376  TIP3      1508            0.0000000000
     26843      1700  TIP3      H1             31.0507154964        0.3576759003       21.8209051813  TIP3      1508            0.0000000000
     26844      1700  TIP3      H2             29.9024092950       -0.3655062362       21.2146160170  TIP3      1508            0.0000000000
     26845      1701  TIP3      OH2            22.4555228219      -16.3917158518       36.3898516056  TIP3      1509            0.0000000000
     26846      1701  TIP3      H1             22.0604548739      -17.1851969123       36.8007917980  TIP3      1509            0.0000000000
     26847      1701  TIP3      H2             23.3650116743      -16.4338731904       36.7675547926  TIP3      1509            0.0000000000
     26848      1702  TIP3      OH2            24.4559120168      -16.9887710629       38.0502985398  TIP3      1510            0.0000000000
     26849      1702  TIP3      H1             25.3353115623      -17.3396538123       37.7995636323  TIP3      1510            0.0000000000
     26850      1702  TIP3      H2             24.0794485661      -17.7939875024       38.4591947694  TIP3      1510            0.0000000000
     26851      1703  TIP3      OH2            32.8803550069      -17.6958647599       38.1758802692  TIP3      1511            0.0000000000
     26852      1703  TIP3      H1             32.9500529745      -18.1912732614       39.0151787670  TIP3      1511            0.0000000000
     26853      1703  TIP3      H2             33.7885059823      -17.7530627792       37.8133878914  TIP3      1511            0.0000000000
     26854      1704  TIP3      OH2            35.9902333014       -1.7001794664       36.9270775979  TIP3      1512            0.0000000000
     26855      1704  TIP3      H1             35.2867489192       -1.8425258586       36.2685965151  TIP3      1512            0.0000000000
     26856      1704  TIP3      H2             35.9030520913       -0.7248196463       37.0249479318  TIP3      1512            0.0000000000
     26857      1705  TIP3      OH2           -24.8897582578       11.0759458755       26.8086439262  TIP3      1513            0.0000000000
     26858      1705  TIP3      H1            -24.9023218160       12.0560344831       26.7799408933  TIP3      1513            0.0000000000
     26859      1705  TIP3      H2            -25.6393010635       10.8552213538       26.2646513785  TIP3      1513            0.0000000000
     26860      1706  TIP3      OH2           -26.0311463951       10.3029850309       30.2814953647  TIP3      1514            0.0000000000
     26861      1706  TIP3      H1            -26.0755234962        9.6874442006       31.0263658415  TIP3      1514            0.0000000000
     26862      1706  TIP3      H2            -26.4327816711        9.8243300292       29.5405491722  TIP3      1514            0.0000000000
     26863      1707  TIP3      OH2           -33.6571622999        9.9913477823       31.8209310329  TIP3      1515            0.0000000000
     26864      1707  TIP3      H1            -33.6098039310        9.3093383823       32.5260643637  TIP3      1515            0.0000000000
     26865      1707  TIP3      H2            -32.9286327666       10.5742915996       32.0723944034  TIP3      1515            0.0000000000
     26866      1708  TIP3      OH2           -22.3685497680       13.2754403234       28.5789226505  TIP3      1516            0.0000000000
     26867      1708  TIP3      H1            -22.7704996148       12.5513493737       29.0678716587  TIP3      1516            0.0000000000
     26868      1708  TIP3      H2            -22.3396398392       13.9784809720       29.2560961861  TIP3      1516            0.0000000000
     26869      1709  TIP3      OH2           -32.8157160579       14.4506325243       30.3610417983  TIP3      1517            0.0000000000
     26870      1709  TIP3      H1            -33.1174571339       13.5799753157       30.0400816775  TIP3      1517            0.0000000000
     26871      1709  TIP3      H2            -31.8562616163       14.2710081018       30.3925048554  TIP3      1517            0.0000000000
     26872      1710  TIP3      OH2           -35.9037175050        8.0447782661       25.5305092651  TIP3      1518            0.0000000000
     26873      1710  TIP3      H1            -36.4233098782        8.8123750395       25.8784135246  TIP3      1518            0.0000000000
     26874      1710  TIP3      H2            -36.6475429363        7.4704501944       25.3967672912  TIP3      1518            0.0000000000
     26875      1711  TIP3      OH2           -35.4348773644       10.1738200610       27.9241498686  TIP3      1519            0.0000000000
     26876      1711  TIP3      H1            -35.1612563353        9.4139733436       28.4569479844  TIP3      1519            0.0000000000
     26877      1711  TIP3      H2            -34.6942085678       10.3259050253       27.3306059210  TIP3      1519            0.0000000000
     26878      1712  TIP3      OH2           -25.2414648225       18.4345265681       28.8229459950  TIP3      1520            0.0000000000
     26879      1712  TIP3      H1            -24.5941935670       17.7472366387       28.5263486231  TIP3      1520            0.0000000000
     26880      1712  TIP3      H2            -25.4611237653       18.0880420673       29.6878010408  TIP3      1520            0.0000000000
     26881      1713  TIP3      OH2           -27.6773528261       12.7169086260       30.7774027988  TIP3      1521            0.0000000000
     26882      1713  TIP3      H1            -27.3403738187       12.1020572357       30.1080231251  TIP3      1521            0.0000000000
     26883      1713  TIP3      H2            -26.8654104689       12.8863011260       31.2860339290  TIP3      1521            0.0000000000
     26884      1714  TIP3      OH2           -19.0797632825        4.3877638477       31.5017327106  TIP3      1522            0.0000000000
     26885      1714  TIP3      H1            -18.8956576415        4.9760988435       32.2642172422  TIP3      1522            0.0000000000
     26886      1714  TIP3      H2            -18.5068803689        4.7926731370       30.8327051141  TIP3      1522            0.0000000000
     26887      1715  TIP3      OH2           -24.3656258451        7.4117952850       31.2109061321  TIP3      1523            0.0000000000
     26888      1715  TIP3      H1            -24.0750554979        6.5070733205       31.3925440458  TIP3      1523            0.0000000000
     26889      1715  TIP3      H2            -24.4439085692        7.5627708269       30.2501595265  TIP3      1523            0.0000000000
     26890      1716  TIP3      OH2           -31.3821889361        5.2710438144       28.2947313096  TIP3      1524            0.0000000000
     26891      1716  TIP3      H1            -31.2802697365        6.1105863267       27.8094875759  TIP3      1524            0.0000000000
     26892      1716  TIP3      H2            -31.7850144569        4.7088667213       27.5976228018  TIP3      1524            0.0000000000
     26893      1717  TIP3      OH2           -23.6790917823        5.3786921743       26.7212570395  TIP3      1525            0.0000000000
     26894      1717  TIP3      H1            -22.9945359659        5.0263703533       27.3423941262  TIP3      1525            0.0000000000
     26895      1717  TIP3      H2            -23.1370480447        5.9332112030       26.1506101894  TIP3      1525            0.0000000000
     26896      1718  TIP3      OH2           -34.7365806105        7.6778900634       28.9587323617  TIP3      1526            0.0000000000
     26897      1718  TIP3      H1            -34.0774152693        7.1706429569       29.4751710225  TIP3      1526            0.0000000000
     26898      1718  TIP3      H2            -34.5937135201        7.3219906578       28.0701039927  TIP3      1526            0.0000000000
     26899      1719  TIP3      OH2           -29.5809070306        9.2483844547       28.3388940148  TIP3      1527            0.0000000000
     26900      1719  TIP3      H1            -28.9499292111        8.6619722866       28.7680549134  TIP3      1527            0.0000000000
     26901      1719  TIP3      H2            -30.1268237326        8.5953322071       27.8541727847  TIP3      1527            0.0000000000
     26902      1720  TIP3      OH2           -18.6352350245        5.7919780011       33.7764984580  TIP3      1528            0.0000000000
     26903      1720  TIP3      H1            -19.2475976756        6.5473924613       33.6523500465  TIP3      1528            0.0000000000
     26904      1720  TIP3      H2            -18.6069444823        5.7128404257       34.7388433635  TIP3      1528            0.0000000000
     26905      1721  TIP3      OH2           -32.4774924068        4.1808756053       32.3346180762  TIP3      1529            0.0000000000
     26906      1721  TIP3      H1            -32.7605198367        4.7470651082       31.5851622815  TIP3      1529            0.0000000000
     26907      1721  TIP3      H2            -33.1659963393        4.4054267654       33.0098597889  TIP3      1529            0.0000000000
     26908      1722  TIP3      OH2           -25.2083832731       13.6644443586       25.9203912360  TIP3      1530            0.0000000000
     26909      1722  TIP3      H1            -25.4390844788       13.4184076665       25.0289572599  TIP3      1530            0.0000000000
     26910      1722  TIP3      H2            -25.4947194975       14.6082996163       25.9467629074  TIP3      1530            0.0000000000
     26911      1723  TIP3      OH2           -29.9533495556       11.8214818087       32.5776690923  TIP3      1531            0.0000000000
     26912      1723  TIP3      H1            -30.6763769834       12.4497973428       32.8049200382  TIP3      1531            0.0000000000
     26913      1723  TIP3      H2            -29.2604512286       12.4307592337       32.2826756605  TIP3      1531            0.0000000000
     26914      1724  TIP3      OH2           -21.9342800002        4.7657738037       28.7418039993  TIP3      1532            0.0000000000
     26915      1724  TIP3      H1            -22.0154298973        3.9129077920       29.1857934715  TIP3      1532            0.0000000000
     26916      1724  TIP3      H2            -21.1425198728        5.1203431202       29.1863312904  TIP3      1532            0.0000000000
     26917      1725  TIP3      OH2           -32.9099092112        6.0021201681       30.3663464712  TIP3      1533            0.0000000000
     26918      1725  TIP3      H1            -32.3214438491        6.7162817256       30.6955839086  TIP3      1533            0.0000000000
     26919      1725  TIP3      H2            -32.3749957508        5.6307903149       29.6194582410  TIP3      1533            0.0000000000
     26920      1726  TIP3      OH2           -31.5357827159       13.8170930565       33.3810306435  TIP3      1534            0.0000000000
     26921      1726  TIP3      H1            -31.5860915711       14.7377024614       33.0601232690  TIP3      1534            0.0000000000
     26922      1726  TIP3      H2            -32.4162104349       13.7404687323       33.8222987616  TIP3      1534            0.0000000000
     26923      1727  TIP3      OH2           -35.5164924636       13.5101651840       24.1954837587  TIP3      1535            0.0000000000
     26924      1727  TIP3      H1            -35.7211241969       13.7623176599       23.2819409185  TIP3      1535            0.0000000000
     26925      1727  TIP3      H2            -35.3686481213       14.3290015803       24.6929482118  TIP3      1535            0.0000000000
     26926      1728  TIP3      OH2           -21.8355905578       15.1100096834       30.9530362221  TIP3      1536            0.0000000000
     26927      1728  TIP3      H1            -22.8038460909       15.2235870680       31.0713739213  TIP3      1536            0.0000000000
     26928      1728  TIP3      H2            -21.5666357722       16.0245255381       30.7454911942  TIP3      1536            0.0000000000
     26929      1729  TIP3      OH2           -21.5264522295        3.3849213783       32.2999143996  TIP3      1537            0.0000000000
     26930      1729  TIP3      H1            -22.2248838998        4.0374258780       32.2544447211  TIP3      1537            0.0000000000
     26931      1729  TIP3      H2            -20.7832845409        3.8047961343       31.8154729181  TIP3      1537            0.0000000000
     26932      1730  TIP3      OH2           -28.5400476615        1.5418344684       29.8089214173  TIP3      1538            0.0000000000
     26933      1730  TIP3      H1            -28.6688349241        0.5760104582       29.7229117299  TIP3      1538            0.0000000000
     26934      1730  TIP3      H2            -29.4341852523        1.8129032897       30.1089506500  TIP3      1538            0.0000000000
     26935      1731  TIP3      OH2           -23.5551167291       16.8975320402       27.5721767063  TIP3      1539            0.0000000000
     26936      1731  TIP3      H1            -23.1429238452       16.1789590908       27.0478313946  TIP3      1539            0.0000000000
     26937      1731  TIP3      H2            -23.1441300616       17.6779692669       27.1430558489  TIP3      1539            0.0000000000
     26938      1732  TIP3      OH2           -22.3429092948       14.8283812360       26.0628714770  TIP3      1540            0.0000000000
     26939      1732  TIP3      H1            -22.6335070280       14.1348530979       25.4460683739  TIP3      1540            0.0000000000
     26940      1732  TIP3      H2            -22.3262051899       14.3269256375       26.8975740127  TIP3      1540            0.0000000000
     26941      1733  TIP3      OH2           -20.6924953864       13.4135083854       34.5633455858  TIP3      1541            0.0000000000
     26942      1733  TIP3      H1            -20.6171266613       12.7622298731       33.8292032990  TIP3      1541            0.0000000000
     26943      1733  TIP3      H2            -20.5519096862       14.2553273844       34.0952727546  TIP3      1541            0.0000000000
     26944      1734  TIP3      OH2           -18.8554834486        9.7312485283       32.5956661324  TIP3      1542            0.0000000000
     26945      1734  TIP3      H1            -19.5255126026       10.4431588727       32.6201854508  TIP3      1542            0.0000000000
     26946      1734  TIP3      H2            -18.3631556328        9.9627733644       31.7870423528  TIP3      1542            0.0000000000
     26947      1735  TIP3      OH2           -22.8169202055       10.4980702115       25.2308834436  TIP3      1543            0.0000000000
     26948      1735  TIP3      H1            -23.5188895916       10.7723347827       25.8593424410  TIP3      1543            0.0000000000
     26949      1735  TIP3      H2            -22.3063074975        9.8795464238       25.7765504300  TIP3      1543            0.0000000000
     26950      1736  TIP3      OH2           -22.8844055307        8.6684808824       34.3411329003  TIP3      1544            0.0000000000
     26951      1736  TIP3      H1            -22.8687511022        9.4826615737       34.8726099049  TIP3      1544            0.0000000000
     26952      1736  TIP3      H2            -23.5016260390        8.9921730744       33.6604085462  TIP3      1544            0.0000000000
     26953      1737  TIP3      OH2           -31.1517765026       11.1808221070       27.1452639711  TIP3      1545            0.0000000000
     26954      1737  TIP3      H1            -31.5283901739       10.7692861214       26.3443351279  TIP3      1545            0.0000000000
     26955      1737  TIP3      H2            -30.5657183369       10.4787550045       27.5072011921  TIP3      1545            0.0000000000
     26956      1738  TIP3      OH2           -29.8770430394       14.5564992134       29.8444353506  TIP3      1546            0.0000000000
     26957      1738  TIP3      H1            -29.8791385241       14.0420552520       29.0280140593  TIP3      1546            0.0000000000
     26958      1738  TIP3      H2            -29.0853018071       14.2016552927       30.2879746313  TIP3      1546            0.0000000000
     26959      1739  TIP3      OH2           -30.8497288980        9.9221152151       30.8132663272  TIP3      1547            0.0000000000
     26960      1739  TIP3      H1            -30.3022903321       10.0260499220       30.0125841556  TIP3      1547            0.0000000000
     26961      1739  TIP3      H2            -30.4750963671       10.5941232148       31.4255756083  TIP3      1547            0.0000000000
     26962      1740  TIP3      OH2           -24.4338505460       15.4979653029       31.5247924797  TIP3      1548            0.0000000000
     26963      1740  TIP3      H1            -24.7250190708       16.1321379981       32.1879064148  TIP3      1548            0.0000000000
     26964      1740  TIP3      H2            -24.7005510073       14.6440291545       31.9425875240  TIP3      1548            0.0000000000
     26965      1741  TIP3      OH2           -29.9065322588       14.3494398173       35.5078163440  TIP3      1549            0.0000000000
     26966      1741  TIP3      H1            -30.3248252581       15.0882036927       35.9986883426  TIP3      1549            0.0000000000
     26967      1741  TIP3      H2            -30.5796298933       14.1508828138       34.8118089508  TIP3      1549            0.0000000000
     26968      1742  TIP3      OH2           -32.9135511263       10.5020902938       34.7350024292  TIP3      1550            0.0000000000
     26969      1742  TIP3      H1            -32.9122542761       11.2363453270       35.3765651594  TIP3      1550            0.0000000000
     26970      1742  TIP3      H2            -33.8439329274       10.5789670574       34.4359577693  TIP3      1550            0.0000000000
     26971      1743  TIP3      OH2           -26.2174000073       16.4405739184       26.3397726831  TIP3      1551            0.0000000000
     26972      1743  TIP3      H1            -25.7856161491       16.7339088367       27.1520235473  TIP3      1551            0.0000000000
     26973      1743  TIP3      H2            -26.7730017235       17.2014644924       26.1262457745  TIP3      1551            0.0000000000
     26974      1744  TIP3      OH2           -31.6554854124       16.3693554072       36.2538342066  TIP3      1552            0.0000000000
     26975      1744  TIP3      H1            -31.7510574189       16.2924092138       35.2879288924  TIP3      1552            0.0000000000
     26976      1744  TIP3      H2            -32.5897600459       16.2622172467       36.5356283124  TIP3      1552            0.0000000000
     26977      1745  TIP3      OH2           -20.1776743176        1.4468951775       22.9181353268  TIP3      1553            0.0000000000
     26978      1745  TIP3      H1            -21.1634393967        1.4784637139       23.0069082484  TIP3      1553            0.0000000000
     26979      1745  TIP3      H2            -20.0231579021        2.1826005872       22.3277682647  TIP3      1553            0.0000000000
     26980      1746  TIP3      OH2           -32.1607609219       10.1704545987       24.6363005528  TIP3      1554            0.0000000000
     26981      1746  TIP3      H1            -32.5017289511       11.0278740869       24.3539485155  TIP3      1554            0.0000000000
     26982      1746  TIP3      H2            -32.9131487084        9.5683167371       24.6342348994  TIP3      1554            0.0000000000
     26983      1747  TIP3      OH2           -35.6933872406       12.5341831902       33.4365471171  TIP3      1555            0.0000000000
     26984      1747  TIP3      H1            -36.4227793098       12.5833836782       32.7944843364  TIP3      1555            0.0000000000
     26985      1747  TIP3      H2            -35.9655496021       11.6938016304       33.8492682308  TIP3      1555            0.0000000000
     26986      1748  TIP3      OH2           -36.2019889093       15.5255309916       30.2460184035  TIP3      1556            0.0000000000
     26987      1748  TIP3      H1            -35.3214033235       15.1911019086       30.4577617384  TIP3      1556            0.0000000000
     26988      1748  TIP3      H2            -36.3891766260       16.1059289732       30.9925785775  TIP3      1556            0.0000000000
     26989      1749  TIP3      OH2           -18.0743372815       16.0080967531       36.1774869584  TIP3      1557            0.0000000000
     26990      1749  TIP3      H1            -18.3526909594       15.0883140428       36.0833111932  TIP3      1557            0.0000000000
     26991      1749  TIP3      H2            -18.9473152990       16.3391237657       36.5232761731  TIP3      1557            0.0000000000
     26992      1750  TIP3      OH2           -27.1723858526       15.6067587658       34.9983704242  TIP3      1558            0.0000000000
     26993      1750  TIP3      H1            -27.1178682348       16.4429166725       35.5197462313  TIP3      1558            0.0000000000
     26994      1750  TIP3      H2            -28.0491041968       15.2580618790       35.2403681045  TIP3      1558            0.0000000000
     26995      1751  TIP3      OH2           -26.7489506053       19.3447435675       24.7506441709  TIP3      1559            0.0000000000
     26996      1751  TIP3      H1            -26.8440562042       19.2942121598       23.7835935486  TIP3      1559            0.0000000000
     26997      1751  TIP3      H2            -26.7337334995       20.3048112869       24.9215092507  TIP3      1559            0.0000000000
     26998      1752  TIP3      OH2           -33.0964164580       18.2404562207       26.6042534961  TIP3      1560            0.0000000000
     26999      1752  TIP3      H1            -32.9479266492       17.8001648925       27.4633818469  TIP3      1560            0.0000000000
     27000      1752  TIP3      H2            -33.9256471653       17.8132328383       26.3489574158  TIP3      1560            0.0000000000
     27001      1753  TIP3      OH2           -23.9951507856       18.5240220488       24.5660011349  TIP3      1561            0.0000000000
     27002      1753  TIP3      H1            -24.9549163349       18.5619089527       24.7410600398  TIP3      1561            0.0000000000
     27003      1753  TIP3      H2            -23.7304650916       17.7518079179       25.0836156716  TIP3      1561            0.0000000000
     27004      1754  TIP3      OH2           -20.9867141359        7.5343752417       36.5773197281  TIP3      1562            0.0000000000
     27005      1754  TIP3      H1            -21.4710548751        7.9811609650       35.8646847705  TIP3      1562            0.0000000000
     27006      1754  TIP3      H2            -21.0004005526        6.6072676428       36.2917742841  TIP3      1562            0.0000000000
     27007      1755  TIP3      OH2           -33.8322328841       14.0014118889       34.6294963993  TIP3      1563            0.0000000000
     27008      1755  TIP3      H1            -33.6718068315       13.5911726120       35.5043053131  TIP3      1563            0.0000000000
     27009      1755  TIP3      H2            -34.6783712965       13.5754843462       34.3521343600  TIP3      1563            0.0000000000
     27010      1756  TIP3      OH2           -31.1492931999        2.4374463155       30.5367936353  TIP3      1564            0.0000000000
     27011      1756  TIP3      H1            -32.0527955027        2.3047654509       30.1818445903  TIP3      1564            0.0000000000
     27012      1756  TIP3      H2            -31.2976606255        3.2526033159       31.0424357519  TIP3      1564            0.0000000000
     27013      1757  TIP3      OH2           -26.5187133454        2.1090992663       33.9027589324  TIP3      1565            0.0000000000
     27014      1757  TIP3      H1            -26.1194429581        1.6713457328       34.6805701049  TIP3      1565            0.0000000000
     27015      1757  TIP3      H2            -27.4863077509        1.9669330708       34.0615337984  TIP3      1565            0.0000000000
     27016      1758  TIP3      OH2           -23.2822400549        5.9239962341       34.7477247472  TIP3      1566            0.0000000000
     27017      1758  TIP3      H1            -23.7686382043        5.7167030687       35.5904336739  TIP3      1566            0.0000000000
     27018      1758  TIP3      H2            -23.3930787020        6.8802365594       34.6162551696  TIP3      1566            0.0000000000
     27019      1759  TIP3      OH2           -26.8346170780        4.6681001062       21.3099096185  TIP3      1567            0.0000000000
     27020      1759  TIP3      H1            -27.1880851403        4.5947402721       22.2093744778  TIP3      1567            0.0000000000
     27021      1759  TIP3      H2            -27.1562611350        3.8286187233       20.9554865156  TIP3      1567            0.0000000000
     27022      1760  TIP3      OH2           -31.0458232666        7.3958399570       31.8286118480  TIP3      1568            0.0000000000
     27023      1760  TIP3      H1            -31.8120935026        7.3758443618       32.4323635203  TIP3      1568            0.0000000000
     27024      1760  TIP3      H2            -31.1191161748        8.3010255253       31.4487570961  TIP3      1568            0.0000000000
     27025      1761  TIP3      OH2           -31.1168816737        7.5160094264       26.6777454804  TIP3      1569            0.0000000000
     27026      1761  TIP3      H1            -32.0518255179        7.2413874968       26.5348768691  TIP3      1569            0.0000000000
     27027      1761  TIP3      H2            -30.7225083391        7.2067056264       25.8357350404  TIP3      1569            0.0000000000
     27028      1762  TIP3      OH2           -25.5645573981        8.0141574496       25.4280075378  TIP3      1570            0.0000000000
     27029      1762  TIP3      H1            -25.9936362457        8.8114460702       25.1076542552  TIP3      1570            0.0000000000
     27030      1762  TIP3      H2            -24.8779048837        7.8369185858       24.7610564736  TIP3      1570            0.0000000000
     27031      1763  TIP3      OH2           -26.5422941157        8.2288763828       36.8868781794  TIP3      1571            0.0000000000
     27032      1763  TIP3      H1            -27.0130935399        7.4206864728       37.1853536164  TIP3      1571            0.0000000000
     27033      1763  TIP3      H2            -25.6868898516        8.1246109556       37.3398716431  TIP3      1571            0.0000000000
     27034      1764  TIP3      OH2           -24.6115075446        7.4273743600       28.3187030228  TIP3      1572            0.0000000000
     27035      1764  TIP3      H1            -24.8070178870        8.0677718413       27.5983787421  TIP3      1572            0.0000000000
     27036      1764  TIP3      H2            -24.4174502705        6.6562511791       27.7507935060  TIP3      1572            0.0000000000
     27037      1765  TIP3      OH2           -33.4050574843        7.6100210471       33.4933900261  TIP3      1573            0.0000000000
     27038      1765  TIP3      H1            -33.4176011333        8.0607887991       34.3522680714  TIP3      1573            0.0000000000
     27039      1765  TIP3      H2            -33.9136529689        6.8023383024       33.6731177752  TIP3      1573            0.0000000000
     27040      1766  TIP3      OH2           -36.4952676948        4.9716117073       27.3294746370  TIP3      1574            0.0000000000
     27041      1766  TIP3      H1            -36.0789887208        4.6606764990       28.1572663236  TIP3      1574            0.0000000000
     27042      1766  TIP3      H2            -36.2534265617        4.3049484374       26.6783241288  TIP3      1574            0.0000000000
     27043      1767  TIP3      OH2           -35.4978810394        5.5742651754       22.8097800572  TIP3      1575            0.0000000000
     27044      1767  TIP3      H1            -35.0198167767        6.1291369441       22.1961399373  TIP3      1575            0.0000000000
     27045      1767  TIP3      H2            -36.2457388906        6.1283927162       23.0135487148  TIP3      1575            0.0000000000
     27046      1768  TIP3      OH2           -25.4089058878        9.1219991913       32.8507454089  TIP3      1576            0.0000000000
     27047      1768  TIP3      H1            -24.9501967456        8.4578123924       32.2907884429  TIP3      1576            0.0000000000
     27048      1768  TIP3      H2            -25.8189512187        8.5765780156       33.5419276659  TIP3      1576            0.0000000000
     27049      1769  TIP3      OH2           -28.5280499021        5.0916157641       27.7041937790  TIP3      1577            0.0000000000
     27050      1769  TIP3      H1            -29.4795956252        5.0677511580       27.9557696458  TIP3      1577            0.0000000000
     27051      1769  TIP3      H2            -28.0962449012        4.8650100894       28.5272026453  TIP3      1577            0.0000000000
     27052      1770  TIP3      OH2           -33.6629266708        6.6314200223       26.4874405688  TIP3      1578            0.0000000000
     27053      1770  TIP3      H1            -34.5814929364        6.7405348947       26.1675171957  TIP3      1578            0.0000000000
     27054      1770  TIP3      H2            -33.4525347370        5.7285625932       26.1706963677  TIP3      1578            0.0000000000
     27055      1771  TIP3      OH2           -30.1314899348        6.7461576883       24.2421081410  TIP3      1579            0.0000000000
     27056      1771  TIP3      H1            -29.1571595763        6.7015231210       24.3396134257  TIP3      1579            0.0000000000
     27057      1771  TIP3      H2            -30.2783116685        7.2953578353       23.4682234301  TIP3      1579            0.0000000000
     27058      1772  TIP3      OH2           -24.1249213146        4.2063050347       30.9592708479  TIP3      1580            0.0000000000
     27059      1772  TIP3      H1            -24.7828861487        4.2051603302       31.6979097667  TIP3      1580            0.0000000000
     27060      1772  TIP3      H2            -24.5607220040        3.7694316233       30.2048441642  TIP3      1580            0.0000000000
     27061      1773  TIP3      OH2           -20.9505199576       19.9391373588       37.2820290268  TIP3      1581            0.0000000000
     27062      1773  TIP3      H1            -20.6736187865       20.3054621526       36.4216545230  TIP3      1581            0.0000000000
     27063      1773  TIP3      H2            -20.2239700356       20.2557175718       37.8433588414  TIP3      1581            0.0000000000
     27064      1774  TIP3      OH2           -33.2375807006       12.4025357824       36.7992440312  TIP3      1582            0.0000000000
     27065      1774  TIP3      H1            -32.5599948131       12.6714804195       37.4426860760  TIP3      1582            0.0000000000
     27066      1774  TIP3      H2            -34.0250080639       12.4977874400       37.3806706123  TIP3      1582            0.0000000000
     27067      1775  TIP3      OH2           -27.2149722260        7.8259572789       29.5980346830  TIP3      1583            0.0000000000
     27068      1775  TIP3      H1            -26.7355932264        7.2828187642       28.9756498939  TIP3      1583            0.0000000000
     27069      1775  TIP3      H2            -27.4833907525        7.2821342632       30.3497703860  TIP3      1583            0.0000000000
     27070      1776  TIP3      OH2           -32.2474741947        4.0023750976       25.9778397333  TIP3      1584            0.0000000000
     27071      1776  TIP3      H1            -32.5701998094        3.0842919871       25.9911921374  TIP3      1584            0.0000000000
     27072      1776  TIP3      H2            -31.4642258236        3.8781537299       25.4256758961  TIP3      1584            0.0000000000
     27073      1777  TIP3      OH2           -28.5814772865        6.1697503581       31.9489365668  TIP3      1585            0.0000000000
     27074      1777  TIP3      H1            -29.4413296516        6.6414695824       32.0451795677  TIP3      1585            0.0000000000
     27075      1777  TIP3      H2            -28.0855512802        6.5058558005       32.7197430764  TIP3      1585            0.0000000000
     27076      1778  TIP3      OH2           -20.8497734771       11.5683506722       32.4832841555  TIP3      1586            0.0000000000
     27077      1778  TIP3      H1            -20.2869839804       12.0559514964       31.8532642283  TIP3      1586            0.0000000000
     27078      1778  TIP3      H2            -21.7098973436       11.6215668525       32.0220331135  TIP3      1586            0.0000000000
     27079      1779  TIP3      OH2           -26.5479391696       12.6342188160       34.9209719149  TIP3      1587            0.0000000000
     27080      1779  TIP3      H1            -26.8996021252       12.2106370498       35.7095863624  TIP3      1587            0.0000000000
     27081      1779  TIP3      H2            -26.8005315750       13.5589414155       35.0326738827  TIP3      1587            0.0000000000
     27082      1780  TIP3      OH2           -23.4371779313        7.0909243364       23.5794705002  TIP3      1588            0.0000000000
     27083      1780  TIP3      H1            -22.5312099746        7.0419356327       23.8731994565  TIP3      1588            0.0000000000
     27084      1780  TIP3      H2            -23.4194817110        7.8535810994       22.9792098708  TIP3      1588            0.0000000000
     27085      1781  TIP3      OH2           -32.8970929882       11.7820110916       29.4758309829  TIP3      1589            0.0000000000
     27086      1781  TIP3      H1            -32.2463230779       11.6786694405       28.7632852522  TIP3      1589            0.0000000000
     27087      1781  TIP3      H2            -32.8571104224       10.9266514684       29.9381974864  TIP3      1589            0.0000000000
     27088      1782  TIP3      OH2           -35.6892349644        9.9356137260       34.4815013564  TIP3      1590            0.0000000000
     27089      1782  TIP3      H1            -35.6077497055        9.7167223225       35.4214706714  TIP3      1590            0.0000000000
     27090      1782  TIP3      H2            -36.5440830175        9.5390611118       34.2625454583  TIP3      1590            0.0000000000
     27091      1783  TIP3      OH2           -28.9673526435        9.5332673795       36.9774135171  TIP3      1591            0.0000000000
     27092      1783  TIP3      H1            -29.2140115759        9.4931289249       36.0314587400  TIP3      1591            0.0000000000
     27093      1783  TIP3      H2            -27.9857365370        9.4530857725       36.9088119261  TIP3      1591            0.0000000000
     27094      1784  TIP3      OH2           -24.2347200918       15.0617067609       34.8817902368  TIP3      1592            0.0000000000
     27095      1784  TIP3      H1            -25.1595570351       15.2394099602       34.6411664930  TIP3      1592            0.0000000000
     27096      1784  TIP3      H2            -24.2785543568       15.3562212096       35.8113811651  TIP3      1592            0.0000000000
     27097      1785  TIP3      OH2           -18.5112118171       13.1720704306       36.0467628187  TIP3      1593            0.0000000000
     27098      1785  TIP3      H1            -19.4556298602       13.3108079501       35.7369603413  TIP3      1593            0.0000000000
     27099      1785  TIP3      H2            -18.0782279200       13.0099215462       35.1839688528  TIP3      1593            0.0000000000
     27100      1786  TIP3      OH2           -20.2830568478       16.0651773725       23.6724423299  TIP3      1594            0.0000000000
     27101      1786  TIP3      H1            -20.6379760685       15.2435741146       24.0137740615  TIP3      1594            0.0000000000
     27102      1786  TIP3      H2            -20.0469248215       15.8628018740       22.7563986899  TIP3      1594            0.0000000000
     27103      1787  TIP3      OH2           -23.0711788874       10.8720363225       30.7834237116  TIP3      1595            0.0000000000
     27104      1787  TIP3      H1            -24.0125659794       10.6966511365       30.6443937349  TIP3      1595            0.0000000000
     27105      1787  TIP3      H2            -22.6327020566       10.1337788815       30.3237465360  TIP3      1595            0.0000000000
     27106      1788  TIP3      OH2           -30.5692901076       15.2148375655       26.8681950451  TIP3      1596            0.0000000000
     27107      1788  TIP3      H1            -30.0567614352       16.0148204860       26.6627973442  TIP3      1596            0.0000000000
     27108      1788  TIP3      H2            -31.4435173879       15.4592135242       26.5387503279  TIP3      1596            0.0000000000
     27109      1789  TIP3      OH2           -29.1325749697       12.8832520475       26.3994353263  TIP3      1597            0.0000000000
     27110      1789  TIP3      H1            -29.4462775703       13.8026360582       26.4925245365  TIP3      1597            0.0000000000
     27111      1789  TIP3      H2            -29.8590539417       12.3922599695       26.8274474305  TIP3      1597            0.0000000000
     27112      1790  TIP3      OH2           -28.6826504602       17.0666733490       32.7975260098  TIP3      1598            0.0000000000
     27113      1790  TIP3      H1            -28.2289614035       17.8733043946       32.5078675814  TIP3      1598            0.0000000000
     27114      1790  TIP3      H2            -28.0685078096       16.7259307452       33.4726396482  TIP3      1598            0.0000000000
     27115      1791  TIP3      OH2           -30.4634431086       17.8740694151       25.9533525115  TIP3      1599            0.0000000000
     27116      1791  TIP3      H1            -31.4249651940       18.0367218631       26.0499007938  TIP3      1599            0.0000000000
     27117      1791  TIP3      H2            -30.0930173490       18.7220669438       26.2518156849  TIP3      1599            0.0000000000
     27118      1792  TIP3      OH2           -25.1651456541       13.0874039265       32.4196720856  TIP3      1600            0.0000000000
     27119      1792  TIP3      H1            -25.4844073544       12.8640286326       33.3169105511  TIP3      1600            0.0000000000
     27120      1792  TIP3      H2            -24.5312504857       12.3744959495       32.2395939386  TIP3      1600            0.0000000000
     27121      1793  TIP3      OH2           -22.3410971152       17.6461581724       34.9008534623  TIP3      1601            0.0000000000
     27122      1793  TIP3      H1            -23.0420156946       17.1619171776       34.4207560189  TIP3      1601            0.0000000000
     27123      1793  TIP3      H2            -22.1637295106       18.3479319081       34.2395791223  TIP3      1601            0.0000000000
     27124      1794  TIP3      OH2           -34.2809198512        4.8892097434       34.2519274800  TIP3      1602            0.0000000000
     27125      1794  TIP3      H1            -35.1716897585        5.2609100777       34.3050118824  TIP3      1602            0.0000000000
     27126      1794  TIP3      H2            -34.3905591596        4.0561108134       34.7432533572  TIP3      1602            0.0000000000
     27127      1795  TIP3      OH2           -22.0419481487       12.7883085497       23.8173535443  TIP3      1603            0.0000000000
     27128      1795  TIP3      H1            -22.2703058591       11.9485699677       24.2582687709  TIP3      1603            0.0000000000
     27129      1795  TIP3      H2            -21.0817484802       12.8101359613       23.9168994095  TIP3      1603            0.0000000000
     27130      1796  TIP3      OH2           -34.6240462261       16.7196296822       32.6783857777  TIP3      1604            0.0000000000
     27131      1796  TIP3      H1            -34.4054976951       15.7736108666       32.7142206483  TIP3      1604            0.0000000000
     27132      1796  TIP3      H2            -34.4409229789       16.9633982164       33.5907225531  TIP3      1604            0.0000000000
     27133      1797  TIP3      OH2           -28.7531598293       15.2469856015       19.9524305328  TIP3      1605            0.0000000000
     27134      1797  TIP3      H1            -28.5631357473       14.4662385539       19.4157317112  TIP3      1605            0.0000000000
     27135      1797  TIP3      H2            -29.1216893697       14.8599794563       20.7722562606  TIP3      1605            0.0000000000
     27136      1798  TIP3      OH2           -29.9067880369       14.7065658618       22.4402016379  TIP3      1606            0.0000000000
     27137      1798  TIP3      H1            -29.7038690238       14.2765291604       23.2720647729  TIP3      1606            0.0000000000
     27138      1798  TIP3      H2            -29.8849425480       15.6623180550       22.6980089757  TIP3      1606            0.0000000000
     27139      1799  TIP3      OH2           -25.5193830944        4.6640717188       33.1918356182  TIP3      1607            0.0000000000
     27140      1799  TIP3      H1            -24.8507550336        4.7489966928       33.8912172858  TIP3      1607            0.0000000000
     27141      1799  TIP3      H2            -25.9453037429        3.8229451255       33.4695309528  TIP3      1607            0.0000000000
     27142      1800  TIP3      OH2           -24.7764099675        4.2472485312       24.3023075269  TIP3      1608            0.0000000000
     27143      1800  TIP3      H1            -24.6222285156        4.7817869180       23.5163434377  TIP3      1608            0.0000000000
     27144      1800  TIP3      H2            -24.2392237072        4.6900973644       24.9643407709  TIP3      1608            0.0000000000
     27145      1801  TIP3      OH2           -27.1331242586       16.4107890988       23.1545405078  TIP3      1609            0.0000000000
     27146      1801  TIP3      H1            -27.9401568247       16.9513695032       23.2295210971  TIP3      1609            0.0000000000
     27147      1801  TIP3      H2            -26.5957947741       16.9321117527       22.5467655994  TIP3      1609            0.0000000000
     27148      1802  TIP3      OH2           -27.6185959888        6.0590439111       25.1257801171  TIP3      1610            0.0000000000
     27149      1802  TIP3      H1            -26.7949778707        6.5737342248       25.1965628382  TIP3      1610            0.0000000000
     27150      1802  TIP3      H2            -27.8704604124        5.8563661561       26.0498953723  TIP3      1610            0.0000000000
     27151      1803  TIP3      OH2           -27.0272704207        7.0045884837       34.3674224048  TIP3      1611            0.0000000000
     27152      1803  TIP3      H1            -26.9175690052        7.5940449545       35.1430587293  TIP3      1611            0.0000000000
     27153      1803  TIP3      H2            -26.3494267327        6.3266101794       34.4678591212  TIP3      1611            0.0000000000
     27154      1804  TIP3      OH2           -26.7340969124        3.0653276365       26.0869015997  TIP3      1612            0.0000000000
     27155      1804  TIP3      H1            -27.0783079615        3.7247556893       26.7094664374  TIP3      1612            0.0000000000
     27156      1804  TIP3      H2            -26.0639316093        3.5969020967       25.6009778232  TIP3      1612            0.0000000000
     27157      1805  TIP3      OH2           -29.7175284255       17.4312055450       23.2131805193  TIP3      1613            0.0000000000
     27158      1805  TIP3      H1            -29.6176621785       18.2394134901       22.6585917839  TIP3      1613            0.0000000000
     27159      1805  TIP3      H2            -30.0155735148       17.8041818853       24.0632294245  TIP3      1613            0.0000000000
     27160      1806  TIP3      OH2           -31.0569477370        4.1349177775       22.8653795803  TIP3      1614            0.0000000000
     27161      1806  TIP3      H1            -31.1170794774        5.0632157880       23.1043723033  TIP3      1614            0.0000000000
     27162      1806  TIP3      H2            -30.1255525003        3.9205233628       23.0188471919  TIP3      1614            0.0000000000
     27163      1807  TIP3      OH2           -20.8563251150        4.8983012819       35.2082741877  TIP3      1615            0.0000000000
     27164      1807  TIP3      H1            -21.7825514618        5.2031976641       35.0704542904  TIP3      1615            0.0000000000
     27165      1807  TIP3      H2            -20.5483685776        4.8680116272       34.2842176328  TIP3      1615            0.0000000000
     27166      1808  TIP3      OH2           -22.2369543132        8.6757960366       29.2358061736  TIP3      1616            0.0000000000
     27167      1808  TIP3      H1            -23.0342787688        8.2320756327       28.9166792234  TIP3      1616            0.0000000000
     27168      1808  TIP3      H2            -21.7222071661        7.9941069443       29.7252720043  TIP3      1616            0.0000000000
     27169      1809  TIP3      OH2           -21.1731413011       17.9428197744       30.8787184950  TIP3      1617            0.0000000000
     27170      1809  TIP3      H1            -21.2583621251       18.6185327030       30.1787319041  TIP3      1617            0.0000000000
     27171      1809  TIP3      H2            -20.2075616918       17.9889703698       31.0486933212  TIP3      1617            0.0000000000
     27172      1810  TIP3      OH2           -33.7049760358        2.0677768722       29.6716348131  TIP3      1618            0.0000000000
     27173      1810  TIP3      H1            -33.8720656839        2.0603418945       28.6985345165  TIP3      1618            0.0000000000
     27174      1810  TIP3      H2            -34.0976760260        1.2045849051       29.9367007965  TIP3      1618            0.0000000000
     27175      1811  TIP3      OH2           -34.7067790015       15.9810966297       25.8133434117  TIP3      1619            0.0000000000
     27176      1811  TIP3      H1            -35.5730162152       16.4076296299       25.7712358112  TIP3      1619            0.0000000000
     27177      1811  TIP3      H2            -34.2283043071       16.4761887861       25.1359299608  TIP3      1619            0.0000000000
     27178      1812  TIP3      OH2           -35.3407625531       18.6335274913       37.0818518115  TIP3      1620            0.0000000000
     27179      1812  TIP3      H1            -34.8478262073       18.4054153650       37.8876316575  TIP3      1620            0.0000000000
     27180      1812  TIP3      H2            -35.8868781275       17.8268516880       36.9664331769  TIP3      1620            0.0000000000
     27181      1813  TIP3      OH2           -30.8250629195       17.5175047057       38.7159481352  TIP3      1621            0.0000000000
     27182      1813  TIP3      H1            -30.0548001751       17.0404865157       39.0448941572  TIP3      1621            0.0000000000
     27183      1813  TIP3      H2            -30.8656989434       17.2422170255       37.7795557031  TIP3      1621            0.0000000000
     27184      1814  TIP3      OH2           -26.6647791345       17.0250181631       20.2197384890  TIP3      1622            0.0000000000
     27185      1814  TIP3      H1            -27.4387662300       16.4284789783       20.3369855058  TIP3      1622            0.0000000000
     27186      1814  TIP3      H2            -25.9952478215       16.4449781422       19.8581163436  TIP3      1622            0.0000000000
     27187      1815  TIP3      OH2           -24.3594067454       15.9420002282       37.4629995547  TIP3      1623            0.0000000000
     27188      1815  TIP3      H1            -24.6596481830       15.0483376192       37.7307079444  TIP3      1623            0.0000000000
     27189      1815  TIP3      H2            -23.5686156264       16.0581808037       38.0251248177  TIP3      1623            0.0000000000
     27190      1816  TIP3      OH2           -35.4560000263       12.3893130642       38.0854072953  TIP3      1624            0.0000000000
     27191      1816  TIP3      H1            -35.4258309801       11.4569285827       37.8106214277  TIP3      1624            0.0000000000
     27192      1816  TIP3      H2            -36.2930376059       12.6953206824       37.6733901100  TIP3      1624            0.0000000000
     27193      1817  TIP3      OH2           -28.8958367119       12.3662681207       37.4644701573  TIP3      1625            0.0000000000
     27194      1817  TIP3      H1            -29.2282069101       12.7208787204       36.6157407278  TIP3      1625            0.0000000000
     27195      1817  TIP3      H2            -28.8081559146       11.4075745586       37.3396315205  TIP3      1625            0.0000000000
     27196      1818  TIP3      OH2           -23.1992616087       12.2470304245       34.8870994323  TIP3      1626            0.0000000000
     27197      1818  TIP3      H1            -22.4110683504       12.8273468585       34.8306941862  TIP3      1626            0.0000000000
     27198      1818  TIP3      H2            -23.8934647448       12.9226067427       34.9280526959  TIP3      1626            0.0000000000
     27199      1819  TIP3      OH2           -34.7445488889        9.6103046955       37.4817074971  TIP3      1627            0.0000000000
     27200      1819  TIP3      H1            -34.2760565256        8.7617152345       37.4116258934  TIP3      1627            0.0000000000
     27201      1819  TIP3      H2            -34.8853179470        9.6618011742       38.4465328201  TIP3      1627            0.0000000000
     27202      1820  TIP3      OH2           -30.7710840951        8.5920479639       34.9119816347  TIP3      1628            0.0000000000
     27203      1820  TIP3      H1            -31.4360049570        9.2918452390       35.0748406443  TIP3      1628            0.0000000000
     27204      1820  TIP3      H2            -30.4091042406        8.9143151193       34.0568316066  TIP3      1628            0.0000000000
     27205      1821  TIP3      OH2           -25.7255826195       11.1354506147       38.2621896888  TIP3      1629            0.0000000000
     27206      1821  TIP3      H1            -24.7792979002       11.1065439703       38.0488850904  TIP3      1629            0.0000000000
     27207      1821  TIP3      H2            -25.8618705035       10.3536478075       38.8113152970  TIP3      1629            0.0000000000
     27208      1822  TIP3      OH2           -30.3613758506        5.9753313137       35.8394322935  TIP3      1630            0.0000000000
     27209      1822  TIP3      H1            -30.2800232587        5.2142827798       35.2140973517  TIP3      1630            0.0000000000
     27210      1822  TIP3      H2            -30.4650440047        6.7218654489       35.2173598672  TIP3      1630            0.0000000000
     27211      1823  TIP3      OH2           -29.9923453096        4.3693750770       33.4752620795  TIP3      1631            0.0000000000
     27212      1823  TIP3      H1            -29.4821769526        4.7815406052       32.7446265844  TIP3      1631            0.0000000000
     27213      1823  TIP3      H2            -30.8726919056        4.2402399925       33.0476110375  TIP3      1631            0.0000000000
     27214      1824  TIP3      OH2           -28.4496130967        9.8149428512       33.7136939501  TIP3      1632            0.0000000000
     27215      1824  TIP3      H1            -27.6926365054        9.6740981484       33.1328885592  TIP3      1632            0.0000000000
     27216      1824  TIP3      H2            -28.8134472147       10.6469851309       33.3614821048  TIP3      1632            0.0000000000
     27217      1825  TIP3      OH2           -24.0488031318        7.5628653166       38.6442271404  TIP3      1633            0.0000000000
     27218      1825  TIP3      H1            -23.8252104150        6.6209222231       38.5831234753  TIP3      1633            0.0000000000
     27219      1825  TIP3      H2            -23.1752828636        7.9872661213       38.6679074007  TIP3      1633            0.0000000000
     27220      1826  TIP3      OH2           -22.7152161885       10.3739368577       36.8339062294  TIP3      1634            0.0000000000
     27221      1826  TIP3      H1            -22.9634101076       11.0901255078       36.2108300672  TIP3      1634            0.0000000000
     27222      1826  TIP3      H2            -21.7602327579       10.3344023834       36.6266813594  TIP3      1634            0.0000000000
     27223      1827  TIP3      OH2           -32.1810383119        7.2118386309       37.8073909543  TIP3      1635            0.0000000000
     27224      1827  TIP3      H1            -32.9663629364        6.5994661686       37.7427760759  TIP3      1635            0.0000000000
     27225      1827  TIP3      H2            -31.6942380294        6.8154751712       37.0785750289  TIP3      1635            0.0000000000
     27226      1828  TIP3      OH2           -29.1996872511        1.7631758328       33.8586573202  TIP3      1636            0.0000000000
     27227      1828  TIP3      H1            -29.3689348079        2.7257135261       33.7503606109  TIP3      1636            0.0000000000
     27228      1828  TIP3      H2            -29.9386944519        1.3964566116       33.3409661264  TIP3      1636            0.0000000000
     27229      1829  TIP3      OH2           -28.0259435004        6.2095387678       37.5208927676  TIP3      1637            0.0000000000
     27230      1829  TIP3      H1            -28.1697330339        5.7696038021       38.3875712400  TIP3      1637            0.0000000000
     27231      1829  TIP3      H2            -28.6190389626        5.7462256370       36.8931340435  TIP3      1637            0.0000000000
     27232      1830  TIP3      OH2           -25.2001652146        5.2531743333       36.5592574291  TIP3      1638            0.0000000000
     27233      1830  TIP3      H1            -26.1554177555        5.2739839022       36.6774637007  TIP3      1638            0.0000000000
     27234      1830  TIP3      H2            -24.9087867348        4.6050950848       37.2367390497  TIP3      1638            0.0000000000
     27235      1831  TIP3      OH2           -23.7092151962        3.8635426867       38.4346522328  TIP3      1639            0.0000000000
     27236      1831  TIP3      H1            -23.6429823911        2.8914672400       38.5113012906  TIP3      1639            0.0000000000
     27237      1831  TIP3      H2            -23.8553946565        4.1564363583       39.3710568262  TIP3      1639            0.0000000000
     27238      1832  TIP3      OH2           -33.7395570324        5.1162921934       37.5805249614  TIP3      1640            0.0000000000
     27239      1832  TIP3      H1            -33.6206156051        4.3596713376       36.9777419718  TIP3      1640            0.0000000000
     27240      1832  TIP3      H2            -33.9402849472        4.6725906195       38.4399386054  TIP3      1640            0.0000000000
     27241      1833  TIP3      OH2           -28.9761928164        1.1580219781       36.5484411624  TIP3      1641            0.0000000000
     27242      1833  TIP3      H1            -28.3098847960        0.4387508583       36.5415641754  TIP3      1641            0.0000000000
     27243      1833  TIP3      H2            -29.0830354301        1.3051991497       35.5878690446  TIP3      1641            0.0000000000
     27244      1834  TIP3      OH2           -28.6164461705        2.7777512794       38.6329573500  TIP3      1642            0.0000000000
     27245      1834  TIP3      H1            -28.7806535924        2.2258937977       37.8245561973  TIP3      1642            0.0000000000
     27246      1834  TIP3      H2            -29.2355131882        3.5126267851       38.5411158488  TIP3      1642            0.0000000000
     27247      1835  TIP3      OH2           -29.1517302361       19.7389820014       21.8623871314  TIP3      1643            0.0000000000
     27248      1835  TIP3      H1            -28.1821882367       19.7677407904       21.8604872065  TIP3      1643            0.0000000000
     27249      1835  TIP3      H2            -29.3467057593       20.3070467460       21.0878006223  TIP3      1643            0.0000000000
     27250      1836  TIP3      OH2           -35.5057409662       14.2207809514       21.3754926876  TIP3      1644            0.0000000000
     27251      1836  TIP3      H1            -34.5683630075       14.4070508610       21.4888940985  TIP3      1644            0.0000000000
     27252      1836  TIP3      H2            -35.5578322085       13.6297948819       20.6059116148  TIP3      1644            0.0000000000
     27253      1837  TIP3      OH2            36.8721652308       19.7622802366       26.2013241593  TIP3      1645            0.0000000000
     27254      1837  TIP3      H1             36.0269813443       19.5029276279       25.7879641573  TIP3      1645            0.0000000000
     27255      1837  TIP3      H2             36.9966797688       19.0784416160       26.8998515384  TIP3      1645            0.0000000000
     27256      1838  TIP3      OH2           -36.0479735975       17.8241437393       28.0961502110  TIP3      1646            0.0000000000
     27257      1838  TIP3      H1            -36.3272118009       16.9165058525       28.3322143503  TIP3      1646            0.0000000000
     27258      1838  TIP3      H2            -35.7478076901       18.1255094685       28.9729514775  TIP3      1646            0.0000000000
     27259      1839  TIP3      OH2           -18.4518996142       18.5814498317       31.0730206035  TIP3      1647            0.0000000000
     27260      1839  TIP3      H1            -18.4175803349       18.7367997042       32.0325687232  TIP3      1647            0.0000000000
     27261      1839  TIP3      H2            -17.7478366680       19.1639985345       30.7704212020  TIP3      1647            0.0000000000
     27262      1840  TIP3      OH2           -18.8670184086       18.1691330059       34.0254240473  TIP3      1648            0.0000000000
     27263      1840  TIP3      H1            -19.3570085137       17.4174716438       33.6309112361  TIP3      1648            0.0000000000
     27264      1840  TIP3      H2            -18.3964376731       17.7303782040       34.7423241067  TIP3      1648            0.0000000000
     27265      1841  TIP3      OH2           -20.3994194361       13.8493645741       38.7315878725  TIP3      1649            0.0000000000
     27266      1841  TIP3      H1            -21.3290087719       13.8719730463       39.0450950914  TIP3      1649            0.0000000000
     27267      1841  TIP3      H2            -20.0867728754       14.7059833947       39.0937976087  TIP3      1649            0.0000000000
     27268      1842  TIP3      OH2           -18.7109043840       10.2436579137       25.9843512399  TIP3      1650            0.0000000000
     27269      1842  TIP3      H1            -19.5039200301        9.8396814734       26.3793543108  TIP3      1650            0.0000000000
     27270      1842  TIP3      H2            -18.1669394801       10.4685351607       26.7567827231  TIP3      1650            0.0000000000
     27271      1843  TIP3      OH2           -19.0041866268       12.9963099471       30.9927874313  TIP3      1651            0.0000000000
     27272      1843  TIP3      H1            -18.1947777129       12.6158590247       30.6051162384  TIP3      1651            0.0000000000
     27273      1843  TIP3      H2            -18.8552825994       13.9489054962       30.8229674445  TIP3      1651            0.0000000000
     27274      1844  TIP3      OH2           -20.4307694774       15.9046860230       33.2707734252  TIP3      1652            0.0000000000
     27275      1844  TIP3      H1            -21.1266926789       16.2468791251       33.8513782820  TIP3      1652            0.0000000000
     27276      1844  TIP3      H2            -20.9791611035       15.5066408209       32.5585522071  TIP3      1652            0.0000000000
     27277      1845  TIP3      OH2           -20.9557546115        8.7561400241       26.5519198923  TIP3      1653            0.0000000000
     27278      1845  TIP3      H1            -21.0816516133        7.8103957231       26.5948822314  TIP3      1653            0.0000000000
     27279      1845  TIP3      H2            -21.2261932217        9.0343187553       27.4513121046  TIP3      1653            0.0000000000
     27280      1846  TIP3      OH2           -35.9597180693       10.8391908028       30.6195556816  TIP3      1654            0.0000000000
     27281      1846  TIP3      H1            -35.7683188855       10.8057846437       29.6549098466  TIP3      1654            0.0000000000
     27282      1846  TIP3      H2            -35.0663870566       10.7092291777       31.0026585681  TIP3      1654            0.0000000000
     27283      1847  TIP3      OH2           -20.0792633430       10.7476809071       36.2967297291  TIP3      1655            0.0000000000
     27284      1847  TIP3      H1            -19.4730424038        9.9804173575       36.3889516426  TIP3      1655            0.0000000000
     27285      1847  TIP3      H2            -19.4793347214       11.5070907014       36.2474193451  TIP3      1655            0.0000000000
     27286      1848  TIP3      OH2           -18.5807330185        8.6333681395       36.9579930446  TIP3      1656            0.0000000000
     27287      1848  TIP3      H1            -19.4543548502        8.2296395703       36.7646148159  TIP3      1656            0.0000000000
     27288      1848  TIP3      H2            -18.0079361440        7.8544804340       36.8536933622  TIP3      1656            0.0000000000
     27289      1849  TIP3      OH2           -20.6460911988        6.9066616305       30.4978316161  TIP3      1657            0.0000000000
     27290      1849  TIP3      H1            -19.6826775265        7.1239875330       30.4619391011  TIP3      1657            0.0000000000
     27291      1849  TIP3      H2            -20.7938106580        7.0540106712       31.4452179544  TIP3      1657            0.0000000000
     27292      1850  TIP3      OH2           -20.5761618638        7.6153148259       33.2333355784  TIP3      1658            0.0000000000
     27293      1850  TIP3      H1            -21.4357215074        7.9183900659       33.5986424414  TIP3      1658            0.0000000000
     27294      1850  TIP3      H2            -20.1333004946        8.4697507372       33.0227495448  TIP3      1658            0.0000000000
     27295      1851  TIP3      OH2           -36.1154041008        6.0932755259       36.8043436826  TIP3      1659            0.0000000000
     27296      1851  TIP3      H1            -35.2186321884        5.8454936039       37.0600698615  TIP3      1659            0.0000000000
     27297      1851  TIP3      H2            -36.6927631505        5.3755475942       37.1418802125  TIP3      1659            0.0000000000
     27298      1852  TIP3      OH2           -18.2485183813        1.6882167636       38.5904004350  TIP3      1660            0.0000000000
     27299      1852  TIP3      H1            -17.9304393116        1.0105274978       37.9788245056  TIP3      1660            0.0000000000
     27300      1852  TIP3      H2            -18.1903551818        2.5031732783       38.0590949073  TIP3      1660            0.0000000000
     27301      1853  TIP3      OH2           -35.1766426075        4.3993877099       29.6789466737  TIP3      1661            0.0000000000
     27302      1853  TIP3      H1            -34.6334449394        3.6134477946       29.8987963089  TIP3      1661            0.0000000000
     27303      1853  TIP3      H2            -34.6126554081        5.1088413771       30.0357206436  TIP3      1661            0.0000000000
     27304      1854  TIP3      OH2           -36.1105907116        7.9644533930       31.0951172858  TIP3      1662            0.0000000000
     27305      1854  TIP3      H1            -36.0312438102        7.6172890932       30.1872563905  TIP3      1662            0.0000000000
     27306      1854  TIP3      H2            -36.3332724148        8.8671977646       30.8522512055  TIP3      1662            0.0000000000
     27307      1855  TIP3      OH2           -18.7752781410        3.7904902125       36.9562084871  TIP3      1663            0.0000000000
     27308      1855  TIP3      H1            -19.7169398458        4.0588422645       36.9258441782  TIP3      1663            0.0000000000
     27309      1855  TIP3      H2            -18.7474512750        3.2350175586       36.1620693769  TIP3      1663            0.0000000000
     27310      1856  TIP3      OH2            37.4320578576        3.8881837398       24.6544900165  TIP3      1664            0.0000000000
     27311      1856  TIP3      H1             36.4629506305        3.8284746229       24.5369215149  TIP3      1664            0.0000000000
     27312      1856  TIP3      H2             37.6608146183        4.3259915857       23.8043561989  TIP3      1664            0.0000000000
     27313      1857  TIP3      OH2           -21.7179726533       18.6525904852       26.6873379650  TIP3      1665            0.0000000000
     27314      1857  TIP3      H1            -21.0407242903       18.3646048856       26.0472223626  TIP3      1665            0.0000000000
     27315      1857  TIP3      H2            -21.2069227357       19.1618490879       27.3305843756  TIP3      1665            0.0000000000
     27316      1858  TIP3      OH2            37.0718091230        2.3239324786       33.1666855801  TIP3      1666            0.0000000000
     27317      1858  TIP3      H1             36.3310110409        2.1247140168       33.7524534319  TIP3      1666            0.0000000000
     27318      1858  TIP3      H2             36.5693113870        2.9025288889       32.5636917774  TIP3      1666            0.0000000000
     27319      1859  TIP3      OH2           -34.2630939454       15.6165498995       37.2430994556  TIP3      1667            0.0000000000
     27320      1859  TIP3      H1            -35.1039325154       15.7753700709       36.8027362646  TIP3      1667            0.0000000000
     27321      1859  TIP3      H2            -34.5425168502       15.4748096469       38.1528556936  TIP3      1667            0.0000000000
     27322      1860  TIP3      OH2           -31.3648536877       16.5877650612       33.5058689058  TIP3      1668            0.0000000000
     27323      1860  TIP3      H1            -31.7438385719       17.4325382138       33.2197028571  TIP3      1668            0.0000000000
     27324      1860  TIP3      H2            -30.4455804322       16.6754258708       33.1760160579  TIP3      1668            0.0000000000
     27325      1861  TIP3      OH2           -27.0644998617       17.9793935171       36.3888367951  TIP3      1669            0.0000000000
     27326      1861  TIP3      H1            -26.9353792805       17.6436043998       37.3077432033  TIP3      1669            0.0000000000
     27327      1861  TIP3      H2            -26.1623542217       18.2943462735       36.1688504505  TIP3      1669            0.0000000000
     27328      1862  TIP3      OH2           -24.7725821819       19.2620006930       35.7032339095  TIP3      1670            0.0000000000
     27329      1862  TIP3      H1            -24.0421802852       18.6767490129       35.4651900145  TIP3      1670            0.0000000000
     27330      1862  TIP3      H2            -24.3992109258       19.7034446681       36.4964255718  TIP3      1670            0.0000000000
     27331      1863  TIP3      OH2           -19.7526595912        1.8768991667       34.8106173219  TIP3      1671            0.0000000000
     27332      1863  TIP3      H1            -20.5795722709        2.1764271169       34.3952871816  TIP3      1671            0.0000000000
     27333      1863  TIP3      H2            -19.5844489947        1.0519675730       34.2964054271  TIP3      1671            0.0000000000
     27334      1864  TIP3      OH2           -33.9368822960       19.8121334383       33.5197147104  TIP3      1672            0.0000000000
     27335      1864  TIP3      H1            -34.6903396985       20.2799753934       33.1014663297  TIP3      1672            0.0000000000
     27336      1864  TIP3      H2            -34.2988613903       19.6104555256       34.3944348691  TIP3      1672            0.0000000000
     27337      1865  TIP3      OH2           -31.4706464878       19.4259146240       32.5674914774  TIP3      1673            0.0000000000
     27338      1865  TIP3      H1            -32.3700855918       19.5406733905       32.9562155730  TIP3      1673            0.0000000000
     27339      1865  TIP3      H2            -31.5370787491       19.9665994452       31.7662844973  TIP3      1673            0.0000000000
     27340      1866  TIP3      OH2           -26.7829135950       19.3032938930       31.7292934679  TIP3      1674            0.0000000000
     27341      1866  TIP3      H1            -27.2428389143       19.8584028806       31.0805880699  TIP3      1674            0.0000000000
     27342      1866  TIP3      H2            -26.6459353751       19.9357739362       32.4678661880  TIP3      1674            0.0000000000
     27343      1867  TIP3      OH2           -24.4989116375       18.0972147694       32.7630995200  TIP3      1675            0.0000000000
     27344      1867  TIP3      H1            -25.3454372711       18.3836533678       32.3833547700  TIP3      1675            0.0000000000
     27345      1867  TIP3      H2            -24.0040181268       18.9271988037       32.6647441014  TIP3      1675            0.0000000000
     27346      1868  TIP3      OH2           -21.9119676662       19.6721632310       32.9730666673  TIP3      1676            0.0000000000
     27347      1868  TIP3      H1            -21.9592686877       20.6322927748       32.7460875030  TIP3      1676            0.0000000000
     27348      1868  TIP3      H2            -21.6912878167       19.2978187974       32.0972354046  TIP3      1676            0.0000000000
     27349      1869  TIP3      OH2           -34.5070514741       18.4624845142       30.4041021512  TIP3      1677            0.0000000000
     27350      1869  TIP3      H1            -34.5555536603       18.0275613039       31.2816526417  TIP3      1677            0.0000000000
     27351      1869  TIP3      H2            -33.7027097796       18.0601322760       30.0255595406  TIP3      1677            0.0000000000
     27352      1870  TIP3      OH2           -32.4134118989       17.1549451892       29.0644621063  TIP3      1678            0.0000000000
     27353      1870  TIP3      H1            -32.5990073781       16.2304080842       29.3204721026  TIP3      1678            0.0000000000
     27354      1870  TIP3      H2            -31.5640736920       17.3194084014       29.5275234426  TIP3      1678            0.0000000000
     27355      1871  TIP3      OH2           -29.8110606410       17.6567673409       29.9596097891  TIP3      1679            0.0000000000
     27356      1871  TIP3      H1            -29.6634320384       16.7301725269       29.6948222087  TIP3      1679            0.0000000000
     27357      1871  TIP3      H2            -29.7673228937       17.5925002992       30.9237113158  TIP3      1679            0.0000000000
     27358      1872  TIP3      OH2           -26.3094887634        3.3461399240       29.1265450677  TIP3      1680            0.0000000000
     27359      1872  TIP3      H1            -27.0185990568        2.7051348838       29.3713995744  TIP3      1680            0.0000000000
     27360      1872  TIP3      H2            -25.8199938563        2.7746374609       28.5045970213  TIP3      1680            0.0000000000
     27361      1873  TIP3      OH2           -21.2405501760        1.3676046772       29.1839644706  TIP3      1681            0.0000000000
     27362      1873  TIP3      H1            -20.6184467946        1.9301597837       28.6579746794  TIP3      1681            0.0000000000
     27363      1873  TIP3      H2            -22.1169642769        1.7002785216       28.9195056207  TIP3      1681            0.0000000000
     27364      1874  TIP3      OH2           -19.5471446072        2.6078613936       27.4436672257  TIP3      1682            0.0000000000
     27365      1874  TIP3      H1            -18.8752618359        2.0234050697       27.0238549932  TIP3      1682            0.0000000000
     27366      1874  TIP3      H2            -19.0466125841        3.4374878117       27.5638739446  TIP3      1682            0.0000000000
     27367      1875  TIP3      OH2           -34.0112065077        1.8920272155       26.9717542496  TIP3      1683            0.0000000000
     27368      1875  TIP3      H1            -34.7754578840        1.7391940386       26.3771789478  TIP3      1683            0.0000000000
     27369      1875  TIP3      H2            -33.4976286456        1.0750733697       26.8408670256  TIP3      1683            0.0000000000
     27370      1876  TIP3      OH2           -29.5229376029        1.8546985115       26.7152879385  TIP3      1684            0.0000000000
     27371      1876  TIP3      H1            -28.6237280614        2.2052441389       26.6457421688  TIP3      1684            0.0000000000
     27372      1876  TIP3      H2            -29.5516283422        1.6265298152       27.6439790997  TIP3      1684            0.0000000000
     27373      1877  TIP3      OH2           -23.8499507338        1.9067387177       28.3533580331  TIP3      1685            0.0000000000
     27374      1877  TIP3      H1            -23.8372249724        1.9515714220       27.3866757072  TIP3      1685            0.0000000000
     27375      1877  TIP3      H2            -24.1768664680        0.9797173313       28.4856905379  TIP3      1685            0.0000000000
     27376      1878  TIP3      OH2           -22.5397645669        1.9212680330       23.9927193679  TIP3      1686            0.0000000000
     27377      1878  TIP3      H1            -23.3138181042        2.4786818566       23.8860829865  TIP3      1686            0.0000000000
     27378      1878  TIP3      H2            -22.9445869740        1.0594155539       24.2611983882  TIP3      1686            0.0000000000
     27379      1879  TIP3      OH2           -35.1682871312       17.7392482432       23.5905026676  TIP3      1687            0.0000000000
     27380      1879  TIP3      H1            -35.9313068136       17.6565512755       22.9914082218  TIP3      1687            0.0000000000
     27381      1879  TIP3      H2            -35.2635915063       18.6741851757       23.8050163980  TIP3      1687            0.0000000000
     27382      1880  TIP3      OH2           -28.3087771113        3.8841319127       23.5748250692  TIP3      1688            0.0000000000
     27383      1880  TIP3      H1            -28.1310935166        3.2944198627       24.3203697403  TIP3      1688            0.0000000000
     27384      1880  TIP3      H2            -28.3182717937        4.7431660171       24.0408278374  TIP3      1688            0.0000000000
     27385      1881  TIP3      OH2           -26.4385324963       18.9641431414       22.0086680084  TIP3      1689            0.0000000000
     27386      1881  TIP3      H1            -25.5262739075       19.2017848974       21.8215667402  TIP3      1689            0.0000000000
     27387      1881  TIP3      H2            -26.6471171649       18.4249815901       21.2106774720  TIP3      1689            0.0000000000
     27388      1882  TIP3      OH2           -19.7437472656       18.4656000579       24.7364686753  TIP3      1690            0.0000000000
     27389      1882  TIP3      H1            -19.9316564212       17.6783455021       24.1694481735  TIP3      1690            0.0000000000
     27390      1882  TIP3      H2            -19.7777556773       19.1681671190       24.0553662944  TIP3      1690            0.0000000000
     27391      1883  TIP3      OH2           -34.1986520594        2.4921039882       36.4478552250  TIP3      1691            0.0000000000
     27392      1883  TIP3      H1            -34.5264751224        1.6398616295       36.7895562928  TIP3      1691            0.0000000000
     27393      1883  TIP3      H2            -33.2610955449        2.4237669796       36.7530351004  TIP3      1691            0.0000000000
     27394      1884  TIP3      OH2           -32.0921422433        1.8779742043       38.0660358617  TIP3      1692            0.0000000000
     27395      1884  TIP3      H1            -31.2321258720        1.5114200287       37.7800958496  TIP3      1692            0.0000000000
     27396      1884  TIP3      H2            -32.5098785636        1.0711671409       38.4300785260  TIP3      1692            0.0000000000
     27397      1885  TIP3      OH2           -23.6898866809        1.1176223510       38.1794521090  TIP3      1693            0.0000000000
     27398      1885  TIP3      H1            -23.5966711285        0.6848963506       39.0517235045  TIP3      1693            0.0000000000
     27399      1885  TIP3      H2            -22.7668584873        1.1119916981       37.8577087202  TIP3      1693            0.0000000000
     27400      1886  TIP3      OH2           -20.4630502331       17.1746981571       36.8280046465  TIP3      1694            0.0000000000
     27401      1886  TIP3      H1            -21.2715878295       17.0426612761       36.2826993127  TIP3      1694            0.0000000000
     27402      1886  TIP3      H2            -20.5853067286       18.1256885681       37.0309829448  TIP3      1694            0.0000000000
     27403      1887  TIP3      OH2            -6.0434963817       11.0809841511       26.7811078541  TIP3      1695            0.0000000000
     27404      1887  TIP3      H1             -6.0647595667       12.0604605440       26.7495433706  TIP3      1695            0.0000000000
     27405      1887  TIP3      H2             -6.7797778110       10.8406270946       26.1933756688  TIP3      1695            0.0000000000
     27406      1888  TIP3      OH2            -7.1921770000       10.3227745933       30.2986989774  TIP3      1696            0.0000000000
     27407      1888  TIP3      H1             -7.2115261417        9.6726681769       31.0157748180  TIP3      1696            0.0000000000
     27408      1888  TIP3      H2             -7.5507241724        9.8242691642       29.5438137788  TIP3      1696            0.0000000000
     27409      1889  TIP3      OH2           -14.8360552372       10.0022124444       31.8380789289  TIP3      1697            0.0000000000
     27410      1889  TIP3      H1            -14.7580331925        9.3129567356       32.5310916226  TIP3      1697            0.0000000000
     27411      1889  TIP3      H2            -14.0892388907       10.5722750270       32.0715457029  TIP3      1697            0.0000000000
     27412      1890  TIP3      OH2            -3.5126445410       13.2653354361       28.5904127037  TIP3      1698            0.0000000000
     27413      1890  TIP3      H1             -3.9252042240       12.5523192034       29.0849971834  TIP3      1698            0.0000000000
     27414      1890  TIP3      H2             -3.4808805994       13.9818702091       29.2502126080  TIP3      1698            0.0000000000
     27415      1891  TIP3      OH2           -13.9168071713       14.4516436155       30.3432135045  TIP3      1699            0.0000000000
     27416      1891  TIP3      H1            -14.2256040957       13.5825804705       30.0228748334  TIP3      1699            0.0000000000
     27417      1891  TIP3      H2            -12.9609723509       14.2686097004       30.3911572057  TIP3      1699            0.0000000000
     27418      1892  TIP3      OH2           -17.2557457417        8.0055799845       25.7615305628  TIP3      1700            0.0000000000
     27419      1892  TIP3      H1            -17.6765813152        8.8972411456       25.8017315918  TIP3      1700            0.0000000000
     27420      1892  TIP3      H2            -17.9149737360        7.4831773525       25.3333301005  TIP3      1700            0.0000000000
     27421      1893  TIP3      OH2           -16.5584907716       10.2184096044       27.9858075213  TIP3      1701            0.0000000000
     27422      1893  TIP3      H1            -16.2831708102        9.3925745186       28.4283772134  TIP3      1701            0.0000000000
     27423      1893  TIP3      H2            -15.8749887030       10.3493359427       27.3115204106  TIP3      1701            0.0000000000
     27424      1894  TIP3      OH2            -6.3748859895       18.4402414647       28.8121038949  TIP3      1702            0.0000000000
     27425      1894  TIP3      H1             -5.7349894194       17.7442265080       28.5240021886  TIP3      1702            0.0000000000
     27426      1894  TIP3      H2             -6.6043529588       18.0928548277       29.6781500059  TIP3      1702            0.0000000000
     27427      1895  TIP3      OH2            -8.8232681615       12.7210905482       30.7774557913  TIP3      1703            0.0000000000
     27428      1895  TIP3      H1             -8.4875296781       12.1039913172       30.1049394392  TIP3      1703            0.0000000000
     27429      1895  TIP3      H2             -8.0060931210       12.8785093458       31.2838864280  TIP3      1703            0.0000000000
     27430      1896  TIP3      OH2            -0.2329599609        4.3823660257       31.4718643631  TIP3      1704            0.0000000000
     27431      1896  TIP3      H1             -0.0496861237        4.9523772188       32.2523859337  TIP3      1704            0.0000000000
     27432      1896  TIP3      H2              0.3568847901        4.8147990357       30.8378198127  TIP3      1704            0.0000000000
     27433      1897  TIP3      OH2            -5.6486220583        7.1825013106       31.0855191763  TIP3      1705            0.0000000000
     27434      1897  TIP3      H1             -5.4770660655        6.2253593403       31.0884757321  TIP3      1705            0.0000000000
     27435      1897  TIP3      H2             -5.7547371556        7.3274670952       30.1257977063  TIP3      1705            0.0000000000
     27436      1898  TIP3      OH2           -12.5510985465        5.2718135942       28.2974226493  TIP3      1706            0.0000000000
     27437      1898  TIP3      H1            -12.4263987588        6.1076737610       27.8132028587  TIP3      1706            0.0000000000
     27438      1898  TIP3      H2            -12.9393839993        4.7110974402       27.5911839236  TIP3      1706            0.0000000000
     27439      1899  TIP3      OH2            -4.7740944636        5.3178555070       26.6529119801  TIP3      1707            0.0000000000
     27440      1899  TIP3      H1             -4.1374855267        5.0667255863       27.3540428792  TIP3      1707            0.0000000000
     27441      1899  TIP3      H2             -4.2430251800        5.9382623595       26.1288236795  TIP3      1707            0.0000000000
     27442      1900  TIP3      OH2           -15.9046226241        7.7018968956       29.0292315472  TIP3      1708            0.0000000000
     27443      1900  TIP3      H1            -15.2510352469        7.1462568666       29.4936954689  TIP3      1708            0.0000000000
     27444      1900  TIP3      H2            -15.8041709132        7.3786678728       28.1236593038  TIP3      1708            0.0000000000
     27445      1901  TIP3      OH2           -10.7558653406        9.2541564778       28.3566484849  TIP3      1709            0.0000000000
     27446      1901  TIP3      H1            -10.0783869577        8.6745889976       28.7490965748  TIP3      1709            0.0000000000
     27447      1901  TIP3      H2            -11.2674144132        8.5955883899       27.8479235507  TIP3      1709            0.0000000000
     27448      1902  TIP3      OH2             0.2123676246        5.7827207231       33.7699579874  TIP3      1710            0.0000000000
     27449      1902  TIP3      H1             -0.3822411122        6.5554949820       33.6581781004  TIP3      1710            0.0000000000
     27450      1902  TIP3      H2              0.2506422962        5.7115029808       34.7331750147  TIP3      1710            0.0000000000
     27451      1903  TIP3      OH2           -13.6261143701        4.1806447251       32.3384988150  TIP3      1711            0.0000000000
     27452      1903  TIP3      H1            -13.9091857060        4.7525553019       31.5929979317  TIP3      1711            0.0000000000
     27453      1903  TIP3      H2            -14.3022709157        4.4079681707       33.0213069473  TIP3      1711            0.0000000000
     27454      1904  TIP3      OH2            -6.3280716762       13.6673136257       25.9216629144  TIP3      1712            0.0000000000
     27455      1904  TIP3      H1             -6.5971393608       13.4060925229       25.0371657226  TIP3      1712            0.0000000000
     27456      1904  TIP3      H2             -6.6533784174       14.5931642580       25.9416469595  TIP3      1712            0.0000000000
     27457      1905  TIP3      OH2           -11.1119383106       11.8221436266       32.5723312187  TIP3      1713            0.0000000000
     27458      1905  TIP3      H1            -11.8112686902       12.4666657134       32.7969068385  TIP3      1713            0.0000000000
     27459      1905  TIP3      H2            -10.4041426900       12.4196577336       32.2816085124  TIP3      1713            0.0000000000
     27460      1906  TIP3      OH2            -2.9501836100        4.6780536287       28.6568098082  TIP3      1714            0.0000000000
     27461      1906  TIP3      H1             -3.2417980658        3.9727134696       29.2354581404  TIP3      1714            0.0000000000
     27462      1906  TIP3      H2             -2.3438107669        5.1782054722       29.2381083503  TIP3      1714            0.0000000000
     27463      1907  TIP3      OH2           -14.0562107004        6.0332888387       30.3768630887  TIP3      1715            0.0000000000
     27464      1907  TIP3      H1            -13.4297328468        6.7223463599       30.6893325054  TIP3      1715            0.0000000000
     27465      1907  TIP3      H2            -13.5401052947        5.6276718284       29.6335030017  TIP3      1715            0.0000000000
     27466      1908  TIP3      OH2           -12.6763156840       13.8303205749       33.4158427073  TIP3      1716            0.0000000000
     27467      1908  TIP3      H1            -12.7059384292       14.7375646169       33.0532371280  TIP3      1716            0.0000000000
     27468      1908  TIP3      H2            -13.5656536793       13.7536903533       33.8129190122  TIP3      1716            0.0000000000
     27469      1909  TIP3      OH2            -2.9807704008       15.1111975804       30.9506216947  TIP3      1717            0.0000000000
     27470      1909  TIP3      H1             -3.9492090836       15.2243317568       31.0689475614  TIP3      1717            0.0000000000
     27471      1909  TIP3      H2             -2.7114607356       16.0257199622       30.7443916983  TIP3      1717            0.0000000000
     27472      1910  TIP3      OH2            -2.6755572096        3.3748956063       32.2839005590  TIP3      1718            0.0000000000
     27473      1910  TIP3      H1             -3.3828577825        4.0299123787       32.2443063825  TIP3      1718            0.0000000000
     27474      1910  TIP3      H2             -1.9372903126        3.8313187732       31.8339984162  TIP3      1718            0.0000000000
     27475      1911  TIP3      OH2            -9.6946169323        1.5146892904       29.8042736729  TIP3      1719            0.0000000000
     27476      1911  TIP3      H1             -9.8406972257        0.5520750502       29.7277384053  TIP3      1719            0.0000000000
     27477      1911  TIP3      H2            -10.5727971780        1.8211500598       30.1111890905  TIP3      1719            0.0000000000
     27478      1912  TIP3      OH2            -4.6927469327       16.8916246177       27.5751933898  TIP3      1720            0.0000000000
     27479      1912  TIP3      H1             -4.2927883384       16.1757529966       27.0387154646  TIP3      1720            0.0000000000
     27480      1912  TIP3      H2             -4.2888990651       17.6778155281       27.1577550718  TIP3      1720            0.0000000000
     27481      1913  TIP3      OH2            -3.4838784480       14.8365968576       26.0384936201  TIP3      1721            0.0000000000
     27482      1913  TIP3      H1             -3.7852199383       14.1260189713       25.4413152749  TIP3      1721            0.0000000000
     27483      1913  TIP3      H2             -3.4673580583       14.3442521546       26.8797958149  TIP3      1721            0.0000000000
     27484      1914  TIP3      OH2            -1.8951491667       13.4200109501       34.5501280314  TIP3      1722            0.0000000000
     27485      1914  TIP3      H1             -1.7459184336       12.7630852858       33.8344298749  TIP3      1722            0.0000000000
     27486      1914  TIP3      H2             -1.6828990667       14.2586651305       34.1015204110  TIP3      1722            0.0000000000
     27487      1915  TIP3      OH2            -7.3938317271       10.3408146752       24.3098213132  TIP3      1723            0.0000000000
     27488      1915  TIP3      H1             -8.0831275204       10.8843541001       23.8964705101  TIP3      1723            0.0000000000
     27489      1915  TIP3      H2             -6.7124124694       10.3860082459       23.6105784164  TIP3      1723            0.0000000000
     27490      1916  TIP3      OH2            -7.3286174040        8.7239098508       21.4655450739  TIP3      1724            0.0000000000
     27491      1916  TIP3      H1             -6.5416726995        8.8545983709       21.9949135790  TIP3      1724            0.0000000000
     27492      1916  TIP3      H2             -7.0245176137        8.1895758105       20.7305779366  TIP3      1724            0.0000000000
     27493      1917  TIP3      OH2            -0.0025315000        9.7322089493       32.5927524721  TIP3      1725            0.0000000000
     27494      1917  TIP3      H1             -0.6598936684       10.4555462193       32.6286737278  TIP3      1725            0.0000000000
     27495      1917  TIP3      H2              0.4942507443        9.9634192304       31.7867293589  TIP3      1725            0.0000000000
     27496      1918  TIP3      OH2            -3.9528760489       10.5024232079       25.2308190799  TIP3      1726            0.0000000000
     27497      1918  TIP3      H1             -4.6772514217       10.7609931811       25.8403869788  TIP3      1726            0.0000000000
     27498      1918  TIP3      H2             -3.4623440798        9.8500107668       25.7594422727  TIP3      1726            0.0000000000
     27499      1919  TIP3      OH2            -4.0167005861        8.6849397259       34.3549594216  TIP3      1727            0.0000000000
     27500      1919  TIP3      H1             -4.0105149498        9.5059580395       34.8734807779  TIP3      1727            0.0000000000
     27501      1919  TIP3      H2             -4.6466056724        8.9712743326       33.6625397783  TIP3      1727            0.0000000000
     27502      1920  TIP3      OH2           -12.3514397163       11.1686210977       27.1551173317  TIP3      1728            0.0000000000
     27503      1920  TIP3      H1            -12.6695735934       10.7723972237       26.3378803646  TIP3      1728            0.0000000000
     27504      1920  TIP3      H2            -11.7144323092       10.4980637350       27.4954765596  TIP3      1728            0.0000000000
     27505      1921  TIP3      OH2           -11.0269152611       14.5578731590       29.8579415110  TIP3      1729            0.0000000000
     27506      1921  TIP3      H1            -11.0247892265       14.0518198384       29.0337645100  TIP3      1729            0.0000000000
     27507      1921  TIP3      H2            -10.2284016196       14.2014061710       30.2900016025  TIP3      1729            0.0000000000
     27508      1922  TIP3      OH2           -12.0057384116        9.9208015454       30.8234023124  TIP3      1730            0.0000000000
     27509      1922  TIP3      H1            -11.4468508016       10.0159581881       30.0284489523  TIP3      1730            0.0000000000
     27510      1922  TIP3      H2            -11.6129162817       10.5890653313       31.4273267538  TIP3      1730            0.0000000000
     27511      1923  TIP3      OH2            -5.5776887464       15.4929176686       31.5227551860  TIP3      1731            0.0000000000
     27512      1923  TIP3      H1             -5.8742668096       16.1333881208       32.1759640524  TIP3      1731            0.0000000000
     27513      1923  TIP3      H2             -5.8411922974       14.6424507269       31.9441949813  TIP3      1731            0.0000000000
     27514      1924  TIP3      OH2           -11.0744060406       14.3284805546       35.5315196759  TIP3      1732            0.0000000000
     27515      1924  TIP3      H1            -11.4533419631       15.1135489149       35.9811292554  TIP3      1732            0.0000000000
     27516      1924  TIP3      H2            -11.7029430113       14.1604537559       34.7907888137  TIP3      1732            0.0000000000
     27517      1925  TIP3      OH2            -5.0830570427        9.6941548071       22.8859022346  TIP3      1733            0.0000000000
     27518      1925  TIP3      H1             -4.5575349555        9.9110637502       23.6873010613  TIP3      1733            0.0000000000
     27519      1925  TIP3      H2             -4.6510864757       10.2330057465       22.2098554933  TIP3      1733            0.0000000000
     27520      1926  TIP3      OH2           -14.1080756801       10.5563035007       34.6505360055  TIP3      1734            0.0000000000
     27521      1926  TIP3      H1            -14.0512109262       11.1727885225       35.3900536974  TIP3      1734            0.0000000000
     27522      1926  TIP3      H2            -15.0562660009       10.5576498714       34.4513265649  TIP3      1734            0.0000000000
     27523      1927  TIP3      OH2            -7.3552632377       16.4158295484       26.3864262821  TIP3      1735            0.0000000000
     27524      1927  TIP3      H1             -6.9204810378       16.7417908161       27.1792453789  TIP3      1735            0.0000000000
     27525      1927  TIP3      H2             -7.9002000808       17.1721396933       26.1274330912  TIP3      1735            0.0000000000
     27526      1928  TIP3      OH2           -12.8069510777       16.3110346277       36.2480498587  TIP3      1736            0.0000000000
     27527      1928  TIP3      H1            -12.8515127328       16.3121994632       35.2716531624  TIP3      1736            0.0000000000
     27528      1928  TIP3      H2            -13.7385839213       16.3593202970       36.5224396019  TIP3      1736            0.0000000000
     27529      1929  TIP3      OH2            -1.3648568592        1.4570644128       22.8746284288  TIP3      1737            0.0000000000
     27530      1929  TIP3      H1             -2.3266655090        1.5643773965       23.0208999238  TIP3      1737            0.0000000000
     27531      1929  TIP3      H2             -1.1352593483        2.2248795063       22.3390563776  TIP3      1737            0.0000000000
     27532      1930  TIP3      OH2           -17.2682588675       12.6205918866       33.6856124014  TIP3      1738            0.0000000000
     27533      1930  TIP3      H1            -17.7153731448       12.5476455190       32.8126490948  TIP3      1738            0.0000000000
     27534      1930  TIP3      H2            -17.2010459316       11.6624305280       33.8708937519  TIP3      1738            0.0000000000
     27535      1931  TIP3      OH2           -17.5088010730       15.3599612597       30.4654720763  TIP3      1739            0.0000000000
     27536      1931  TIP3      H1            -16.5488582676       15.2549022714       30.3984171755  TIP3      1739            0.0000000000
     27537      1931  TIP3      H2            -17.5875695758       16.1814533202       30.9667381649  TIP3      1739            0.0000000000
     27538      1932  TIP3      OH2             0.7153229172       16.0677615936       36.1021337592  TIP3      1740            0.0000000000
     27539      1932  TIP3      H1              0.6035003204       15.1063081568       36.1113493859  TIP3      1740            0.0000000000
     27540      1932  TIP3      H2             -0.1372221595       16.3169811666       36.5340670961  TIP3      1740            0.0000000000
     27541      1933  TIP3      OH2            -8.3118249655       15.6110039252       34.9958034885  TIP3      1741            0.0000000000
     27542      1933  TIP3      H1             -8.2584478819       16.4449827157       35.5210366765  TIP3      1741            0.0000000000
     27543      1933  TIP3      H2             -9.1759713196       15.2424800895       35.2509801466  TIP3      1741            0.0000000000
     27544      1934  TIP3      OH2            -7.8699456614       19.3470233133       24.7701835820  TIP3      1742            0.0000000000
     27545      1934  TIP3      H1             -7.9443598818       19.3178200638       23.8027773465  TIP3      1742            0.0000000000
     27546      1934  TIP3      H2             -7.8315802693       20.3019951570       24.9526849259  TIP3      1742            0.0000000000
     27547      1935  TIP3      OH2           -14.2505291860       18.2514758157       26.6519133093  TIP3      1743            0.0000000000
     27548      1935  TIP3      H1            -14.0997923877       17.7950691616       27.5095458951  TIP3      1743            0.0000000000
     27549      1935  TIP3      H2            -15.0676545796       17.7970787755       26.3565129518  TIP3      1743            0.0000000000
     27550      1936  TIP3      OH2            -5.1565680518       18.5011977143       24.5262425979  TIP3      1744            0.0000000000
     27551      1936  TIP3      H1             -6.1143016721       18.5723733618       24.7257807461  TIP3      1744            0.0000000000
     27552      1936  TIP3      H2             -4.9114129009       17.7658943448       25.1109220841  TIP3      1744            0.0000000000
     27553      1937  TIP3      OH2            -2.1333871457        7.5340280043       36.5801768733  TIP3      1745            0.0000000000
     27554      1937  TIP3      H1             -2.6157967243        7.9824332066       35.8664947902  TIP3      1745            0.0000000000
     27555      1937  TIP3      H2             -2.1500651634        6.6099449194       36.2898770464  TIP3      1745            0.0000000000
     27556      1938  TIP3      OH2           -15.0515104970       13.9894473395       34.6223266496  TIP3      1746            0.0000000000
     27557      1938  TIP3      H1            -14.6558477814       13.4191567435       35.3164165036  TIP3      1746            0.0000000000
     27558      1938  TIP3      H2            -15.8282558309       13.4972966387       34.2624049980  TIP3      1746            0.0000000000
     27559      1939  TIP3      OH2           -12.3053345367        2.4267141372       30.5439781785  TIP3      1747            0.0000000000
     27560      1939  TIP3      H1            -13.2097449131        2.2904255203       30.1868248448  TIP3      1747            0.0000000000
     27561      1939  TIP3      H2            -12.4438030619        3.2487393553       31.0426081128  TIP3      1747            0.0000000000
     27562      1940  TIP3      OH2            -7.6616463860        2.0806870478       33.9127111541  TIP3      1748            0.0000000000
     27563      1940  TIP3      H1             -7.2708388913        1.6576403599       34.7004818298  TIP3      1748            0.0000000000
     27564      1940  TIP3      H2             -8.6338774960        1.9662792087       34.0566610847  TIP3      1748            0.0000000000
     27565      1941  TIP3      OH2            -4.3759081468        5.9377389025       34.7992007786  TIP3      1749            0.0000000000
     27566      1941  TIP3      H1             -4.9359570775        5.7188842463       35.5870113591  TIP3      1749            0.0000000000
     27567      1941  TIP3      H2             -4.5613334598        6.8670648385       34.5874460930  TIP3      1749            0.0000000000
     27568      1942  TIP3      OH2            -8.0344686523        4.6371393056       21.2936185565  TIP3      1750            0.0000000000
     27569      1942  TIP3      H1             -8.3666496614        4.6083820789       22.2052688502  TIP3      1750            0.0000000000
     27570      1942  TIP3      H2             -8.2987044728        3.7674188168       20.9668322928  TIP3      1750            0.0000000000
     27571      1943  TIP3      OH2           -12.1999123017        7.3953908499       31.8210280814  TIP3      1751            0.0000000000
     27572      1943  TIP3      H1            -12.9435580672        7.3853983662       32.4506641581  TIP3      1751            0.0000000000
     27573      1943  TIP3      H2            -12.2523400429        8.2997717875       31.4371309128  TIP3      1751            0.0000000000
     27574      1944  TIP3      OH2           -12.2653482437        7.5236655918       26.6753937712  TIP3      1752            0.0000000000
     27575      1944  TIP3      H1            -13.1954736191        7.2267501989       26.5494876332  TIP3      1752            0.0000000000
     27576      1944  TIP3      H2            -11.8701021437        7.2119724901       25.8379382135  TIP3      1752            0.0000000000
     27577      1945  TIP3      OH2            -6.7327094596        8.0075661884       25.4339342424  TIP3      1753            0.0000000000
     27578      1945  TIP3      H1             -7.1230595149        8.8337120794       25.0704351153  TIP3      1753            0.0000000000
     27579      1945  TIP3      H2             -6.0396642017        7.8306264649       24.7745582878  TIP3      1753            0.0000000000
     27580      1946  TIP3      OH2            -7.6709290484        8.2214739799       36.8736633731  TIP3      1754            0.0000000000
     27581      1946  TIP3      H1             -8.1900797492        7.4397563018       37.1799457623  TIP3      1754            0.0000000000
     27582      1946  TIP3      H2             -6.8345270944        8.1070485245       37.3554788914  TIP3      1754            0.0000000000
     27583      1947  TIP3      OH2            -5.6820751479        7.4975092857       28.2841568975  TIP3      1755            0.0000000000
     27584      1947  TIP3      H1             -5.9731365890        8.0619734800       27.5461306778  TIP3      1755            0.0000000000
     27585      1947  TIP3      H2             -5.5968475583        6.6519548964       27.8097988594  TIP3      1755            0.0000000000
     27586      1948  TIP3      OH2           -14.5943301437        7.6403321322       33.4852930310  TIP3      1756            0.0000000000
     27587      1948  TIP3      H1            -14.4944140573        8.0420973778       34.3645010221  TIP3      1756            0.0000000000
     27588      1948  TIP3      H2            -15.0240912846        6.7971688804       33.7032090547  TIP3      1756            0.0000000000
     27589      1949  TIP3      OH2           -17.9219226781        4.7673444225       27.4472626155  TIP3      1757            0.0000000000
     27590      1949  TIP3      H1            -17.2660944900        4.7004867358       28.1785410472  TIP3      1757            0.0000000000
     27591      1949  TIP3      H2            -17.4575765705        4.3547346490       26.7000179620  TIP3      1757            0.0000000000
     27592      1950  TIP3      OH2           -16.7209690597        5.5201888467       22.7940157998  TIP3      1758            0.0000000000
     27593      1950  TIP3      H1            -16.1621566136        6.1180960896       22.2996081937  TIP3      1758            0.0000000000
     27594      1950  TIP3      H2            -17.3352985201        6.1136848372       23.2175195781  TIP3      1758            0.0000000000
     27595      1951  TIP3      OH2            -6.4952889857        9.0817546379       32.8380699332  TIP3      1759            0.0000000000
     27596      1951  TIP3      H1             -6.1111566114        8.3940837919       32.2570914175  TIP3      1759            0.0000000000
     27597      1951  TIP3      H2             -6.9636613151        8.5558080679       33.5110109661  TIP3      1759            0.0000000000
     27598      1952  TIP3      OH2            -9.7001367126        5.0695000644       27.6817127799  TIP3      1760            0.0000000000
     27599      1952  TIP3      H1            -10.6369759710        5.0654231346       27.9791703950  TIP3      1760            0.0000000000
     27600      1952  TIP3      H2             -9.2119538667        4.8885169204       28.5007052940  TIP3      1760            0.0000000000
     27601      1953  TIP3      OH2           -14.8509944718        6.6190865857       26.5100525012  TIP3      1761            0.0000000000
     27602      1953  TIP3      H1            -15.7592348054        6.7547487390       26.1736327598  TIP3      1761            0.0000000000
     27603      1953  TIP3      H2            -14.5897841703        5.7455537542       26.1660706142  TIP3      1761            0.0000000000
     27604      1954  TIP3      OH2           -11.2770425552        6.6903495175       24.1889838392  TIP3      1762            0.0000000000
     27605      1954  TIP3      H1            -10.3133428691        6.7292460765       24.3743113687  TIP3      1762            0.0000000000
     27606      1954  TIP3      H2            -11.3980787837        7.3267224104       23.4824382695  TIP3      1762            0.0000000000
     27607      1955  TIP3      OH2            -5.2777356454        4.2792688408       30.9070471596  TIP3      1763            0.0000000000
     27608      1955  TIP3      H1             -5.9505673704        4.3429505888       31.6237339761  TIP3      1763            0.0000000000
     27609      1955  TIP3      H2             -5.8178696639        4.0478118488       30.1391821330  TIP3      1763            0.0000000000
     27610      1956  TIP3      OH2            -2.0924453813       19.9424472232       37.2792585005  TIP3      1764            0.0000000000
     27611      1956  TIP3      H1             -1.8218755894       20.3152897791       36.4175325180  TIP3      1764            0.0000000000
     27612      1956  TIP3      H2             -1.3610829061       20.2493013799       37.8404898646  TIP3      1764            0.0000000000
     27613      1957  TIP3      OH2           -14.4278500075       12.5559512245       36.8379583910  TIP3      1765            0.0000000000
     27614      1957  TIP3      H1            -13.6448675820       12.6018387603       37.4356583392  TIP3      1765            0.0000000000
     27615      1957  TIP3      H2            -15.1234429898       12.3257505448       37.4879649882  TIP3      1765            0.0000000000
     27616      1958  TIP3      OH2            -8.4107093050        7.8195167183       29.5712196960  TIP3      1766            0.0000000000
     27617      1958  TIP3      H1             -7.8080520231        7.2884214548       29.0377659270  TIP3      1766            0.0000000000
     27618      1958  TIP3      H2             -8.5560997291        7.2685094492       30.3521343178  TIP3      1766            0.0000000000
     27619      1959  TIP3      OH2           -13.4091200040        3.9777579934       25.9967978671  TIP3      1767            0.0000000000
     27620      1959  TIP3      H1            -13.7114698217        3.0517327696       26.0120926406  TIP3      1767            0.0000000000
     27621      1959  TIP3      H2            -12.6066972237        3.8889494691       25.4643646906  TIP3      1767            0.0000000000
     27622      1960  TIP3      OH2            -9.7697189531        6.1431757484       31.9850073266  TIP3      1768            0.0000000000
     27623      1960  TIP3      H1            -10.5941527693        6.6653568482       32.0726975591  TIP3      1768            0.0000000000
     27624      1960  TIP3      H2             -9.2140544714        6.4989799886       32.7052948324  TIP3      1768            0.0000000000
     27625      1961  TIP3      OH2            -1.9892649012       11.5742660381       32.4866249263  TIP3      1769            0.0000000000
     27626      1961  TIP3      H1             -1.4303368638       12.0582992990       31.8512775685  TIP3      1769            0.0000000000
     27627      1961  TIP3      H2             -2.8510890478       11.6140202319       32.0247363714  TIP3      1769            0.0000000000
     27628      1962  TIP3      OH2            -7.6906042070       12.6354935158       34.9217562511  TIP3      1770            0.0000000000
     27629      1962  TIP3      H1             -8.0432277163       12.2084793331       35.7094713785  TIP3      1770            0.0000000000
     27630      1962  TIP3      H2             -7.9457015786       13.5585170067       35.0350995526  TIP3      1770            0.0000000000
     27631      1963  TIP3      OH2            -4.6110201992        7.0598792370       23.5324134140  TIP3      1771            0.0000000000
     27632      1963  TIP3      H1             -3.7154252919        6.9702997316       23.9005387983  TIP3      1771            0.0000000000
     27633      1963  TIP3      H2             -4.5616282255        7.8603314407       22.9780785127  TIP3      1771            0.0000000000
     27634      1964  TIP3      OH2           -14.0634060592       11.7629617130       29.4833079849  TIP3      1772            0.0000000000
     27635      1964  TIP3      H1            -13.3759999094       11.6801831930       28.7980832691  TIP3      1772            0.0000000000
     27636      1964  TIP3      H2            -14.0064655297       10.9082439878       29.9462751540  TIP3      1772            0.0000000000
     27637      1965  TIP3      OH2           -17.0983039329       10.1838778581       34.7808106402  TIP3      1773            0.0000000000
     27638      1965  TIP3      H1            -16.9227367704        9.6928274873       35.6008522497  TIP3      1773            0.0000000000
     27639      1965  TIP3      H2            -17.6903927477        9.5670335266       34.2980622936  TIP3      1773            0.0000000000
     27640      1966  TIP3      OH2           -10.0696165351        9.7148500320       36.9203894501  TIP3      1774            0.0000000000
     27641      1966  TIP3      H1            -10.3834121994        9.4037768780       36.0572205462  TIP3      1774            0.0000000000
     27642      1966  TIP3      H2             -9.1437029707        9.4028065699       36.9158598453  TIP3      1774            0.0000000000
     27643      1967  TIP3      OH2            -5.3780386578       15.0610893723       34.8806366946  TIP3      1775            0.0000000000
     27644      1967  TIP3      H1             -6.3023037830       15.2415463408       34.6444931717  TIP3      1775            0.0000000000
     27645      1967  TIP3      H2             -5.4149273950       15.3545640350       35.8113111776  TIP3      1775            0.0000000000
     27646      1968  TIP3      OH2             0.2430519761        7.2531168987       23.2629788329  TIP3      1776            0.0000000000
     27647      1968  TIP3      H1             -0.3054541879        6.9489303169       22.5166968854  TIP3      1776            0.0000000000
     27648      1968  TIP3      H2              0.3572766137        8.1742130096       22.9950840882  TIP3      1776            0.0000000000
     27649      1969  TIP3      OH2             0.2766055662       13.0994093579       36.0637044677  TIP3      1777            0.0000000000
     27650      1969  TIP3      H1             -0.6174606734       13.3235829186       35.7047927901  TIP3      1777            0.0000000000
     27651      1969  TIP3      H2              0.8166395797       13.0499693966       35.2471732655  TIP3      1777            0.0000000000
     27652      1970  TIP3      OH2            -4.2145703831       10.8795983610       30.7793457162  TIP3      1778            0.0000000000
     27653      1970  TIP3      H1             -5.1561638217       10.6781877766       30.6568304312  TIP3      1778            0.0000000000
     27654      1970  TIP3      H2             -3.7844968119       10.1292478477       30.3284800016  TIP3      1778            0.0000000000
     27655      1971  TIP3      OH2           -11.7383601084       15.2018537764       26.8784017123  TIP3      1779            0.0000000000
     27656      1971  TIP3      H1            -11.2005563996       15.9887904903       26.6737342751  TIP3      1779            0.0000000000
     27657      1971  TIP3      H2            -12.5993928242       15.4707808531       26.5420582608  TIP3      1779            0.0000000000
     27658      1972  TIP3      OH2           -10.2865989111       12.8663628619       26.4437815668  TIP3      1780            0.0000000000
     27659      1972  TIP3      H1            -10.5848377148       13.7952384650       26.4613188618  TIP3      1780            0.0000000000
     27660      1972  TIP3      H2            -11.0296609504       12.3976359067       26.8513650865  TIP3      1780            0.0000000000
     27661      1973  TIP3      OH2            -9.8451934419       17.0706871862       32.8061376752  TIP3      1781            0.0000000000
     27662      1973  TIP3      H1             -9.3747459363       17.8675212234       32.5108773539  TIP3      1781            0.0000000000
     27663      1973  TIP3      H2             -9.2198949843       16.7234609902       33.4692702670  TIP3      1781            0.0000000000
     27664      1974  TIP3      OH2           -11.6109487817       17.8514157353       25.9387577747  TIP3      1782            0.0000000000
     27665      1974  TIP3      H1            -12.5720006203       17.9921382096       26.0708581225  TIP3      1782            0.0000000000
     27666      1974  TIP3      H2            -11.2409157483       18.6892897274       26.2726991096  TIP3      1782            0.0000000000
     27667      1975  TIP3      OH2            -6.3228829752       13.0566427686       32.4135639814  TIP3      1783            0.0000000000
     27668      1975  TIP3      H1             -6.6325330665       12.8679491782       33.3237852142  TIP3      1783            0.0000000000
     27669      1975  TIP3      H2             -5.6727256057       12.3535850172       32.2461911114  TIP3      1783            0.0000000000
     27670      1976  TIP3      OH2            -3.9691450416       14.1507193644       21.5846156371  TIP3      1784            0.0000000000
     27671      1976  TIP3      H1             -3.6622768798       13.6368075496       22.3482720599  TIP3      1784            0.0000000000
     27672      1976  TIP3      H2             -4.9285943888       13.9232088636       21.5249140659  TIP3      1784            0.0000000000
     27673      1977  TIP3      OH2            -3.4823963224       17.6445690050       34.9004335769  TIP3      1785            0.0000000000
     27674      1977  TIP3      H1             -4.1819193825       17.1547080188       34.4267353426  TIP3      1785            0.0000000000
     27675      1977  TIP3      H2             -3.3082356548       18.3468883214       34.2384970881  TIP3      1785            0.0000000000
     27676      1978  TIP3      OH2           -15.4289176315        4.9095223410       34.3095858661  TIP3      1786            0.0000000000
     27677      1978  TIP3      H1            -16.3387246645        5.2525385345       34.2760329533  TIP3      1786            0.0000000000
     27678      1978  TIP3      H2            -15.5426973617        4.0518435300       34.7494996889  TIP3      1786            0.0000000000
     27679      1979  TIP3      OH2            -3.2424368241       12.7661569984       23.8168641150  TIP3      1787            0.0000000000
     27680      1979  TIP3      H1             -3.4613165696       11.9333388039       24.2691197717  TIP3      1787            0.0000000000
     27681      1979  TIP3      H2             -2.2687587271       12.7790401933       23.8911515170  TIP3      1787            0.0000000000
     27682      1980  TIP3      OH2           -15.8321749345       16.6778406526       32.7273091568  TIP3      1788            0.0000000000
     27683      1980  TIP3      H1            -15.5026109476       15.7680133737       32.7077384630  TIP3      1788            0.0000000000
     27684      1980  TIP3      H2            -15.5368261598       16.9956451131       33.5867208616  TIP3      1788            0.0000000000
     27685      1981  TIP3      OH2            -6.6886063856        4.6780916203       33.2517002880  TIP3      1789            0.0000000000
     27686      1981  TIP3      H1             -5.9805171587        4.7381002677       33.9020575983  TIP3      1789            0.0000000000
     27687      1981  TIP3      H2             -7.0797584846        3.8059005498       33.4634833064  TIP3      1789            0.0000000000
     27688      1982  TIP3      OH2            -5.9203533337        4.2555394746       24.3076281220  TIP3      1790            0.0000000000
     27689      1982  TIP3      H1             -5.7277627340        4.7941134074       23.5311698107  TIP3      1790            0.0000000000
     27690      1982  TIP3      H2             -5.3799456642        4.6928141169       24.9841257736  TIP3      1790            0.0000000000
     27691      1983  TIP3      OH2            -8.2495392173       16.4704035741       23.2209503107  TIP3      1791            0.0000000000
     27692      1983  TIP3      H1             -9.1132915991       16.9161996396       23.2282265668  TIP3      1791            0.0000000000
     27693      1983  TIP3      H2             -7.7614147123       16.9090561824       22.5175178342  TIP3      1791            0.0000000000
     27694      1984  TIP3      OH2            -8.7761700309        6.0425782829       25.1565536872  TIP3      1792            0.0000000000
     27695      1984  TIP3      H1             -7.9495389548        6.5686975850       25.1980032549  TIP3      1792            0.0000000000
     27696      1984  TIP3      H2             -9.0039023655        5.8707870054       26.0911319625  TIP3      1792            0.0000000000
     27697      1985  TIP3      OH2            -8.1627691192        7.0274424463       34.3581511686  TIP3      1793            0.0000000000
     27698      1985  TIP3      H1             -8.0928468703        7.5715508079       35.1638815133  TIP3      1793            0.0000000000
     27699      1985  TIP3      H2             -7.5066139331        6.3257878640       34.4504391195  TIP3      1793            0.0000000000
     27700      1986  TIP3      OH2            -7.8649076051        3.0765142081       26.0221058813  TIP3      1794            0.0000000000
     27701      1986  TIP3      H1             -8.1968032978        3.7062432564       26.6857870031  TIP3      1794            0.0000000000
     27702      1986  TIP3      H2             -7.1647360903        3.6192000703       25.5879574582  TIP3      1794            0.0000000000
     27703      1987  TIP3      OH2           -10.9237782173       17.5262558926       23.1771421755  TIP3      1795            0.0000000000
     27704      1987  TIP3      H1            -10.6839592948       18.3143495952       22.6798849226  TIP3      1795            0.0000000000
     27705      1987  TIP3      H2            -11.1364072877       17.8015947395       24.0915280900  TIP3      1795            0.0000000000
     27706      1988  TIP3      OH2           -12.1876991638        4.1945275410       22.7311697508  TIP3      1796            0.0000000000
     27707      1988  TIP3      H1            -12.2373522118        5.0486661810       23.1716893586  TIP3      1796            0.0000000000
     27708      1988  TIP3      H2            -11.3053255518        3.8807529996       23.0048883333  TIP3      1796            0.0000000000
     27709      1989  TIP3      OH2            -1.9936879393        4.8943780827       35.2001021784  TIP3      1797            0.0000000000
     27710      1989  TIP3      H1             -2.9221669207        5.2092746397       35.0773987178  TIP3      1797            0.0000000000
     27711      1989  TIP3      H2             -1.6927403414        4.8715598708       34.2755167618  TIP3      1797            0.0000000000
     27712      1990  TIP3      OH2            -3.3765815163        8.6758958880       29.2010960580  TIP3      1798            0.0000000000
     27713      1990  TIP3      H1             -4.2022325942        8.2288972202       28.9318843860  TIP3      1798            0.0000000000
     27714      1990  TIP3      H2             -2.8958187705        7.9920021088       29.7202848481  TIP3      1798            0.0000000000
     27715      1991  TIP3      OH2            -2.3173529969       17.9433875215       30.8779648981  TIP3      1799            0.0000000000
     27716      1991  TIP3      H1             -2.4024581975       18.6195347288       30.1787911451  TIP3      1799            0.0000000000
     27717      1991  TIP3      H2             -1.3519749509       17.9890220618       31.0493277524  TIP3      1799            0.0000000000
     27718      1992  TIP3      OH2           -14.8275188680        2.0583007965       29.6925902656  TIP3      1800            0.0000000000
     27719      1992  TIP3      H1            -15.0154387941        2.0729360637       28.7273251783  TIP3      1800            0.0000000000
     27720      1992  TIP3      H2            -15.2362731271        1.2019729918       29.9390981546  TIP3      1800            0.0000000000
     27721      1993  TIP3      OH2           -15.8258630515       16.1142435585       25.9253808951  TIP3      1801            0.0000000000
     27722      1993  TIP3      H1            -16.7384053672       16.3851017364       25.7658704629  TIP3      1801            0.0000000000
     27723      1993  TIP3      H2            -15.4203126716       16.4008803522       25.0938718074  TIP3      1801            0.0000000000
     27724      1994  TIP3      OH2           -16.6777547250       18.6379435806       37.1115152089  TIP3      1802            0.0000000000
     27725      1994  TIP3      H1            -16.0664665833       18.4414263698       37.8545078157  TIP3      1802            0.0000000000
     27726      1994  TIP3      H2            -17.0849000787       17.7763016416       36.9554204145  TIP3      1802            0.0000000000
     27727      1995  TIP3      OH2           -11.9967541023       17.5011502855       38.7202350165  TIP3      1803            0.0000000000
     27728      1995  TIP3      H1            -11.2118672839       17.0458378581       39.0511590548  TIP3      1803            0.0000000000
     27729      1995  TIP3      H2            -11.9744176609       17.2758742748       37.7729070506  TIP3      1803            0.0000000000
     27730      1996  TIP3      OH2            -5.5030991050       15.9414218475       37.4618657666  TIP3      1804            0.0000000000
     27731      1996  TIP3      H1             -5.8032234701       15.0480875114       37.7310963958  TIP3      1804            0.0000000000
     27732      1996  TIP3      H2             -4.7128931312       16.0590405968       38.0256953573  TIP3      1804            0.0000000000
     27733      1997  TIP3      OH2           -16.7446057684       12.4204133077       38.0437228778  TIP3      1805            0.0000000000
     27734      1997  TIP3      H1            -16.5987136037       11.4741165353       37.8025341214  TIP3      1805            0.0000000000
     27735      1997  TIP3      H2            -17.5691689658       12.5977660627       37.5520801687  TIP3      1805            0.0000000000
     27736      1998  TIP3      OH2           -10.0217637223       12.3746680395       37.4689689949  TIP3      1806            0.0000000000
     27737      1998  TIP3      H1            -10.3400570943       12.6916436547       36.6055300395  TIP3      1806            0.0000000000
     27738      1998  TIP3      H2             -9.9633686190       11.3973739968       37.3566676768  TIP3      1806            0.0000000000
     27739      1999  TIP3      OH2            -4.3433007820       12.2493081691       34.8893607400  TIP3      1807            0.0000000000
     27740      1999  TIP3      H1             -3.5522011254       12.8279912053       34.8289584597  TIP3      1807            0.0000000000
     27741      1999  TIP3      H2             -5.0367616624       12.9249846618       34.9276338952  TIP3      1807            0.0000000000
     27742      2000  TIP3      OH2           -15.8012354394        9.6886018842       37.5204109851  TIP3      1808            0.0000000000
     27743      2000  TIP3      H1            -15.4330037431        8.8003009360       37.3748284230  TIP3      1808            0.0000000000
     27744      2000  TIP3      H2            -16.0630080074        9.6231932882       38.4531746732  TIP3      1808            0.0000000000
     27745      2001  TIP3      OH2           -11.9437652747        8.5734193368       34.8408333837  TIP3      1809            0.0000000000
     27746      2001  TIP3      H1            -12.5306908575        9.2998860834       35.0992059104  TIP3      1809            0.0000000000
     27747      2001  TIP3      H2            -11.5350704269        8.9400212227       34.0374252029  TIP3      1809            0.0000000000
     27748      2002  TIP3      OH2            -6.8595342082       11.1506558430       38.2703392996  TIP3      1810            0.0000000000
     27749      2002  TIP3      H1             -5.9167074758       11.1046931250       38.0522817877  TIP3      1810            0.0000000000
     27750      2002  TIP3      H2             -7.0241155443       10.3517670445       38.7937252185  TIP3      1810            0.0000000000
     27751      2003  TIP3      OH2           -11.5158234597        5.9657500742       35.8772942021  TIP3      1811            0.0000000000
     27752      2003  TIP3      H1            -11.4103613443        5.2453731382       35.2278677348  TIP3      1811            0.0000000000
     27753      2003  TIP3      H2            -11.5717631357        6.7727357208       35.3314215883  TIP3      1811            0.0000000000
     27754      2004  TIP3      OH2           -11.1222022109        4.3312736998       33.4532239708  TIP3      1812            0.0000000000
     27755      2004  TIP3      H1            -10.6165179448        4.7933162202       32.7423449056  TIP3      1812            0.0000000000
     27756      2004  TIP3      H2            -12.0178215590        4.2555637406       33.0516867090  TIP3      1812            0.0000000000
     27757      2005  TIP3      OH2            -9.5899115179        9.8212528579       33.6946864638  TIP3      1813            0.0000000000
     27758      2005  TIP3      H1             -8.8304868773        9.6570256196       33.1258367715  TIP3      1813            0.0000000000
     27759      2005  TIP3      H2             -9.9467341726       10.6563054941       33.3523595960  TIP3      1813            0.0000000000
     27760      2006  TIP3      OH2            -5.1923147000        7.5567707205       38.6483042161  TIP3      1814            0.0000000000
     27761      2006  TIP3      H1             -4.9685854215        6.6158983977       38.5778178793  TIP3      1814            0.0000000000
     27762      2006  TIP3      H2             -4.3226938703        7.9872041449       38.6709593340  TIP3      1814            0.0000000000
     27763      2007  TIP3      OH2            -3.8433206716       10.3750702063       36.8514461719  TIP3      1815            0.0000000000
     27764      2007  TIP3      H1             -4.1018915445       11.0832250972       36.2215360602  TIP3      1815            0.0000000000
     27765      2007  TIP3      H2             -2.8901219906       10.3300060921       36.6277327586  TIP3      1815            0.0000000000
     27766      2008  TIP3      OH2           -13.0461679716        7.1801806301       37.8453383129  TIP3      1816            0.0000000000
     27767      2008  TIP3      H1            -13.8284832911        6.6183510687       37.6492299527  TIP3      1816            0.0000000000
     27768      2008  TIP3      H2            -12.4155994914        6.8286855255       37.1860845597  TIP3      1816            0.0000000000
     27769      2009  TIP3      OH2           -10.3408288124        1.7643735810       33.8513464775  TIP3      1817            0.0000000000
     27770      2009  TIP3      H1            -10.5215881902        2.7286785718       33.7472441379  TIP3      1817            0.0000000000
     27771      2009  TIP3      H2            -11.0835009683        1.3984780489       33.3397363138  TIP3      1817            0.0000000000
     27772      2010  TIP3      OH2            -9.0612069106        6.0984484685       37.4914763306  TIP3      1818            0.0000000000
     27773      2010  TIP3      H1             -9.3906292325        5.8775809847       38.3819612189  TIP3      1818            0.0000000000
     27774      2010  TIP3      H2             -9.8332249891        5.9079726726       36.9264933551  TIP3      1818            0.0000000000
     27775      2011  TIP3      OH2            -6.3484109662        5.2339827162       36.5436448820  TIP3      1819            0.0000000000
     27776      2011  TIP3      H1             -7.3081400169        5.2980893219       36.6814443762  TIP3      1819            0.0000000000
     27777      2011  TIP3      H2             -6.0757904940        4.6102033859       37.2445231393  TIP3      1819            0.0000000000
     27778      2012  TIP3      OH2            -4.7994106917        3.8673170295       38.4572170275  TIP3      1820            0.0000000000
     27779      2012  TIP3      H1             -4.8092360887        2.8903545660       38.4958043973  TIP3      1820            0.0000000000
     27780      2012  TIP3      H2             -5.0244506670        4.1601272967       39.3725056597  TIP3      1820            0.0000000000
     27781      2013  TIP3      OH2           -14.9815415844        5.1424406013       37.5676263173  TIP3      1821            0.0000000000
     27782      2013  TIP3      H1            -14.7422901417        4.3985710097       36.9914006188  TIP3      1821            0.0000000000
     27783      2013  TIP3      H2            -15.0700982568        4.7065225176       38.4436581904  TIP3      1821            0.0000000000
     27784      2014  TIP3      OH2           -10.1194047300        1.1579461382       36.5445501921  TIP3      1822            0.0000000000
     27785      2014  TIP3      H1             -9.4491904686        0.4445346392       36.5285822787  TIP3      1822            0.0000000000
     27786      2014  TIP3      H2            -10.2299280743        1.3084769014       35.5864738975  TIP3      1822            0.0000000000
     27787      2015  TIP3      OH2            -9.7773424398        2.7612666283       38.6481579777  TIP3      1823            0.0000000000
     27788      2015  TIP3      H1             -9.9370317286        2.2620653284       37.8109039663  TIP3      1823            0.0000000000
     27789      2015  TIP3      H2            -10.3455599100        3.5470756425       38.5378364716  TIP3      1823            0.0000000000
     27790      2016  TIP3      OH2           -17.9626174067       19.6483423390       26.2878980819  TIP3      1824            0.0000000000
     27791      2016  TIP3      H1            -18.6618096260       19.1578489067       25.7925807876  TIP3      1824            0.0000000000
     27792      2016  TIP3      H2            -17.6867254103       18.9775545085       26.9444612713  TIP3      1824            0.0000000000
     27793      2017  TIP3      OH2           -17.1390309597       17.7722378229       28.1449365554  TIP3      1825            0.0000000000
     27794      2017  TIP3      H1            -17.4864755750       16.8907397439       28.3298008461  TIP3      1825            0.0000000000
     27795      2017  TIP3      H2            -16.9059795158       18.1020958974       29.0266120921  TIP3      1825            0.0000000000
     27796      2018  TIP3      OH2             0.4050427526       18.5804048381       31.0723114968  TIP3      1826            0.0000000000
     27797      2018  TIP3      H1              0.4359949254       18.7391474166       32.0317242856  TIP3      1826            0.0000000000
     27798      2018  TIP3      H2              1.1075433313       19.1648065726       30.7697727389  TIP3      1826            0.0000000000
     27799      2019  TIP3      OH2            -0.0242284561       18.1768036495       34.0187772370  TIP3      1827            0.0000000000
     27800      2019  TIP3      H1             -0.4938894259       17.4054584523       33.6357976632  TIP3      1827            0.0000000000
     27801      2019  TIP3      H2              0.4601181003       17.7278743270       34.7316780265  TIP3      1827            0.0000000000
     27802      2020  TIP3      OH2            -1.5559425655       13.8825964133       38.7156144062  TIP3      1828            0.0000000000
     27803      2020  TIP3      H1             -2.4748124176       13.8692646408       39.0565658369  TIP3      1828            0.0000000000
     27804      2020  TIP3      H2             -1.2286775917       14.7131426229       39.0989169726  TIP3      1828            0.0000000000
     27805      2021  TIP3      OH2            -0.2896052311       12.1921248068       24.1501256644  TIP3      1829            0.0000000000
     27806      2021  TIP3      H1              0.5608723924       12.6227581634       24.2666969954  TIP3      1829            0.0000000000
     27807      2021  TIP3      H2             -0.2613989931       11.4707255751       24.8045245246  TIP3      1829            0.0000000000
     27808      2022  TIP3      OH2             0.1202372781       10.2590002318       26.0026009879  TIP3      1830            0.0000000000
     27809      2022  TIP3      H1             -0.6636160108        9.8025055741       26.3813549535  TIP3      1830            0.0000000000
     27810      2022  TIP3      H2              0.6839763098       10.4280128156       26.7827852944  TIP3      1830            0.0000000000
     27811      2023  TIP3      OH2            -0.1470154006       12.9962042591       30.9941020842  TIP3      1831            0.0000000000
     27812      2023  TIP3      H1              0.6647665143       12.6175737397       30.6137799167  TIP3      1831            0.0000000000
     27813      2023  TIP3      H2             -0.0000540386       13.9502782582       30.8215414639  TIP3      1831            0.0000000000
     27814      2024  TIP3      OH2            -1.5849914311       15.9028645466       33.2617058839  TIP3      1832            0.0000000000
     27815      2024  TIP3      H1             -2.2772889624       16.2458016012       33.8495567698  TIP3      1832            0.0000000000
     27816      2024  TIP3      H2             -2.1346915151       15.5014811415       32.5539919053  TIP3      1832            0.0000000000
     27817      2025  TIP3      OH2            -1.2306184263        7.3336590729       20.9269304724  TIP3      1833            0.0000000000
     27818      2025  TIP3      H1             -1.1671816872        8.0112250324       20.2518126279  TIP3      1833            0.0000000000
     27819      2025  TIP3      H2             -1.4172334464        6.5192392168       20.4274684729  TIP3      1833            0.0000000000
     27820      2026  TIP3      OH2            -2.0736484450        8.7769618562       26.6038287360  TIP3      1834            0.0000000000
     27821      2026  TIP3      H1             -2.2386994011        7.8239857962       26.5244368304  TIP3      1834            0.0000000000
     27822      2026  TIP3      H2             -2.4116263837        8.9785735514       27.4953124679  TIP3      1834            0.0000000000
     27823      2027  TIP3      OH2           -17.0784010778       10.8638609958       30.6279214812  TIP3      1835            0.0000000000
     27824      2027  TIP3      H1            -16.8966366088       10.7883963397       29.6633345192  TIP3      1835            0.0000000000
     27825      2027  TIP3      H2            -16.1856159584       10.6818852668       30.9844452538  TIP3      1835            0.0000000000
     27826      2028  TIP3      OH2            -1.2207732263       10.7450050972       36.2935663424  TIP3      1836            0.0000000000
     27827      2028  TIP3      H1             -0.6080749272        9.9848315993       36.3942467025  TIP3      1836            0.0000000000
     27828      2028  TIP3      H2             -0.6135106900       11.5139694825       36.2652502978  TIP3      1836            0.0000000000
     27829      2029  TIP3      OH2             0.2715649952        8.6265012111       36.9164590598  TIP3      1837            0.0000000000
     27830      2029  TIP3      H1             -0.6058369538        8.2191851493       36.7558959123  TIP3      1837            0.0000000000
     27831      2029  TIP3      H2              0.8475673377        7.8460857724       36.8482913817  TIP3      1837            0.0000000000
     27832      2030  TIP3      OH2            -1.9553741808        4.7895785448       20.0217973947  TIP3      1838            0.0000000000
     27833      2030  TIP3      H1             -1.4100678643        4.3919886212       20.7118680480  TIP3      1838            0.0000000000
     27834      2030  TIP3      H2             -2.8417232044        4.4353327326       20.2189131527  TIP3      1838            0.0000000000
     27835      2031  TIP3      OH2            -2.4029833809        6.3538071462       25.0686470150  TIP3      1839            0.0000000000
     27836      2031  TIP3      H1             -2.1179981812        5.4160450452       25.1450705927  TIP3      1839            0.0000000000
     27837      2031  TIP3      H2             -1.6187562219        6.7456659623       24.6570683639  TIP3      1839            0.0000000000
     27838      2032  TIP3      OH2            -1.7747863715        6.8974649540       30.4758949857  TIP3      1840            0.0000000000
     27839      2032  TIP3      H1             -0.8146936763        7.1319498862       30.4640773864  TIP3      1840            0.0000000000
     27840      2032  TIP3      H2             -1.9601421774        7.0246435694       31.4173763932  TIP3      1840            0.0000000000
     27841      2033  TIP3      OH2            -1.7094733313        7.6214755814       33.2499253440  TIP3      1841            0.0000000000
     27842      2033  TIP3      H1             -2.5888161467        7.9084958243       33.5811307857  TIP3      1841            0.0000000000
     27843      2033  TIP3      H2             -1.2741223021        8.4818389889       33.0377520953  TIP3      1841            0.0000000000
     27844      2034  TIP3      OH2           -17.4483002077        6.1437710503       36.7679194136  TIP3      1842            0.0000000000
     27845      2034  TIP3      H1            -16.5167027846        5.9404477930       36.9861632999  TIP3      1842            0.0000000000
     27846      2034  TIP3      H2            -17.9144096994        5.3337957533       37.0726795869  TIP3      1842            0.0000000000
     27847      2035  TIP3      OH2             0.5788346998        1.6875866304       38.5944038252  TIP3      1843            0.0000000000
     27848      2035  TIP3      H1              0.9211186776        1.0101199577       37.9919939135  TIP3      1843            0.0000000000
     27849      2035  TIP3      H2              0.6657185166        2.5002337201       38.0619738483  TIP3      1843            0.0000000000
     27850      2036  TIP3      OH2            -1.7582955441        3.6392174509       25.0769444775  TIP3      1844            0.0000000000
     27851      2036  TIP3      H1             -1.4954916207        3.2374689785       25.9234632597  TIP3      1844            0.0000000000
     27852      2036  TIP3      H2             -2.3627039980        3.0046470476       24.6322933880  TIP3      1844            0.0000000000
     27853      2037  TIP3      OH2           -16.2521798970        4.4555591688       29.6469841290  TIP3      1845            0.0000000000
     27854      2037  TIP3      H1            -15.7964696941        3.6247493455       29.8991196571  TIP3      1845            0.0000000000
     27855      2037  TIP3      H2            -15.6969586054        5.1432005269       30.0360184551  TIP3      1845            0.0000000000
     27856      2038  TIP3      OH2           -17.9785704497        7.4579665894       30.6741211654  TIP3      1846            0.0000000000
     27857      2038  TIP3      H1            -17.4120238408        7.2022648604       29.9190930787  TIP3      1846            0.0000000000
     27858      2038  TIP3      H2            -17.5055315294        8.2577119450       30.9469614034  TIP3      1846            0.0000000000
     27859      2039  TIP3      OH2             0.0822391398        3.7902362601       36.9574780235  TIP3      1847            0.0000000000
     27860      2039  TIP3      H1             -0.8584024770        4.0587798911       36.9273368634  TIP3      1847            0.0000000000
     27861      2039  TIP3      H2              0.1090037823        3.2367113093       36.1615607195  TIP3      1847            0.0000000000
     27862      2040  TIP3      OH2           -17.6230268849        3.7112649585       24.7212794833  TIP3      1848            0.0000000000
     27863      2040  TIP3      H1            -18.5545142971        3.8943658738       24.6718739393  TIP3      1848            0.0000000000
     27864      2040  TIP3      H2            -17.1815012458        4.2084341255       24.0205091325  TIP3      1848            0.0000000000
     27865      2041  TIP3      OH2            -2.8763700053       18.6702849226       26.6760178135  TIP3      1849            0.0000000000
     27866      2041  TIP3      H1             -2.1758257383       18.3505341434       26.0875961925  TIP3      1849            0.0000000000
     27867      2041  TIP3      H2             -2.3724466684       19.1599033759       27.3437017116  TIP3      1849            0.0000000000
     27868      2042  TIP3      OH2           -17.6677789803        2.3651523954       33.0399483088  TIP3      1850            0.0000000000
     27869      2042  TIP3      H1            -18.3302711704        2.1731068459       33.7269521158  TIP3      1850            0.0000000000
     27870      2042  TIP3      H2            -18.1241266649        3.0421766757       32.5053261683  TIP3      1850            0.0000000000
     27871      2043  TIP3      OH2           -15.4215169708       16.0186470979       37.3803216551  TIP3      1851            0.0000000000
     27872      2043  TIP3      H1            -16.2652104926       16.0901796869       36.9010376563  TIP3      1851            0.0000000000
     27873      2043  TIP3      H2            -15.6731458179       15.7236575718       38.2695835579  TIP3      1851            0.0000000000
     27874      2044  TIP3      OH2           -12.5331186930       16.5692370819       33.5020137314  TIP3      1852            0.0000000000
     27875      2044  TIP3      H1            -12.8426164963       17.4440533150       33.2163581613  TIP3      1852            0.0000000000
     27876      2044  TIP3      H2            -11.6068439725       16.6479284699       33.1921116011  TIP3      1852            0.0000000000
     27877      2045  TIP3      OH2            -8.2073822183       17.9906334448       36.3916270195  TIP3      1853            0.0000000000
     27878      2045  TIP3      H1             -8.0756295490       17.6470037642       37.3069653160  TIP3      1853            0.0000000000
     27879      2045  TIP3      H2             -7.3021901104       18.2972142356       36.1676127669  TIP3      1853            0.0000000000
     27880      2046  TIP3      OH2            -5.9185045426       19.2646397512       35.7049187098  TIP3      1854            0.0000000000
     27881      2046  TIP3      H1             -5.1866408293       18.6775201663       35.4652915306  TIP3      1854            0.0000000000
     27882      2046  TIP3      H2             -5.5426477301       19.7039068639       36.4968954438  TIP3      1854            0.0000000000
     27883      2047  TIP3      OH2            -0.8931604440        1.8750298550       34.8027788486  TIP3      1855            0.0000000000
     27884      2047  TIP3      H1             -1.7228846625        2.1761305839       34.3951078996  TIP3      1855            0.0000000000
     27885      2047  TIP3      H2             -0.7285558708        1.0495559421       34.2918667240  TIP3      1855            0.0000000000
     27886      2048  TIP3      OH2           -15.1020257537       19.8061478337       33.4699846674  TIP3      1856            0.0000000000
     27887      2048  TIP3      H1            -15.8290152954       20.3130912754       33.0763768268  TIP3      1856            0.0000000000
     27888      2048  TIP3      H2            -15.4102820286       19.6548315960       34.3733649861  TIP3      1856            0.0000000000
     27889      2049  TIP3      OH2           -12.6319604744       19.3808776219       32.5558450456  TIP3      1857            0.0000000000
     27890      2049  TIP3      H1            -13.5242012321       19.5254364742       32.9544201063  TIP3      1857            0.0000000000
     27891      2049  TIP3      H2            -12.6865363756       19.9736267236       31.7827663645  TIP3      1857            0.0000000000
     27892      2050  TIP3      OH2            -7.9250952536       19.2917014772       31.7312841995  TIP3      1858            0.0000000000
     27893      2050  TIP3      H1             -8.3829252418       19.8499126570       31.0813754932  TIP3      1858            0.0000000000
     27894      2050  TIP3      H2             -7.7915068850       19.9312544915       32.4660816517  TIP3      1858            0.0000000000
     27895      2051  TIP3      OH2            -5.6400876863       18.1013917121       32.7610046778  TIP3      1859            0.0000000000
     27896      2051  TIP3      H1             -6.4891296223       18.3843191129       32.3833304302  TIP3      1859            0.0000000000
     27897      2051  TIP3      H2             -5.1474740165       18.9350095759       32.6659684775  TIP3      1859            0.0000000000
     27898      2052  TIP3      OH2            -3.0561652262       19.6728129483       32.9739750678  TIP3      1860            0.0000000000
     27899      2052  TIP3      H1             -3.1027343087       20.6323993615       32.7446364204  TIP3      1860            0.0000000000
     27900      2052  TIP3      H2             -2.8356537986       19.2953256914       32.0997765389  TIP3      1860            0.0000000000
     27901      2053  TIP3      OH2           -15.6353507017       18.4625201266       30.4296453141  TIP3      1861            0.0000000000
     27902      2053  TIP3      H1            -15.7199750096       17.9958313603       31.2863731801  TIP3      1861            0.0000000000
     27903      2053  TIP3      H2            -14.8237719574       18.0756192112       30.0369372815  TIP3      1861            0.0000000000
     27904      2054  TIP3      OH2           -13.5620551869       17.1698720948       29.0791025350  TIP3      1862            0.0000000000
     27905      2054  TIP3      H1            -13.7249836938       16.2349483360       29.2988047664  TIP3      1862            0.0000000000
     27906      2054  TIP3      H2            -12.7065694674       17.3234718652       29.5304047630  TIP3      1862            0.0000000000
     27907      2055  TIP3      OH2           -10.9525710116       17.6585308906       29.9585120117  TIP3      1863            0.0000000000
     27908      2055  TIP3      H1            -10.8048607404       16.7317412348       29.6949933386  TIP3      1863            0.0000000000
     27909      2055  TIP3      H2            -10.9129034694       17.5976257516       30.9241747545  TIP3      1863            0.0000000000
     27910      2056  TIP3      OH2            -7.5107177174        3.2996417141       29.0822176396  TIP3      1864            0.0000000000
     27911      2056  TIP3      H1             -8.1845277906        2.6629663181       29.3772774291  TIP3      1864            0.0000000000
     27912      2056  TIP3      H2             -6.9641594063        2.7645636996       28.4993700994  TIP3      1864            0.0000000000
     27913      2057  TIP3      OH2            -2.4079252823        1.3923670841       29.2097673026  TIP3      1865            0.0000000000
     27914      2057  TIP3      H1             -1.8300661284        2.1400066291       28.9419150435  TIP3      1865            0.0000000000
     27915      2057  TIP3      H2             -3.3223404661        1.7411638791       29.0095479523  TIP3      1865            0.0000000000
     27916      2058  TIP3      OH2            -0.5639824378        2.7925706234       27.4350804028  TIP3      1866            0.0000000000
     27917      2058  TIP3      H1              0.1473955294        2.2702491595       26.9719782220  TIP3      1866            0.0000000000
     27918      2058  TIP3      H2             -0.0655815476        3.6505977025       27.5336997792  TIP3      1866            0.0000000000
     27919      2059  TIP3      OH2           -15.1368452425        1.9285126545       26.9632916865  TIP3      1867            0.0000000000
     27920      2059  TIP3      H1            -15.9301601496        1.7293749106       26.4315853207  TIP3      1867            0.0000000000
     27921      2059  TIP3      H2            -14.6672489401        1.0740753862       26.8694551970  TIP3      1867            0.0000000000
     27922      2060  TIP3      OH2           -16.3454544617        1.6992888707       22.7398176525  TIP3      1868            0.0000000000
     27923      2060  TIP3      H1            -15.8892041646        2.2982832623       22.1347578233  TIP3      1868            0.0000000000
     27924      2060  TIP3      H2            -16.9590275685        2.2540345337       23.2418901797  TIP3      1868            0.0000000000
     27925      2061  TIP3      OH2           -10.6682628379        1.8918298755       26.7399765074  TIP3      1869            0.0000000000
     27926      2061  TIP3      H1             -9.7600634498        2.2048280069       26.6524080709  TIP3      1869            0.0000000000
     27927      2061  TIP3      H2            -10.6931982473        1.6147180891       27.6530799199  TIP3      1869            0.0000000000
     27928      2062  TIP3      OH2            -4.8692877888        1.8295350449       28.3145455970  TIP3      1870            0.0000000000
     27929      2062  TIP3      H1             -5.0638305596        2.0097277346       27.3855171111  TIP3      1870            0.0000000000
     27930      2062  TIP3      H2             -5.3547528370        0.9786916726       28.4720273902  TIP3      1870            0.0000000000
     27931      2063  TIP3      OH2            -3.7237069278        1.9145720855       24.0870521730  TIP3      1871            0.0000000000
     27932      2063  TIP3      H1             -4.4570219029        2.4968800622       23.8352879686  TIP3      1871            0.0000000000
     27933      2063  TIP3      H2             -4.1695860913        1.0476752427       24.2511675182  TIP3      1871            0.0000000000
     27934      2064  TIP3      OH2           -16.4799457036       17.7073254368       23.7345322995  TIP3      1872            0.0000000000
     27935      2064  TIP3      H1            -17.0233334516       17.5507351676       22.9309471171  TIP3      1872            0.0000000000
     27936      2064  TIP3      H2            -16.4952108153       18.6554024027       23.8281032523  TIP3      1872            0.0000000000
     27937      2065  TIP3      OH2            -9.5429817707        3.9346298472       23.6035991781  TIP3      1873            0.0000000000
     27938      2065  TIP3      H1             -9.2812664395        3.3204074785       24.3099143007  TIP3      1873            0.0000000000
     27939      2065  TIP3      H2             -9.4365062037        4.7848900335       24.0741385049  TIP3      1873            0.0000000000
     27940      2066  TIP3      OH2            -0.9693742862       18.4328885257       24.7121433406  TIP3      1874            0.0000000000
     27941      2066  TIP3      H1             -1.0329939802       17.6629474603       24.1348448915  TIP3      1874            0.0000000000
     27942      2066  TIP3      H2             -0.9087451490       19.1978381193       24.1269209104  TIP3      1874            0.0000000000
     27943      2067  TIP3      OH2           -15.2585465949        2.4660369092       36.3926335360  TIP3      1875            0.0000000000
     27944      2067  TIP3      H1            -15.6505061087        1.6687568738       36.7994225997  TIP3      1875            0.0000000000
     27945      2067  TIP3      H2            -14.3475240155        2.4215257350       36.7662119636  TIP3      1875            0.0000000000
     27946      2068  TIP3      OH2           -13.2562106083        1.8695991710       38.0513939617  TIP3      1876            0.0000000000
     27947      2068  TIP3      H1            -12.3787862711        1.5168682523       37.7983046224  TIP3      1876            0.0000000000
     27948      2068  TIP3      H2            -13.6293227334        1.0607969954       38.4562389280  TIP3      1876            0.0000000000
     27949      2069  TIP3      OH2            -4.8452063171        1.1454809095       38.1910880451  TIP3      1877            0.0000000000
     27950      2069  TIP3      H1             -4.7496894749        0.6623329598       39.0332772286  TIP3      1877            0.0000000000
     27951      2069  TIP3      H2             -3.9300702305        1.1094042782       37.8419668859  TIP3      1877            0.0000000000
     27952      2070  TIP3      OH2            -1.6450394638       17.1896780435       36.8535357734  TIP3      1878            0.0000000000
     27953      2070  TIP3      H1             -2.4309452266       17.0536554610       36.2767687545  TIP3      1878            0.0000000000
     27954      2070  TIP3      H2             -1.7462728012       18.1455725923       37.0286237468  TIP3      1878            0.0000000000
     27955      2071  TIP3      OH2            12.8129627907       11.0791684969       26.7896094338  TIP3      1879            0.0000000000
     27956      2071  TIP3      H1             12.8107897686       12.0594876354       26.7489241949  TIP3      1879            0.0000000000
     27957      2071  TIP3      H2             12.1015176782       10.8461618371       26.1707770619  TIP3      1879            0.0000000000
     27958      2072  TIP3      OH2            11.6629521780       10.3222978888       30.3015345793  TIP3      1880            0.0000000000
     27959      2072  TIP3      H1             11.6516380561        9.6722504098       31.0170377786  TIP3      1880            0.0000000000
     27960      2072  TIP3      H2             11.3114503735        9.8121563322       29.5509305828  TIP3      1880            0.0000000000
     27961      2073  TIP3      OH2             4.0140580094       10.0013003216       31.8501498005  TIP3      1881            0.0000000000
     27962      2073  TIP3      H1              4.0980595464        9.3141157401       32.5437658964  TIP3      1881            0.0000000000
     27963      2073  TIP3      H2              4.7641927358       10.5710391988       32.0743303675  TIP3      1881            0.0000000000
     27964      2074  TIP3      OH2            15.3503908878       13.2514202228       28.5912650851  TIP3      1882            0.0000000000
     27965      2074  TIP3      H1             14.9340482357       12.5516232058       29.1007937579  TIP3      1882            0.0000000000
     27966      2074  TIP3      H2             15.3749417728       13.9858287576       29.2290079636  TIP3      1882            0.0000000000
     27967      2075  TIP3      OH2             4.9385216613       14.4501134975       30.3444086999  TIP3      1883            0.0000000000
     27968      2075  TIP3      H1              4.6292871466       13.5806041008       30.0236107758  TIP3      1883            0.0000000000
     27969      2075  TIP3      H2              5.8941198346       14.2673240737       30.3931605714  TIP3      1883            0.0000000000
     27970      2076  TIP3      OH2             1.5943545756        8.0446424656       25.8119171912  TIP3      1884            0.0000000000
     27971      2076  TIP3      H1              1.1235129271        8.8962301395       25.7691781424  TIP3      1884            0.0000000000
     27972      2076  TIP3      H2              1.0224821276        7.4787175801       25.2724935195  TIP3      1884            0.0000000000
     27973      2077  TIP3      OH2             2.2922451427       10.2233090615       27.9809947579  TIP3      1885            0.0000000000
     27974      2077  TIP3      H1              2.5622600876        9.3998717938       28.4354015536  TIP3      1885            0.0000000000
     27975      2077  TIP3      H2              2.9978220655       10.3353137094       27.3259485012  TIP3      1885            0.0000000000
     27976      2078  TIP3      OH2            12.4690034803       18.4227822740       28.8127308713  TIP3      1886            0.0000000000
     27977      2078  TIP3      H1             13.1164044274       17.7342199025       28.5368968231  TIP3      1886            0.0000000000
     27978      2078  TIP3      H2             12.2506138279       18.1026223443       29.6907950637  TIP3      1886            0.0000000000
     27979      2079  TIP3      OH2            10.0363454063       12.7255137968       30.7587597589  TIP3      1887            0.0000000000
     27980      2079  TIP3      H1             10.3704269386       12.0922571267       30.1069170398  TIP3      1887            0.0000000000
     27981      2079  TIP3      H2             10.8497091413       12.8873631374       31.2621290534  TIP3      1887            0.0000000000
     27982      2080  TIP3      OH2            18.6271975844        4.3896441647       31.4906784200  TIP3      1888            0.0000000000
     27983      2080  TIP3      H1             18.8134022156        4.9708299332       32.2603334748  TIP3      1888            0.0000000000
     27984      2080  TIP3      H2             19.2024894515        4.8043755579       30.8322377416  TIP3      1888            0.0000000000
     27985      2081  TIP3      OH2            13.2009119169        7.1930398157       31.0875419587  TIP3      1889            0.0000000000
     27986      2081  TIP3      H1             13.3739364624        6.2344549448       31.0946423928  TIP3      1889            0.0000000000
     27987      2081  TIP3      H2             13.1015805016        7.3304643407       30.1263325581  TIP3      1889            0.0000000000
     27988      2082  TIP3      OH2             6.3038164790        5.2821077520       28.2934880476  TIP3      1890            0.0000000000
     27989      2082  TIP3      H1              6.4268011703        6.1162763083       27.8001364716  TIP3      1890            0.0000000000
     27990      2082  TIP3      H2              5.9207913830        4.7089865499       27.5944463523  TIP3      1890            0.0000000000
     27991      2083  TIP3      OH2            14.0527561500        5.3627597095       26.6760469619  TIP3      1891            0.0000000000
     27992      2083  TIP3      H1             14.7097756545        5.0425541132       27.3393866744  TIP3      1891            0.0000000000
     27993      2083  TIP3      H2             14.6189716901        5.9291228406       26.1280767004  TIP3      1891            0.0000000000
     27994      2084  TIP3      OH2             2.9392351111        7.6862838112       29.0279928921  TIP3      1892            0.0000000000
     27995      2084  TIP3      H1              3.6115184433        7.1504687217       29.4877625600  TIP3      1892            0.0000000000
     27996      2084  TIP3      H2              3.0406901336        7.3624622275       28.1190023017  TIP3      1892            0.0000000000
     27997      2085  TIP3      OH2             8.0941622494        9.2437702750       28.3749940303  TIP3      1893            0.0000000000
     27998      2085  TIP3      H1              8.7775641677        8.6634064649       28.7493123971  TIP3      1893            0.0000000000
     27999      2085  TIP3      H2              7.5837106992        8.5883210233       27.8570840843  TIP3      1893            0.0000000000
     28000      2086  TIP3      OH2            19.0735061334        5.7873312688       33.7676184148  TIP3      1894            0.0000000000
     28001      2086  TIP3      H1             18.4719947230        6.5571907043       33.6593569819  TIP3      1894            0.0000000000
     28002      2086  TIP3      H2             19.1084870803        5.7103756637       34.7304387540  TIP3      1894            0.0000000000
     28003      2087  TIP3      OH2             5.2294212459        4.1804693456       32.3384948863  TIP3      1895            0.0000000000
     28004      2087  TIP3      H1              4.9473008981        4.7532029237       31.5930902102  TIP3      1895            0.0000000000
     28005      2087  TIP3      H2              4.5548039772        4.4105401566       33.0223540145  TIP3      1895            0.0000000000
     28006      2088  TIP3      OH2            12.5247168326       13.6901699624       25.8956275820  TIP3      1896            0.0000000000
     28007      2088  TIP3      H1             12.2584441563       13.4053478140       25.0059559815  TIP3      1896            0.0000000000
     28008      2088  TIP3      H2             12.1857525247       14.6014528837       25.9523647557  TIP3      1896            0.0000000000
     28009      2089  TIP3      OH2             7.7351826393       11.8190208146       32.5749520558  TIP3      1897            0.0000000000
     28010      2089  TIP3      H1              7.0335870364       12.4660779397       32.8006384653  TIP3      1897            0.0000000000
     28011      2089  TIP3      H2              8.4401775062       12.4172843456       32.2806494726  TIP3      1897            0.0000000000
     28012      2090  TIP3      OH2            15.8693125706        4.7095537415       28.6638673235  TIP3      1898            0.0000000000
     28013      2090  TIP3      H1             15.6437842996        3.9428493457       29.1976546418  TIP3      1898            0.0000000000
     28014      2090  TIP3      H2             16.5405874677        5.1431299166       29.2176218119  TIP3      1898            0.0000000000
     28015      2091  TIP3      OH2             4.7978544897        6.0333702713       30.3780746396  TIP3      1899            0.0000000000
     28016      2091  TIP3      H1              5.4264254986        6.7244006363       30.6825196698  TIP3      1899            0.0000000000
     28017      2091  TIP3      H2              5.3104958264        5.6259518495       29.6354654122  TIP3      1899            0.0000000000
     28018      2092  TIP3      OH2             6.1866005027       13.8347778049       33.3947269553  TIP3      1900            0.0000000000
     28019      2092  TIP3      H1              6.1375550615       14.7469787360       33.0546775003  TIP3      1900            0.0000000000
     28020      2092  TIP3      H2              5.3010459308       13.7532108264       33.8332145900  TIP3      1900            0.0000000000
     28021      2093  TIP3      OH2            15.8778711644       15.1137842737       30.9561404283  TIP3      1901            0.0000000000
     28022      2093  TIP3      H1             14.9075178254       15.2231879338       31.0664666906  TIP3      1901            0.0000000000
     28023      2093  TIP3      H2             16.1449812974       16.0270316455       30.7446050585  TIP3      1901            0.0000000000
     28024      2094  TIP3      OH2            16.1985133006        3.3931265962       32.3384492352  TIP3      1902            0.0000000000
     28025      2094  TIP3      H1             15.4759531169        4.0270023072       32.2423741926  TIP3      1902            0.0000000000
     28026      2094  TIP3      H2             16.9150119972        3.8106464089       31.8163166445  TIP3      1902            0.0000000000
     28027      2095  TIP3      OH2             9.1609854831        1.5162843570       29.8038465455  TIP3      1903            0.0000000000
     28028      2095  TIP3      H1              9.0216355395        0.5527365208       29.7259773200  TIP3      1903            0.0000000000
     28029      2095  TIP3      H2              8.2822846619        1.8189992220       30.1119057682  TIP3      1903            0.0000000000
     28030      2096  TIP3      OH2            14.1171658055       16.8966189149       27.4887797229  TIP3      1904            0.0000000000
     28031      2096  TIP3      H1             14.5857120795       16.1534820522       27.0870347253  TIP3      1904            0.0000000000
     28032      2096  TIP3      H2             14.5935589507       17.6881531375       27.1673311520  TIP3      1904            0.0000000000
     28033      2097  TIP3      OH2            16.9118803707       13.4150748443       34.5398438131  TIP3      1905            0.0000000000
     28034      2097  TIP3      H1             17.1297854050       12.7641128509       33.8348481969  TIP3      1905            0.0000000000
     28035      2097  TIP3      H2             17.1883259352       14.2487017204       34.1103989130  TIP3      1905            0.0000000000
     28036      2098  TIP3      OH2            11.4725263354       10.3252221959       24.3282940212  TIP3      1906            0.0000000000
     28037      2098  TIP3      H1             10.7736129171       10.8775364697       23.9349295975  TIP3      1906            0.0000000000
     28038      2098  TIP3      H2             12.1630893450       10.3907047635       23.6384925956  TIP3      1906            0.0000000000
     28039      2099  TIP3      OH2            18.8514755231        9.7300624171       32.5901024379  TIP3      1907            0.0000000000
     28040      2099  TIP3      H1             18.1962198755       10.4546898260       32.6273627255  TIP3      1907            0.0000000000
     28041      2099  TIP3      H2             19.3506584619        9.9644391683       31.7863524382  TIP3      1907            0.0000000000
     28042      2100  TIP3      OH2            14.9393882872       10.4748146813       25.2597806178  TIP3      1908            0.0000000000
     28043      2100  TIP3      H1             14.1916889129       10.7727885754       25.8262060551  TIP3      1908            0.0000000000
     28044      2100  TIP3      H2             15.4100960173        9.8331799873       25.8081064650  TIP3      1908            0.0000000000
     28045      2101  TIP3      OH2            14.8322777651        8.6861112236       34.3708294066  TIP3      1909            0.0000000000
     28046      2101  TIP3      H1             14.8522786048        9.5110957068       34.8704441996  TIP3      1909            0.0000000000
     28047      2101  TIP3      H2             14.2184570382        8.9569491808       33.6544867135  TIP3      1909            0.0000000000
     28048      2102  TIP3      OH2             6.5286442775       11.1825586264       27.1463471764  TIP3      1910            0.0000000000
     28049      2102  TIP3      H1              6.2153631625       10.7924077287       26.2962641000  TIP3      1910            0.0000000000
     28050      2102  TIP3      H2              7.1350122712       10.4857664008       27.4847268033  TIP3      1910            0.0000000000
     28051      2103  TIP3      OH2             7.8399838326       14.5548500933       29.8287626894  TIP3      1911            0.0000000000
     28052      2103  TIP3      H1              7.8394908847       14.0337763946       29.0167973591  TIP3      1911            0.0000000000
     28053      2103  TIP3      H2              8.6236442046       14.2006716113       30.2882163455  TIP3      1911            0.0000000000
     28054      2104  TIP3      OH2             6.8475741251        9.9194555126       30.8163140654  TIP3      1912            0.0000000000
     28055      2104  TIP3      H1              7.3954060458       10.0161457411       30.0119958388  TIP3      1912            0.0000000000
     28056      2104  TIP3      H2              7.2398187510       10.5864216798       31.4221476192  TIP3      1912            0.0000000000
     28057      2105  TIP3      OH2            13.2850583506       15.5108254939       31.4976543858  TIP3      1913            0.0000000000
     28058      2105  TIP3      H1             12.9916113866       16.1422748233       32.1637916817  TIP3      1913            0.0000000000
     28059      2105  TIP3      H2             13.0317428031       14.6518125338       31.9052984423  TIP3      1913            0.0000000000
     28060      2106  TIP3      OH2             7.8165985575       14.3510110138       35.5106132515  TIP3      1914            0.0000000000
     28061      2106  TIP3      H1              7.3832592857       15.0870311475       35.9971076157  TIP3      1914            0.0000000000
     28062      2106  TIP3      H2              7.1396109009       14.1502230779       34.8164150213  TIP3      1914            0.0000000000
     28063      2107  TIP3      OH2            13.8144740885        9.7226023347       22.9527355036  TIP3      1915            0.0000000000
     28064      2107  TIP3      H1             14.3568495059        9.9400097873       23.7492347878  TIP3      1915            0.0000000000
     28065      2107  TIP3      H2             14.1584344356       10.2786793591       22.2397428140  TIP3      1915            0.0000000000
     28066      2108  TIP3      OH2             4.7501788962       10.5139706732       34.6556273764  TIP3      1916            0.0000000000
     28067      2108  TIP3      H1              4.8008301132       11.1783665521       35.3674785316  TIP3      1916            0.0000000000
     28068      2108  TIP3      H2              3.8052920925       10.5969205422       34.4573182010  TIP3      1916            0.0000000000
     28069      2109  TIP3      OH2            11.5552285128       16.4978906394       26.2977736558  TIP3      1917            0.0000000000
     28070      2109  TIP3      H1             11.9165964509       16.7208419938       27.1702450390  TIP3      1917            0.0000000000
     28071      2109  TIP3      H2             10.8777828995       17.1656609716       26.1901329195  TIP3      1917            0.0000000000
     28072      2110  TIP3      OH2             6.0550318330       16.3819115401       36.2541352542  TIP3      1918            0.0000000000
     28073      2110  TIP3      H1              5.9882629130       16.2879365502       35.2887251783  TIP3      1918            0.0000000000
     28074      2110  TIP3      H2              5.1259063324       16.2508637790       36.5262369733  TIP3      1918            0.0000000000
     28075      2111  TIP3      OH2             5.4897399518       10.1716864247       24.7865724219  TIP3      1919            0.0000000000
     28076      2111  TIP3      H1              5.2320749681       10.9553010651       24.2456792974  TIP3      1919            0.0000000000
     28077      2111  TIP3      H2              4.8074553339        9.5425128553       24.5448215264  TIP3      1919            0.0000000000
     28078      2112  TIP3      OH2             1.5710207084       12.6288790941       33.6805279203  TIP3      1920            0.0000000000
     28079      2112  TIP3      H1              1.1372774421       12.5477345727       32.8095855682  TIP3      1920            0.0000000000
     28080      2112  TIP3      H2              1.6660962018       11.6785598904       33.8853681458  TIP3      1920            0.0000000000
     28081      2113  TIP3      OH2             1.3359126862       15.3687124636       30.4509505715  TIP3      1921            0.0000000000
     28082      2113  TIP3      H1              2.2938696600       15.2503717110       30.4119954372  TIP3      1921            0.0000000000
     28083      2113  TIP3      H2              1.2626647048       16.1898590145       30.9511141931  TIP3      1921            0.0000000000
     28084      2114  TIP3      OH2            19.5615344000       16.0480010321       36.1009541480  TIP3      1922            0.0000000000
     28085      2114  TIP3      H1             19.4498160342       15.0855745684       36.1128266214  TIP3      1922            0.0000000000
     28086      2114  TIP3      H2             18.7144296590       16.3082638519       36.5361081795  TIP3      1922            0.0000000000
     28087      2115  TIP3      OH2            10.5612905848       15.5665369042       35.0624422949  TIP3      1923            0.0000000000
     28088      2115  TIP3      H1             10.5924128379       16.4487913624       35.5080548947  TIP3      1923            0.0000000000
     28089      2115  TIP3      H2              9.6419783071       15.2706250740       35.2251339735  TIP3      1923            0.0000000000
     28090      2116  TIP3      OH2             4.6115683798       18.2172985941       26.6089023009  TIP3      1924            0.0000000000
     28091      2116  TIP3      H1              4.7598310653       17.7948101152       27.4807884506  TIP3      1924            0.0000000000
     28092      2116  TIP3      H2              3.7668320174       17.8045294201       26.3618456844  TIP3      1924            0.0000000000
     28093      2117  TIP3      OH2            13.6725785563       18.5660168579       24.5878638405  TIP3      1925            0.0000000000
     28094      2117  TIP3      H1             12.7383842081       18.5028018153       24.7794123771  TIP3      1925            0.0000000000
     28095      2117  TIP3      H2             14.0044978379       17.8152353690       25.1128800566  TIP3      1925            0.0000000000
     28096      2118  TIP3      OH2            16.7238239921        7.5290339392       36.5832513985  TIP3      1926            0.0000000000
     28097      2118  TIP3      H1             16.2640195231        7.9723329076       35.8576146939  TIP3      1926            0.0000000000
     28098      2118  TIP3      H2             16.7087020150        6.6056171253       36.2923775997  TIP3      1926            0.0000000000
     28099      2119  TIP3      OH2             3.8684779681       13.9415409788       34.6090784894  TIP3      1927            0.0000000000
     28100      2119  TIP3      H1              4.0866946160       13.5734749773       35.4937853534  TIP3      1927            0.0000000000
     28101      2119  TIP3      H2              3.0000892869       13.5461811220       34.3873459355  TIP3      1927            0.0000000000
     28102      2120  TIP3      OH2             6.5498176823        2.4258816108       30.5439570869  TIP3      1928            0.0000000000
     28103      2120  TIP3      H1              5.6456732267        2.2915179206       30.1869335434  TIP3      1928            0.0000000000
     28104      2120  TIP3      H2              6.4125393692        3.2482736654       31.0426223718  TIP3      1928            0.0000000000
     28105      2121  TIP3      OH2            11.1931165222        2.0813984459       33.9108878351  TIP3      1929            0.0000000000
     28106      2121  TIP3      H1             11.5867263066        1.6582989089       34.6970277822  TIP3      1929            0.0000000000
     28107      2121  TIP3      H2             10.2217611373        1.9655502284       34.0572452406  TIP3      1929            0.0000000000
     28108      2122  TIP3      OH2            14.4784212617        5.9393626606       34.7996379093  TIP3      1930            0.0000000000
     28109      2122  TIP3      H1             13.9204868490        5.7130514311       35.5853771302  TIP3      1930            0.0000000000
     28110      2122  TIP3      H2             14.2915242723        6.8702205581       34.5924736844  TIP3      1930            0.0000000000
     28111      2123  TIP3      OH2             6.6532246758        7.4004535574       31.8186987635  TIP3      1931            0.0000000000
     28112      2123  TIP3      H1              5.9123131150        7.3835005479       32.4506203624  TIP3      1931            0.0000000000
     28113      2123  TIP3      H2              6.5829611436        8.3005688476       31.4284268302  TIP3      1931            0.0000000000
     28114      2124  TIP3      OH2             6.6078054167        7.4827401152       26.6865876300  TIP3      1932            0.0000000000
     28115      2124  TIP3      H1              5.6664355924        7.2582332463       26.5281732691  TIP3      1932            0.0000000000
     28116      2124  TIP3      H2              6.9903891685        7.2060079250       25.8289896903  TIP3      1932            0.0000000000
     28117      2125  TIP3      OH2            12.0859365972        7.9642263907       25.3957468520  TIP3      1933            0.0000000000
     28118      2125  TIP3      H1             11.7431667477        8.8421431639       25.1053472562  TIP3      1933            0.0000000000
     28119      2125  TIP3      H2             12.8447491046        7.8318516951       24.8033798600  TIP3      1933            0.0000000000
     28120      2126  TIP3      OH2            11.1827206833        8.2442366606       36.8987278444  TIP3      1934            0.0000000000
     28121      2126  TIP3      H1             10.6650501058        7.4440161163       37.1674177365  TIP3      1934            0.0000000000
     28122      2126  TIP3      H2             12.0242948977        8.0794486864       37.3571156722  TIP3      1934            0.0000000000
     28123      2127  TIP3      OH2            13.1671787202        7.5099390489       28.2747920798  TIP3      1935            0.0000000000
     28124      2127  TIP3      H1             12.8905695439        8.0679809778       27.5286242433  TIP3      1935            0.0000000000
     28125      2127  TIP3      H2             13.2618339771        6.6551031193       27.8116551440  TIP3      1935            0.0000000000
     28126      2128  TIP3      OH2             4.2734554517        7.6363182799       33.4857569753  TIP3      1936            0.0000000000
     28127      2128  TIP3      H1              4.3600016691        8.0471184391       34.3632763218  TIP3      1936            0.0000000000
     28128      2128  TIP3      H2              3.8323792206        6.7994475143       33.7036658506  TIP3      1936            0.0000000000
     28129      2129  TIP3      OH2             7.6872453791        5.0610199223       20.3532663466  TIP3      1937            0.0000000000
     28130      2129  TIP3      H1              7.2165638514        4.6280009661       21.0933740673  TIP3      1937            0.0000000000
     28131      2129  TIP3      H2              6.9628725403        5.3696811120       19.8002937074  TIP3      1937            0.0000000000
     28132      2130  TIP3      OH2             0.9916211839        4.8042090289       27.4442689590  TIP3      1938            0.0000000000
     28133      2130  TIP3      H1              1.6467155350        4.7197283926       28.1665087154  TIP3      1938            0.0000000000
     28134      2130  TIP3      H2              1.4184806615        4.3926431726       26.6655354948  TIP3      1938            0.0000000000
     28135      2131  TIP3      OH2             2.2491060651        5.5603918375       22.9177509851  TIP3      1939            0.0000000000
     28136      2131  TIP3      H1              2.6864140946        6.0828982786       22.2456541211  TIP3      1939            0.0000000000
     28137      2131  TIP3      H2              1.4834705344        6.1192073258       23.1452993083  TIP3      1939            0.0000000000
     28138      2132  TIP3      OH2            12.3883509940        9.0948188221       32.8768625273  TIP3      1940            0.0000000000
     28139      2132  TIP3      H1             12.7451288805        8.4189330889       32.2625919484  TIP3      1940            0.0000000000
     28140      2132  TIP3      H2             11.8862086875        8.5407237806       33.5013130069  TIP3      1940            0.0000000000
     28141      2133  TIP3      OH2             9.1585651863        5.0708669851       27.6921176280  TIP3      1941            0.0000000000
     28142      2133  TIP3      H1              8.2227662232        5.0687369114       27.9841769819  TIP3      1941            0.0000000000
     28143      2133  TIP3      H2              9.6453025687        4.8907977178       28.5099139120  TIP3      1941            0.0000000000
     28144      2134  TIP3      OH2             3.9694784800        6.6168640737       26.5250768763  TIP3      1942            0.0000000000
     28145      2134  TIP3      H1              3.0747317965        6.7367573586       26.1409105721  TIP3      1942            0.0000000000
     28146      2134  TIP3      H2              4.2312872195        5.7442370034       26.1780471388  TIP3      1942            0.0000000000
     28147      2135  TIP3      OH2             7.5945530760        6.6997246894       24.1691254145  TIP3      1943            0.0000000000
     28148      2135  TIP3      H1              8.5545880223        6.7438817270       24.3484393764  TIP3      1943            0.0000000000
     28149      2135  TIP3      H2              7.4427848977        7.3842878538       23.5088504976  TIP3      1943            0.0000000000
     28150      2136  TIP3      OH2            13.5677371849        4.2998658831       30.9205472274  TIP3      1944            0.0000000000
     28151      2136  TIP3      H1             12.8871770654        4.3414930697       31.6291908672  TIP3      1944            0.0000000000
     28152      2136  TIP3      H2             13.0599193867        4.0388750106       30.1382032849  TIP3      1944            0.0000000000
     28153      2137  TIP3      OH2            16.7530317058       19.9343745940       37.2786061377  TIP3      1945            0.0000000000
     28154      2137  TIP3      H1             17.0401341842       20.3009063274       36.4211321043  TIP3      1945            0.0000000000
     28155      2137  TIP3      H2             17.4674435495       20.2443605580       37.8488143707  TIP3      1945            0.0000000000
     28156      2138  TIP3      OH2             4.4552205096       12.3985799367       36.8325097241  TIP3      1946            0.0000000000
     28157      2138  TIP3      H1              5.1550269866       12.6482944408       37.4599097907  TIP3      1946            0.0000000000
     28158      2138  TIP3      H2              3.6683517594       12.4773865765       37.4088689587  TIP3      1946            0.0000000000
     28159      2139  TIP3      OH2            10.4459606987        7.8198755145       29.5732245265  TIP3      1947            0.0000000000
     28160      2139  TIP3      H1             11.0446436239        7.2847933754       29.0392253091  TIP3      1947            0.0000000000
     28161      2139  TIP3      H2             10.2980858141        7.2679801794       30.3523108312  TIP3      1947            0.0000000000
     28162      2140  TIP3      OH2             5.4606789381        3.9767227680       25.9908902406  TIP3      1948            0.0000000000
     28163      2140  TIP3      H1              5.1294361909        3.0602862087       26.0032668407  TIP3      1948            0.0000000000
     28164      2140  TIP3      H2              6.2326662355        3.8739936383       25.4201307367  TIP3      1948            0.0000000000
     28165      2141  TIP3      OH2             9.0850950932        6.1466006666       31.9847869017  TIP3      1949            0.0000000000
     28166      2141  TIP3      H1              8.2612176553        6.6652015291       32.0723162568  TIP3      1949            0.0000000000
     28167      2141  TIP3      H2              9.6421221170        6.4982259833       32.7056351802  TIP3      1949            0.0000000000
     28168      2142  TIP3      OH2             9.6441736624       12.3875284668       23.6870236558  TIP3      1950            0.0000000000
     28169      2142  TIP3      H1              8.8860941480       11.8967607022       23.3493389844  TIP3      1950            0.0000000000
     28170      2142  TIP3      H2              9.4551485550       12.4876206511       24.6348384391  TIP3      1950            0.0000000000
     28171      2143  TIP3      OH2            16.8648663098       11.5774783344       32.4766102512  TIP3      1951            0.0000000000
     28172      2143  TIP3      H1             17.4293901647       12.0608131236       31.8451965406  TIP3      1951            0.0000000000
     28173      2143  TIP3      H2             16.0160622035       11.6105809710       31.9914794833  TIP3      1951            0.0000000000
     28174      2144  TIP3      OH2            11.2450742808       12.6630534514       35.0303931887  TIP3      1952            0.0000000000
     28175      2144  TIP3      H1             10.6307357338       12.1858931055       35.6052173987  TIP3      1952            0.0000000000
     28176      2144  TIP3      H2             10.8418080670       13.5482386663       34.9492740409  TIP3      1952            0.0000000000
     28177      2145  TIP3      OH2            14.2446088761        7.0556112220       23.5425045041  TIP3      1953            0.0000000000
     28178      2145  TIP3      H1             15.1457756954        6.9275619282       23.8978659081  TIP3      1953            0.0000000000
     28179      2145  TIP3      H2             14.3287972602        7.8785306912       23.0370203529  TIP3      1953            0.0000000000
     28180      2146  TIP3      OH2             4.7975226379       11.7627779028       29.4951008460  TIP3      1954            0.0000000000
     28181      2146  TIP3      H1              5.4646777001       11.6777099820       28.7870542802  TIP3      1954            0.0000000000
     28182      2146  TIP3      H2              4.8465539007       10.9016036970       29.9430429303  TIP3      1954            0.0000000000
     28183      2147  TIP3      OH2            11.8145851743       13.8873838396       22.8453757684  TIP3      1955            0.0000000000
     28184      2147  TIP3      H1             11.3625075612       14.6819564279       23.0919749247  TIP3      1955            0.0000000000
     28185      2147  TIP3      H2             11.0981061291       13.2118902634       22.8495554388  TIP3      1955            0.0000000000
     28186      2148  TIP3      OH2             1.7740301915       10.1651765448       34.7513387249  TIP3      1956            0.0000000000
     28187      2148  TIP3      H1              1.9405450377        9.7177824651       35.6031034350  TIP3      1956            0.0000000000
     28188      2148  TIP3      H2              1.1550813903        9.5576650506       34.3051527504  TIP3      1956            0.0000000000
     28189      2149  TIP3      OH2             8.8080310678        9.7484383285       36.9038949220  TIP3      1957            0.0000000000
     28190      2149  TIP3      H1              8.4496322765        9.3999232816       36.0723102673  TIP3      1957            0.0000000000
     28191      2149  TIP3      H2              9.7052197508        9.3618104908       36.9147682793  TIP3      1957            0.0000000000
     28192      2150  TIP3      OH2            13.4321831526       14.9531028222       34.9469745991  TIP3      1958            0.0000000000
     28193      2150  TIP3      H1             12.5650600873       15.2712540577       34.6307323119  TIP3      1958            0.0000000000
     28194      2150  TIP3      H2             13.4478996093       15.4194282852       35.8097984097  TIP3      1958            0.0000000000
     28195      2151  TIP3      OH2            19.1387377284        7.2610462051       23.2919287805  TIP3      1959            0.0000000000
     28196      2151  TIP3      H1             18.5744360930        6.9543244203       22.5473836646  TIP3      1959            0.0000000000
     28197      2151  TIP3      H2             19.2267418808        8.1969325703       23.0230767752  TIP3      1959            0.0000000000
     28198      2152  TIP3      OH2            19.1349467360       13.0919589764       36.0566536793  TIP3      1960            0.0000000000
     28199      2152  TIP3      H1             18.2485431318       13.3312950400       35.7009829226  TIP3      1960            0.0000000000
     28200      2152  TIP3      H2             19.6787593273       13.0460263834       35.2438983571  TIP3      1960            0.0000000000
     28201      2153  TIP3      OH2            14.6388204528       10.8781861155       30.7825851313  TIP3      1961            0.0000000000
     28202      2153  TIP3      H1             13.6997827705       10.6847244715       30.6411928323  TIP3      1961            0.0000000000
     28203      2153  TIP3      H2             15.0721648097       10.1364760879       30.3193926146  TIP3      1961            0.0000000000
     28204      2154  TIP3      OH2             7.1555163688       15.2070894532       26.8442070753  TIP3      1962            0.0000000000
     28205      2154  TIP3      H1              7.6249958853       16.0357672939       26.6636420412  TIP3      1962            0.0000000000
     28206      2154  TIP3      H2              6.2702631154       15.4354807768       26.5183438038  TIP3      1962            0.0000000000
     28207      2155  TIP3      OH2             8.5844779380       12.8935715179       26.3749087744  TIP3      1963            0.0000000000
     28208      2155  TIP3      H1              8.2579747287       13.8074406787       26.4877947334  TIP3      1963            0.0000000000
     28209      2155  TIP3      H2              7.8686691861       12.3916760344       26.8157383331  TIP3      1963            0.0000000000
     28210      2156  TIP3      OH2             9.0239557498       17.0669123032       32.8036152214  TIP3      1964            0.0000000000
     28211      2156  TIP3      H1              9.4831837544       17.8700063106       32.5121008073  TIP3      1964            0.0000000000
     28212      2156  TIP3      H2              9.6421820041       16.7266305125       33.4717050510  TIP3      1964            0.0000000000
     28213      2157  TIP3      OH2             7.2777663413       17.8439002200       25.9523771254  TIP3      1965            0.0000000000
     28214      2157  TIP3      H1              6.3017119859       17.9835743503       26.0269521487  TIP3      1965            0.0000000000
     28215      2157  TIP3      H2              7.6033346062       18.7008601429       26.2816912501  TIP3      1965            0.0000000000
     28216      2158  TIP3      OH2            12.5632209997       13.0804375199       32.4261030448  TIP3      1966            0.0000000000
     28217      2158  TIP3      H1             12.2108430800       12.8564401894       33.3044357881  TIP3      1966            0.0000000000
     28218      2158  TIP3      H2             13.1779688836       12.3535307459       32.2213711918  TIP3      1966            0.0000000000
     28219      2159  TIP3      OH2            15.3734585560       17.6526526480       34.9027417980  TIP3      1967            0.0000000000
     28220      2159  TIP3      H1             14.6809829301       17.1762268810       34.4100991127  TIP3      1967            0.0000000000
     28221      2159  TIP3      H2             15.5555665271       18.3543989297       34.2415361577  TIP3      1967            0.0000000000
     28222      2160  TIP3      OH2             3.4266486377        4.9082024804       34.3062604270  TIP3      1968            0.0000000000
     28223      2160  TIP3      H1              2.5178769767        5.2533294192       34.2755832979  TIP3      1968            0.0000000000
     28224      2160  TIP3      H2              3.3134557946        4.0578072625       34.7594570735  TIP3      1968            0.0000000000
     28225      2161  TIP3      OH2             3.0408411934       16.6792326521       32.7211427218  TIP3      1969            0.0000000000
     28226      2161  TIP3      H1              3.3467929242       15.7609939266       32.7274287830  TIP3      1969            0.0000000000
     28227      2161  TIP3      H2              3.2997538515       16.9751298019       33.5998516716  TIP3      1969            0.0000000000
     28228      2162  TIP3      OH2             7.8523594660       14.7330504263       22.3943006248  TIP3      1970            0.0000000000
     28229      2162  TIP3      H1              8.0122945916       14.2346845102       23.1974077589  TIP3      1970            0.0000000000
     28230      2162  TIP3      H2              7.7981598423       15.6611931966       22.6988787345  TIP3      1970            0.0000000000
     28231      2163  TIP3      OH2             4.3581742106       11.9635342125       23.0226637509  TIP3      1971            0.0000000000
     28232      2163  TIP3      H1              3.5911006782       12.4084211739       23.4073573795  TIP3      1971            0.0000000000
     28233      2163  TIP3      H2              4.8079749749       12.7260527413       22.6304837277  TIP3      1971            0.0000000000
     28234      2164  TIP3      OH2            12.1573379154        4.6742670980       33.2625333884  TIP3      1972            0.0000000000
     28235      2164  TIP3      H1             12.8749885768        4.7349287602       33.9026466604  TIP3      1972            0.0000000000
     28236      2164  TIP3      H2             11.7748716475        3.7979346994       33.4679704412  TIP3      1972            0.0000000000
     28237      2165  TIP3      OH2            12.9291550732        4.2694412765       24.2720635412  TIP3      1973            0.0000000000
     28238      2165  TIP3      H1             13.1734439945        4.8168363041       23.5240409520  TIP3      1973            0.0000000000
     28239      2165  TIP3      H2             13.4631808058        4.6637025941       24.9855866478  TIP3      1973            0.0000000000
     28240      2166  TIP3      OH2            10.1270914589        6.0137946112       25.1548691651  TIP3      1974            0.0000000000
     28241      2166  TIP3      H1             10.9238708707        6.5798704112       25.2330086932  TIP3      1974            0.0000000000
     28242      2166  TIP3      H2              9.8644285845        5.8544448496       26.0856280690  TIP3      1974            0.0000000000
     28243      2167  TIP3      OH2            10.6858267477        7.0123981920       34.3531577066  TIP3      1975            0.0000000000
     28244      2167  TIP3      H1             10.7525194204        7.5528734238       35.1594118376  TIP3      1975            0.0000000000
     28245      2167  TIP3      H2             11.3508628313        6.3211367554       34.4455844043  TIP3      1975            0.0000000000
     28246      2168  TIP3      OH2            10.9799632676        3.0581805092       26.0341100225  TIP3      1976            0.0000000000
     28247      2168  TIP3      H1             10.6511622659        3.6943286838       26.6923193219  TIP3      1976            0.0000000000
     28248      2168  TIP3      H2             11.6819967760        3.6071590043       25.6145330454  TIP3      1976            0.0000000000
     28249      2169  TIP3      OH2             7.9476176187       17.4304788191       23.1775647640  TIP3      1977            0.0000000000
     28250      2169  TIP3      H1              8.1034890592       18.2428212577       22.6517916479  TIP3      1977            0.0000000000
     28251      2169  TIP3      H2              7.6727059198       17.7719744240       24.0479179752  TIP3      1977            0.0000000000
     28252      2170  TIP3      OH2             6.7094987814        4.1964113877       22.7283293568  TIP3      1978            0.0000000000
     28253      2170  TIP3      H1              6.5950049965        5.0478520927       23.1729767326  TIP3      1978            0.0000000000
     28254      2170  TIP3      H2              7.5865255093        3.9061923982       23.0406169838  TIP3      1978            0.0000000000
     28255      2171  TIP3      OH2            16.8624302887        4.8984051435       35.1986656557  TIP3      1979            0.0000000000
     28256      2171  TIP3      H1             15.9329187846        5.2069034924       35.0676736290  TIP3      1979            0.0000000000
     28257      2171  TIP3      H2             17.1628340761        4.8682918724       34.2742168529  TIP3      1979            0.0000000000
     28258      2172  TIP3      OH2            15.4766858456        8.6741643892       29.2140651019  TIP3      1980            0.0000000000
     28259      2172  TIP3      H1             14.6553907967        8.2277412242       28.9315980958  TIP3      1980            0.0000000000
     28260      2172  TIP3      H2             15.9611086843        7.9845147921       29.7215619977  TIP3      1980            0.0000000000
     28261      2173  TIP3      OH2            16.5369422841       17.9312002453       30.8611718194  TIP3      1981            0.0000000000
     28262      2173  TIP3      H1             16.4550037449       18.6300298149       30.1836236642  TIP3      1981            0.0000000000
     28263      2173  TIP3      H2             17.4987556963       17.9795383350       31.0442248465  TIP3      1981            0.0000000000
     28264      2174  TIP3      OH2             4.0241155043        2.0604667241       29.6882300907  TIP3      1982            0.0000000000
     28265      2174  TIP3      H1              3.8521356232        2.0688949740       28.7179286588  TIP3      1982            0.0000000000
     28266      2174  TIP3      H2              3.6333587667        1.2028996440       29.9463721412  TIP3      1982            0.0000000000
     28267      2175  TIP3      OH2             3.0077276818       16.0501208978       25.8623460704  TIP3      1983            0.0000000000
     28268      2175  TIP3      H1              2.1209835853       16.4085556525       25.7582702576  TIP3      1983            0.0000000000
     28269      2175  TIP3      H2              3.4739813947       16.4040236095       25.0934462914  TIP3      1983            0.0000000000
     28270      2176  TIP3      OH2             2.1703368084       18.6509480531       37.1067963189  TIP3      1984            0.0000000000
     28271      2176  TIP3      H1              2.7937148572       18.4525178050       37.8366168990  TIP3      1984            0.0000000000
     28272      2176  TIP3      H2              1.7810770151       17.7790221528       36.9234999166  TIP3      1984            0.0000000000
     28273      2177  TIP3      OH2             6.8785602664       17.5173039959       38.7221828737  TIP3      1985            0.0000000000
     28274      2177  TIP3      H1              7.6539148929       17.0465516359       39.0528461660  TIP3      1985            0.0000000000
     28275      2177  TIP3      H2              6.8596517257       17.2600857159       37.7793437421  TIP3      1985            0.0000000000
     28276      2178  TIP3      OH2            13.3702658345       15.9161600386       37.4439539213  TIP3      1986            0.0000000000
     28277      2178  TIP3      H1             13.0534095768       15.0718311026       37.7955829922  TIP3      1986            0.0000000000
     28278      2178  TIP3      H2             14.1468767019       16.0926590928       38.0196681759  TIP3      1986            0.0000000000
     28279      2179  TIP3      OH2             2.0670912229       12.3977154326       38.1418324537  TIP3      1987            0.0000000000
     28280      2179  TIP3      H1              2.2805358299       11.5031567924       37.8020683291  TIP3      1987            0.0000000000
     28281      2179  TIP3      H2              1.3749201120       12.6553152428       37.5059008470  TIP3      1987            0.0000000000
     28282      2180  TIP3      OH2             8.9321303532       12.3797503935       37.4165895638  TIP3      1988            0.0000000000
     28283      2180  TIP3      H1              8.4412938411       12.7004118694       36.6326049282  TIP3      1988            0.0000000000
     28284      2180  TIP3      H2              8.8518633135       11.3958356923       37.3699959433  TIP3      1988            0.0000000000
     28285      2181  TIP3      OH2            14.4607742785       12.2994180182       35.0186762912  TIP3      1989            0.0000000000
     28286      2181  TIP3      H1             15.3060902739       12.7822767193       34.8235295513  TIP3      1989            0.0000000000
     28287      2181  TIP3      H2             13.8497452233       13.0135325325       34.8004726765  TIP3      1989            0.0000000000
     28288      2182  TIP3      OH2             3.0220953841        9.6272167134       37.4907547885  TIP3      1990            0.0000000000
     28289      2182  TIP3      H1              3.4400819224        8.7648586928       37.4071255833  TIP3      1990            0.0000000000
     28290      2182  TIP3      H2              2.7997995333        9.6527590615       38.4420646961  TIP3      1990            0.0000000000
     28291      2183  TIP3      OH2             6.9242245032        8.5720146334       34.8421301603  TIP3      1991            0.0000000000
     28292      2183  TIP3      H1              6.3255553070        9.2923236738       35.0959456444  TIP3      1991            0.0000000000
     28293      2183  TIP3      H2              7.3194963984        8.9399006975       34.0341321113  TIP3      1991            0.0000000000
     28294      2184  TIP3      OH2            12.0284863546       11.0939475645       38.2949016094  TIP3      1992            0.0000000000
     28295      2184  TIP3      H1             12.9862922475       10.9731182020       38.2213178036  TIP3      1992            0.0000000000
     28296      2184  TIP3      H2             11.7835041528       10.3075539541       38.8302449106  TIP3      1992            0.0000000000
     28297      2185  TIP3      OH2             7.3383175505        5.9626072242       35.8787800620  TIP3      1993            0.0000000000
     28298      2185  TIP3      H1              7.4452377690        5.2442389944       35.2281441851  TIP3      1993            0.0000000000
     28299      2185  TIP3      H2              7.2835319921        6.7706622610       35.3324672567  TIP3      1993            0.0000000000
     28300      2186  TIP3      OH2             7.7334227479        4.3313355137       33.4546403750  TIP3      1994            0.0000000000
     28301      2186  TIP3      H1              8.2401148486        4.7967829528       32.7469586646  TIP3      1994            0.0000000000
     28302      2186  TIP3      H2              6.8384615019        4.2557257331       33.0516104156  TIP3      1994            0.0000000000
     28303      2187  TIP3      OH2             9.3039470786        9.8620805056       33.7325374176  TIP3      1995            0.0000000000
     28304      2187  TIP3      H1             10.0144179540        9.6476506827       33.1200200331  TIP3      1995            0.0000000000
     28305      2187  TIP3      H2              8.8860738375       10.6465330321       33.3344379076  TIP3      1995            0.0000000000
     28306      2188  TIP3      OH2            13.6671151933        7.5770510197       38.6289992623  TIP3      1996            0.0000000000
     28307      2188  TIP3      H1             13.8818420282        6.6347715867       38.5677535106  TIP3      1996            0.0000000000
     28308      2188  TIP3      H2             14.5479243944        7.9766759232       38.6846826354  TIP3      1996            0.0000000000
     28309      2189  TIP3      OH2            14.9970027685       10.4093820212       36.8553555094  TIP3      1997            0.0000000000
     28310      2189  TIP3      H1             14.8092103994       11.0799787489       36.1699096206  TIP3      1997            0.0000000000
     28311      2189  TIP3      H2             15.9622291585       10.3040088235       36.6564789225  TIP3      1997            0.0000000000
     28312      2190  TIP3      OH2             5.8101046599        7.1865448241       37.8499052726  TIP3      1998            0.0000000000
     28313      2190  TIP3      H1              5.0223011875        6.6398037445       37.6454974768  TIP3      1998            0.0000000000
     28314      2190  TIP3      H2              6.4363059456        6.8393280205       37.1821439464  TIP3      1998            0.0000000000
     28315      2191  TIP3      OH2             8.5140185818        1.7641413078       33.8527351131  TIP3      1999            0.0000000000
     28316      2191  TIP3      H1              8.3340935439        2.7283822519       33.7468945640  TIP3      1999            0.0000000000
     28317      2191  TIP3      H2              7.7727255062        1.3978534042       33.3398683766  TIP3      1999            0.0000000000
     28318      2192  TIP3      OH2             9.7934763724        6.1049596734       37.4903629678  TIP3      2000            0.0000000000
     28319      2192  TIP3      H1              9.4671639158        5.8774278329       38.3805635596  TIP3      2000            0.0000000000
     28320      2192  TIP3      H2              9.0231397882        5.9072677656       36.9255594547  TIP3      2000            0.0000000000
     28321      2193  TIP3      OH2            12.5083818094        5.2355634517       36.5481834509  TIP3      2001            0.0000000000
     28322      2193  TIP3      H1             11.5479672059        5.2950600695       36.6806640942  TIP3      2001            0.0000000000
     28323      2193  TIP3      H2             12.7789626977        4.6054174021       37.2461958460  TIP3      2001            0.0000000000
     28324      2194  TIP3      OH2            14.0527498666        3.8680332298       38.4567615808  TIP3      2002            0.0000000000
     28325      2194  TIP3      H1             14.0488377310        2.8906830862       38.4920307518  TIP3      2002            0.0000000000
     28326      2194  TIP3      H2             13.8314235803        4.1585777814       39.3731174933  TIP3      2002            0.0000000000
     28327      2195  TIP3      OH2             3.8731117571        5.1429137403       37.5681339413  TIP3      2003            0.0000000000
     28328      2195  TIP3      H1              4.1152076524        4.3993038069       36.9937086037  TIP3      2003            0.0000000000
     28329      2195  TIP3      H2              3.7851579658        4.7078957152       38.4447754289  TIP3      2003            0.0000000000
     28330      2196  TIP3      OH2             8.7382086380        1.1606943189       36.5430217970  TIP3      2004            0.0000000000
     28331      2196  TIP3      H1              9.4188161652        0.4571445072       36.5176350593  TIP3      2004            0.0000000000
     28332      2196  TIP3      H2              8.6239421626        1.3090378566       35.5853942644  TIP3      2004            0.0000000000
     28333      2197  TIP3      OH2             9.0795757740        2.7610432606       38.6476747855  TIP3      2005            0.0000000000
     28334      2197  TIP3      H1              8.9191971690        2.2542322688       37.8137384316  TIP3      2005            0.0000000000
     28335      2197  TIP3      H2              8.5097766111        3.5458240356       38.5370240889  TIP3      2005            0.0000000000
     28336      2198  TIP3      OH2             8.6143196855       19.6912968271       21.8111577380  TIP3      2006            0.0000000000
     28337      2198  TIP3      H1              9.5478831855       19.8119908686       21.8757319782  TIP3      2006            0.0000000000
     28338      2198  TIP3      H2              8.3771054762       20.3250682288       21.1329652253  TIP3      2006            0.0000000000
     28339      2199  TIP3      OH2             0.8614188308       19.6713170855       26.2933869023  TIP3      2007            0.0000000000
     28340      2199  TIP3      H1              0.1881377530       19.1662447239       25.8012539610  TIP3      2007            0.0000000000
     28341      2199  TIP3      H2              1.1956975861       18.9894925422       26.9069929157  TIP3      2007            0.0000000000
     28342      2200  TIP3      OH2             1.7012739775       17.7784627986       28.1516673253  TIP3      2008            0.0000000000
     28343      2200  TIP3      H1              1.3654300111       16.8992022360       28.3664360471  TIP3      2008            0.0000000000
     28344      2200  TIP3      H2              1.9466009128       18.1122548056       29.0309586472  TIP3      2008            0.0000000000
     28345      2201  TIP3      OH2            19.2603547569       18.5818914565       31.0716792734  TIP3      2009            0.0000000000
     28346      2201  TIP3      H1             19.2918685548       18.7375764894       32.0315584222  TIP3      2009            0.0000000000
     28347      2201  TIP3      H2             19.9646591975       19.1642159197       30.7700085995  TIP3      2009            0.0000000000
     28348      2202  TIP3      OH2            18.8316424847       18.1769016038       34.0180062907  TIP3      2010            0.0000000000
     28349      2202  TIP3      H1             18.3624542526       17.4049051799       33.6308954524  TIP3      2010            0.0000000000
     28350      2202  TIP3      H2             19.3149163597       17.7292835588       34.7336147228  TIP3      2010            0.0000000000
     28351      2203  TIP3      OH2            17.2632828446       13.8855493188       38.6718483152  TIP3      2011            0.0000000000
     28352      2203  TIP3      H1             16.3875615521       13.8728716812       39.0942955005  TIP3      2011            0.0000000000
     28353      2203  TIP3      H2             17.6528289983       14.6850674405       39.0917506058  TIP3      2011            0.0000000000
     28354      2204  TIP3      OH2            18.6593261908       12.1837298097       24.0804870600  TIP3      2012            0.0000000000
     28355      2204  TIP3      H1             19.4913663109       12.5850743773       24.3639640457  TIP3      2012            0.0000000000
     28356      2204  TIP3      H2             18.5697840142       11.5059496566       24.7964361568  TIP3      2012            0.0000000000
     28357      2205  TIP3      OH2            18.9501069780       10.3290774996       25.9979401433  TIP3      2013            0.0000000000
     28358      2205  TIP3      H1             18.2038002810        9.8007195201       26.3682792277  TIP3      2013            0.0000000000
     28359      2205  TIP3      H2             19.5373273452       10.4406007299       26.7720636121  TIP3      2013            0.0000000000
     28360      2206  TIP3      OH2            18.7158819817       12.9861386308       31.0104497024  TIP3      2014            0.0000000000
     28361      2206  TIP3      H1             19.5202912787       12.6169559587       30.6069884223  TIP3      2014            0.0000000000
     28362      2206  TIP3      H2             18.8556158081       13.9417834351       30.8413927041  TIP3      2014            0.0000000000
     28363      2207  TIP3      OH2            17.2695294550       15.9052439188       33.2588034221  TIP3      2015            0.0000000000
     28364      2207  TIP3      H1             16.5794908754       16.2416860414       33.8489300302  TIP3      2015            0.0000000000
     28365      2207  TIP3      H2             16.7232768070       15.5044938138       32.5467455871  TIP3      2015            0.0000000000
     28366      2208  TIP3      OH2            19.2929909157       10.1279350160       22.3464692152  TIP3      2016            0.0000000000
     28367      2208  TIP3      H1             18.6689397747       10.4848989999       21.7247061967  TIP3      2016            0.0000000000
     28368      2208  TIP3      H2             19.2069161307       10.7805342972       23.0729988904  TIP3      2016            0.0000000000
     28369      2209  TIP3      OH2            17.7375968899        7.3453362247       20.9236775476  TIP3      2017            0.0000000000
     28370      2209  TIP3      H1             17.4984592297        7.9934898830       20.2601212850  TIP3      2017            0.0000000000
     28371      2209  TIP3      H2             17.3679519322        6.5682636761       20.4795783778  TIP3      2017            0.0000000000
     28372      2210  TIP3      OH2            16.8079032507        8.7546660605       26.5915033934  TIP3      2018            0.0000000000
     28373      2210  TIP3      H1             16.6170933217        7.8070678715       26.5369972025  TIP3      2018            0.0000000000
     28374      2210  TIP3      H2             16.4377941790        8.9984846090       27.4596710318  TIP3      2018            0.0000000000
     28375      2211  TIP3      OH2             1.7809633916       10.8628739291       30.6407774074  TIP3      2019            0.0000000000
     28376      2211  TIP3      H1              1.9549374026       10.7798500677       29.6784113870  TIP3      2019            0.0000000000
     28377      2211  TIP3      H2              2.6746120163       10.6817393372       30.9921121825  TIP3      2019            0.0000000000
     28378      2212  TIP3      OH2            17.6132103222       10.7485077799       36.3099906578  TIP3      2020            0.0000000000
     28379      2212  TIP3      H1             18.2250538954        9.9857847712       36.3928751478  TIP3      2020            0.0000000000
     28380      2212  TIP3      H2             18.2424910007       11.5031879558       36.2630109110  TIP3      2020            0.0000000000
     28381      2213  TIP3      OH2            19.1202069276        8.6273963444       36.9211508506  TIP3      2021            0.0000000000
     28382      2213  TIP3      H1             18.2469145408        8.2152144325       36.7566427836  TIP3      2021            0.0000000000
     28383      2213  TIP3      H2             19.7034618759        7.8522351222       36.8437261602  TIP3      2021            0.0000000000
     28384      2214  TIP3      OH2            16.4420844165        6.3496140097       25.0551032397  TIP3      2022            0.0000000000
     28385      2214  TIP3      H1             16.7422221635        5.4196992579       25.1659968407  TIP3      2022            0.0000000000
     28386      2214  TIP3      H2             17.2287339709        6.7577041004       24.6617635862  TIP3      2022            0.0000000000
     28387      2215  TIP3      OH2            17.0816523783        6.9008345387       30.4828943605  TIP3      2023            0.0000000000
     28388      2215  TIP3      H1             18.0408934096        7.1313703808       30.4667298863  TIP3      2023            0.0000000000
     28389      2215  TIP3      H2             16.8948646564        7.0425930319       31.4224132641  TIP3      2023            0.0000000000
     28390      2216  TIP3      OH2            17.1453837323        7.6195722004       33.2579592811  TIP3      2024            0.0000000000
     28391      2216  TIP3      H1             16.2643241748        7.9067810067       33.5819159941  TIP3      2024            0.0000000000
     28392      2216  TIP3      H2             17.5805408757        8.4786199480       33.0388290333  TIP3      2024            0.0000000000
     28393      2217  TIP3      OH2             1.4045852687        6.1504502997       36.7787614378  TIP3      2025            0.0000000000
     28394      2217  TIP3      H1              2.3390985880        5.9456491421       36.9877275860  TIP3      2025            0.0000000000
     28395      2217  TIP3      H2              0.9421344157        5.3352800607       37.0740480475  TIP3      2025            0.0000000000
     28396      2218  TIP3      OH2            19.4264539817        1.6849818131       38.5951090938  TIP3      2026            0.0000000000
     28397      2218  TIP3      H1             19.7765557378        1.0104754911       37.9945466427  TIP3      2026            0.0000000000
     28398      2218  TIP3      H2             19.5131031726        2.4953163664       38.0626706578  TIP3      2026            0.0000000000
     28399      2219  TIP3      OH2            17.0957935153        3.6428312069       25.0698616904  TIP3      2027            0.0000000000
     28400      2219  TIP3      H1             17.3345748342        3.1926826644       25.9085826464  TIP3      2027            0.0000000000
     28401      2219  TIP3      H2             16.4975418550        2.9998107211       24.6241704473  TIP3      2027            0.0000000000
     28402      2220  TIP3      OH2             2.5962691498        4.4390215776       29.6279242359  TIP3      2028            0.0000000000
     28403      2220  TIP3      H1              3.0713525105        3.6270046652       29.9024326688  TIP3      2028            0.0000000000
     28404      2220  TIP3      H2              3.1380834213        5.1432505265       30.0141516602  TIP3      2028            0.0000000000
     28405      2221  TIP3      OH2             0.8862128635        7.4706322441       30.6902782657  TIP3      2029            0.0000000000
     28406      2221  TIP3      H1              1.4441792073        7.2138531934       29.9282400845  TIP3      2029            0.0000000000
     28407      2221  TIP3      H2              1.3584969712        8.2740777895       30.9543794729  TIP3      2029            0.0000000000
     28408      2222  TIP3      OH2            18.9368924332        3.7869699007       36.9598211682  TIP3      2030            0.0000000000
     28409      2222  TIP3      H1             17.9977978091        4.0595279488       36.9259573718  TIP3      2030            0.0000000000
     28410      2222  TIP3      H2             18.9653510262        3.2367743597       36.1614889441  TIP3      2030            0.0000000000
     28411      2223  TIP3      OH2             1.2179814863        3.7623691995       24.8029915259  TIP3      2031            0.0000000000
     28412      2223  TIP3      H1              0.2892853171        3.9164351501       24.5950954633  TIP3      2031            0.0000000000
     28413      2223  TIP3      H2              1.6691647616        4.1393067884       24.0150555297  TIP3      2031            0.0000000000
     28414      2224  TIP3      OH2            15.9822835355       18.6615800592       26.6837533222  TIP3      2032            0.0000000000
     28415      2224  TIP3      H1             16.6962829347       18.3828930134       26.0845428365  TIP3      2032            0.0000000000
     28416      2224  TIP3      H2             16.4711208597       19.1833957321       27.3438194896  TIP3      2032            0.0000000000
     28417      2225  TIP3      OH2             1.1951731349        2.3644429863       33.0506346710  TIP3      2033            0.0000000000
     28418      2225  TIP3      H1              0.5245145348        2.1714189444       33.7271216897  TIP3      2033            0.0000000000
     28419      2225  TIP3      H2              0.7469560396        3.0498480723       32.5163519965  TIP3      2033            0.0000000000
     28420      2226  TIP3      OH2             3.4344716221       15.5850422162       37.2234458017  TIP3      2034            0.0000000000
     28421      2226  TIP3      H1              2.6000378229       15.7914196542       36.7712019222  TIP3      2034            0.0000000000
     28422      2226  TIP3      H2              3.1640084439       15.5159509280       38.1378796453  TIP3      2034            0.0000000000
     28423      2227  TIP3      OH2             6.3318117863       16.5753776923       33.4879665728  TIP3      2035            0.0000000000
     28424      2227  TIP3      H1              6.0063606794       17.4449902573       33.2177701320  TIP3      2035            0.0000000000
     28425      2227  TIP3      H2              7.2585665297       16.6562331999       33.1829070677  TIP3      2035            0.0000000000
     28426      2228  TIP3      OH2            10.6614792318       17.9659666496       36.3809522963  TIP3      2036            0.0000000000
     28427      2228  TIP3      H1             10.7762133983       17.6674061534       37.3147220660  TIP3      2036            0.0000000000
     28428      2228  TIP3      H2             11.5541418880       18.3117797267       36.1727422530  TIP3      2036            0.0000000000
     28429      2229  TIP3      OH2            12.9382377073       19.2632741068       35.7026574060  TIP3      2037            0.0000000000
     28430      2229  TIP3      H1             13.6704171542       18.6800838399       35.4666673435  TIP3      2037            0.0000000000
     28431      2229  TIP3      H2             13.3127093097       19.7029849679       36.4971542764  TIP3      2037            0.0000000000
     28432      2230  TIP3      OH2            17.9584873962        1.8744942764       34.8157412928  TIP3      2038            0.0000000000
     28433      2230  TIP3      H1             17.1328552928        2.1762675576       34.3996355454  TIP3      2038            0.0000000000
     28434      2230  TIP3      H2             18.1270221176        1.0527577847       34.2967858357  TIP3      2038            0.0000000000
     28435      2231  TIP3      OH2             3.7572792239       19.8060890572       33.4763704579  TIP3      2039            0.0000000000
     28436      2231  TIP3      H1              3.0255726455       20.3104021328       33.0852142329  TIP3      2039            0.0000000000
     28437      2231  TIP3      H2              3.4502541528       19.6185007143       34.3750936849  TIP3      2039            0.0000000000
     28438      2232  TIP3      OH2             6.2286760167       19.3764159273       32.5594091042  TIP3      2040            0.0000000000
     28439      2232  TIP3      H1              5.3357725075       19.5347000302       32.9486699071  TIP3      2040            0.0000000000
     28440      2232  TIP3      H2              6.1746834276       19.9694682297       31.7862677404  TIP3      2040            0.0000000000
     28441      2233  TIP3      OH2            10.9350900382       19.3008207089       31.7220825585  TIP3      2041            0.0000000000
     28442      2233  TIP3      H1             10.4706055499       19.8547578401       31.0757576403  TIP3      2041            0.0000000000
     28443      2233  TIP3      H2             11.0610778855       19.9402660020       32.4593783574  TIP3      2041            0.0000000000
     28444      2234  TIP3      OH2            13.2135281382       18.0965530482       32.7630651899  TIP3      2042            0.0000000000
     28445      2234  TIP3      H1             12.3668050555       18.3841469882       32.3832605608  TIP3      2042            0.0000000000
     28446      2234  TIP3      H2             13.7081155784       18.9270917642       32.6658845165  TIP3      2042            0.0000000000
     28447      2235  TIP3      OH2            15.8003724561       19.6729266801       32.9729469679  TIP3      2043            0.0000000000
     28448      2235  TIP3      H1             15.7525288351       20.6333842224       32.7472700631  TIP3      2043            0.0000000000
     28449      2235  TIP3      H2             16.0211930984       19.3024897963       32.0966849355  TIP3      2043            0.0000000000
     28450      2236  TIP3      OH2             3.2220131158       18.4558090510       30.4235681748  TIP3      2044            0.0000000000
     28451      2236  TIP3      H1              3.1367359945       17.9949428641       31.2850299842  TIP3      2044            0.0000000000
     28452      2236  TIP3      H2              4.0358630951       18.0741090307       30.0366435367  TIP3      2044            0.0000000000
     28453      2237  TIP3      OH2             5.2926586117       17.1672247959       29.0759320764  TIP3      2045            0.0000000000
     28454      2237  TIP3      H1              5.1264734886       16.2323192113       29.3032079485  TIP3      2045            0.0000000000
     28455      2237  TIP3      H2              6.1474270454       17.3235703835       29.5295323658  TIP3      2045            0.0000000000
     28456      2238  TIP3      OH2             7.8978122747       17.6600483486       29.9547370207  TIP3      2046            0.0000000000
     28457      2238  TIP3      H1              8.0400732877       16.7349480323       29.6803986536  TIP3      2046            0.0000000000
     28458      2238  TIP3      H2              7.9406578924       17.5956915206       30.9197024669  TIP3      2046            0.0000000000
     28459      2239  TIP3      OH2            11.3462295515        3.2919531127       29.0864644245  TIP3      2047            0.0000000000
     28460      2239  TIP3      H1             10.6707574180        2.6549396556       29.3755761002  TIP3      2047            0.0000000000
     28461      2239  TIP3      H2             11.9035098587        2.7586588977       28.5090544603  TIP3      2047            0.0000000000
     28462      2240  TIP3      OH2            16.4840571061        1.3424732770       29.1545127336  TIP3      2048            0.0000000000
     28463      2240  TIP3      H1             17.0956117777        1.9439126085       28.6586620147  TIP3      2048            0.0000000000
     28464      2240  TIP3      H2             15.6028135278        1.7073720052       28.9222615947  TIP3      2048            0.0000000000
     28465      2241  TIP3      OH2            18.1509160276        2.6138774060       27.4326680641  TIP3      2049            0.0000000000
     28466      2241  TIP3      H1             18.8462165012        2.0379247121       27.0406752910  TIP3      2049            0.0000000000
     28467      2241  TIP3      H2             18.6641731101        3.4444660463       27.5577399836  TIP3      2049            0.0000000000
     28468      2242  TIP3      OH2             3.6961197344        1.9108137035       26.9978257791  TIP3      2050            0.0000000000
     28469      2242  TIP3      H1              2.9582999996        1.7673990255       26.3853402854  TIP3      2050            0.0000000000
     28470      2242  TIP3      H2              4.2012703596        1.0866618409       26.8753669269  TIP3      2050            0.0000000000
     28471      2243  TIP3      OH2             8.1900343259        1.8444328144       26.7258567500  TIP3      2051            0.0000000000
     28472      2243  TIP3      H1              9.0857154992        2.2125020355       26.6486610454  TIP3      2051            0.0000000000
     28473      2243  TIP3      H2              8.1584325922        1.6340073247       27.6575344392  TIP3      2051            0.0000000000
     28474      2244  TIP3      OH2            13.9033616676        1.8708915887       28.3524523024  TIP3      2052            0.0000000000
     28475      2244  TIP3      H1             13.8479416296        1.9828504013       27.3929877354  TIP3      2052            0.0000000000
     28476      2244  TIP3      H2             13.5194053550        0.9684409418       28.4795238356  TIP3      2052            0.0000000000
     28477      2245  TIP3      OH2            15.1907088968        1.8958523645       24.0603972640  TIP3      2053            0.0000000000
     28478      2245  TIP3      H1             14.4624565335        2.4989217179       23.8677740484  TIP3      2053            0.0000000000
     28479      2245  TIP3      H2             14.7374357059        1.0374218978       24.2448165558  TIP3      2053            0.0000000000
     28480      2246  TIP3      OH2             9.3343120420        3.8810976670       23.5812966267  TIP3      2054            0.0000000000
     28481      2246  TIP3      H1              9.5865186748        3.2989643722       24.3116524369  TIP3      2054            0.0000000000
     28482      2246  TIP3      H2              9.4148584293        4.7504350983       24.0346367386  TIP3      2054            0.0000000000
     28483      2247  TIP3      OH2            17.9906331152       18.3933364521       24.6750473218  TIP3      2055            0.0000000000
     28484      2247  TIP3      H1             17.7625808414       17.7131726132       24.0469056837  TIP3      2055            0.0000000000
     28485      2247  TIP3      H2             17.9582477371       19.1866534386       24.0750664859  TIP3      2055            0.0000000000
     28486      2248  TIP3      OH2             3.5986712148        2.4632054014       36.3905061694  TIP3      2056            0.0000000000
     28487      2248  TIP3      H1              3.2047927483        1.6693027692       36.8010947416  TIP3      2056            0.0000000000
     28488      2248  TIP3      H2              4.5084838728        2.4216360138       36.7672780367  TIP3      2056            0.0000000000
     28489      2249  TIP3      OH2             5.6010461501        1.8629689744       38.0521014328  TIP3      2057            0.0000000000
     28490      2249  TIP3      H1              6.4809532996        1.5164181000       37.7982706353  TIP3      2057            0.0000000000
     28491      2249  TIP3      H2              5.2332123909        1.0509102361       38.4572278009  TIP3      2057            0.0000000000
     28492      2250  TIP3      OH2            14.0058539174        1.1490110613       38.1737558381  TIP3      2058            0.0000000000
     28493      2250  TIP3      H1             14.0907555822        0.6563142959       39.0165675255  TIP3      2058            0.0000000000
     28494      2250  TIP3      H2             14.9266534993        1.1013621851       37.8454087206  TIP3      2058            0.0000000000
     28495      2251  TIP3      OH2            17.2187564058       17.1976719794       36.8499088846  TIP3      2059            0.0000000000
     28496      2251  TIP3      H1             16.4346042427       17.0649363033       36.2748985633  TIP3      2059            0.0000000000
     28497      2251  TIP3      H2             17.1083556051       18.1488191312       37.0303251861  TIP3      2059            0.0000000000
     28498      2252  TIP3      OH2            31.6508371978       11.0622139346       26.8444359141  TIP3      2060            0.0000000000
     28499      2252  TIP3      H1             31.6649223149       12.0356388771       26.7308888607  TIP3      2060            0.0000000000
     28500      2252  TIP3      H2             30.9461301623       10.8272732128       26.2238357006  TIP3      2060            0.0000000000
     28501      2253  TIP3      OH2            30.5205574081       10.3202023428       30.2943644599  TIP3      2061            0.0000000000
     28502      2253  TIP3      H1             30.5009211054        9.6746057203       31.0170401678  TIP3      2061            0.0000000000
     28503      2253  TIP3      H2             30.1720984490        9.8135514199       29.5390817522  TIP3      2061            0.0000000000
     28504      2254  TIP3      OH2            22.8699973461        9.9997889673       31.8523254331  TIP3      2062            0.0000000000
     28505      2254  TIP3      H1             22.9554145272        9.3127753190       32.5466527201  TIP3      2062            0.0000000000
     28506      2254  TIP3      H2             23.6200834398       10.5704853915       32.0744635896  TIP3      2062            0.0000000000
     28507      2255  TIP3      OH2            34.2070425865       13.2516652682       28.5933039027  TIP3      2063            0.0000000000
     28508      2255  TIP3      H1             33.7982778969       12.5394384710       29.0935674743  TIP3      2063            0.0000000000
     28509      2255  TIP3      H2             34.2870491180       13.9392274308       29.2743390955  TIP3      2063            0.0000000000
     28510      2256  TIP3      OH2            23.7873748451       14.4377526114       30.3662995562  TIP3      2064            0.0000000000
     28511      2256  TIP3      H1             23.4851036245       13.5717908538       30.0320268908  TIP3      2064            0.0000000000
     28512      2256  TIP3      H2             24.7473287662       14.2675401526       30.3936552202  TIP3      2064            0.0000000000
     28513      2257  TIP3      OH2            20.4258495451        8.0153878370       25.8665254637  TIP3      2065            0.0000000000
     28514      2257  TIP3      H1             19.9877075841        8.8821886303       25.7757384036  TIP3      2065            0.0000000000
     28515      2257  TIP3      H2             19.8751079209        7.4644179388       25.2939473711  TIP3      2065            0.0000000000
     28516      2258  TIP3      OH2            21.1485499512       10.2302069474       27.9955084632  TIP3      2066            0.0000000000
     28517      2258  TIP3      H1             21.4268398091        9.4072042394       28.4425757716  TIP3      2066            0.0000000000
     28518      2258  TIP3      H2             21.8361727200       10.3388984065       27.3214065762  TIP3      2066            0.0000000000
     28519      2259  TIP3      OH2            31.3655782917       18.4357437671       28.8190723929  TIP3      2067            0.0000000000
     28520      2259  TIP3      H1             31.9951712989       17.7332314457       28.5316025728  TIP3      2067            0.0000000000
     28521      2259  TIP3      H2             31.1106163109       18.0912094188       29.6757079084  TIP3      2067            0.0000000000
     28522      2260  TIP3      OH2            28.8864435144       12.7235063127       30.7800132796  TIP3      2068            0.0000000000
     28523      2260  TIP3      H1             29.2213741476       12.1067386050       30.1067783499  TIP3      2068            0.0000000000
     28524      2260  TIP3      H2             29.7046750628       12.8802447213       31.2840960422  TIP3      2068            0.0000000000
     28525      2261  TIP3      OH2            32.0417908332        7.1911752534       31.0767629167  TIP3      2069            0.0000000000
     28526      2261  TIP3      H1             32.2283974651        6.2365955204       31.0925959202  TIP3      2069            0.0000000000
     28527      2261  TIP3      H2             31.9542200901        7.3250781962       30.1144227872  TIP3      2069            0.0000000000
     28528      2262  TIP3      OH2            25.1678432927        5.2794860447       28.2974243520  TIP3      2070            0.0000000000
     28529      2262  TIP3      H1             25.2789621495        6.1184650857       27.8126726573  TIP3      2070            0.0000000000
     28530      2262  TIP3      H2             24.7635878238        4.7116702156       27.6083910411  TIP3      2070            0.0000000000
     28531      2263  TIP3      OH2            32.9183987923        5.3875358217       26.6830383179  TIP3      2071            0.0000000000
     28532      2263  TIP3      H1             33.5854181646        5.0437671138       27.3300242966  TIP3      2071            0.0000000000
     28533      2263  TIP3      H2             33.4641331456        5.9258531205       26.0965914609  TIP3      2071            0.0000000000
     28534      2264  TIP3      OH2            21.7980498626        7.6912867644       29.0318212822  TIP3      2072            0.0000000000
     28535      2264  TIP3      H1             22.4670480541        7.1494973653       29.4890097249  TIP3      2072            0.0000000000
     28536      2264  TIP3      H2             21.9053561741        7.3772191629       28.1205862114  TIP3      2072            0.0000000000
     28537      2265  TIP3      OH2            26.9491290100        9.2463771867       28.3568291373  TIP3      2073            0.0000000000
     28538      2265  TIP3      H1             27.6329917628        8.6698463714       28.7410483393  TIP3      2073            0.0000000000
     28539      2265  TIP3      H2             26.4520684208        8.5950431288       27.8221738231  TIP3      2073            0.0000000000
     28540      2266  TIP3      OH2            24.0788640339        4.1669053143       32.3190293602  TIP3      2074            0.0000000000
     28541      2266  TIP3      H1             23.8014560939        4.7540489571       31.5847865490  TIP3      2074            0.0000000000
     28542      2266  TIP3      H2             23.4157236399        4.4042289470       33.0142558583  TIP3      2074            0.0000000000
     28543      2267  TIP3      OH2            31.3812711976       13.6442175905       25.8581081772  TIP3      2075            0.0000000000
     28544      2267  TIP3      H1             31.0486898575       13.3683512341       25.0073563203  TIP3      2075            0.0000000000
     28545      2267  TIP3      H2             31.0555706699       14.5717813988       25.9418464903  TIP3      2075            0.0000000000
     28546      2268  TIP3      OH2            26.5949137582       11.8227345430       32.5728841840  TIP3      2076            0.0000000000
     28547      2268  TIP3      H1             25.8930237874       12.4680548811       32.7991597063  TIP3      2076            0.0000000000
     28548      2268  TIP3      H2             27.3033792245       12.4205047827       32.2833940918  TIP3      2076            0.0000000000
     28549      2269  TIP3      OH2            34.5364813362        4.6819781138       28.7139379450  TIP3      2077            0.0000000000
     28550      2269  TIP3      H1             34.4699009142        3.8891514057       29.2445551739  TIP3      2077            0.0000000000
     28551      2269  TIP3      H2             35.2585336585        5.1589458059       29.1672967357  TIP3      2077            0.0000000000
     28552      2270  TIP3      OH2            23.6569039307        6.0325986047       30.3730046108  TIP3      2078            0.0000000000
     28553      2270  TIP3      H1             24.2832561121        6.7247326559       30.6816141322  TIP3      2078            0.0000000000
     28554      2270  TIP3      H2             24.1752118462        5.6285465947       29.6304770347  TIP3      2078            0.0000000000
     28555      2271  TIP3      OH2            25.0438627283       13.8343387363       33.3913689505  TIP3      2079            0.0000000000
     28556      2271  TIP3      H1             24.9958036360       14.7490614845       33.0563711833  TIP3      2079            0.0000000000
     28557      2271  TIP3      H2             24.1633035020       13.7507055520       33.8380702338  TIP3      2079            0.0000000000
     28558      2272  TIP3      OH2            21.1488519835       13.4560069510       24.1669693746  TIP3      2080            0.0000000000
     28559      2272  TIP3      H1             20.8114690089       13.7597079591       23.3252312420  TIP3      2080            0.0000000000
     28560      2272  TIP3      H2             21.1853811552       14.2569322941       24.7324067376  TIP3      2080            0.0000000000
     28561      2273  TIP3      OH2            34.6475624921       15.0617592338       31.0234212290  TIP3      2081            0.0000000000
     28562      2273  TIP3      H1             33.6798074519       15.2067650519       31.0845918439  TIP3      2081            0.0000000000
     28563      2273  TIP3      H2             34.9748680718       15.9441899090       30.7607068849  TIP3      2081            0.0000000000
     28564      2274  TIP3      OH2            34.9823363469        3.5044224007       32.2088346226  TIP3      2082            0.0000000000
     28565      2274  TIP3      H1             34.2202430160        4.1146590307       32.2247283686  TIP3      2082            0.0000000000
     28566      2274  TIP3      H2             35.6678279799        3.9937427587       31.7394811402  TIP3      2082            0.0000000000
     28567      2275  TIP3      OH2            28.0189517206        1.5047307551       29.8607293972  TIP3      2083            0.0000000000
     28568      2275  TIP3      H1             27.8423961516        0.5588736474       29.6888185523  TIP3      2083            0.0000000000
     28569      2275  TIP3      H2             27.1189869056        1.8372750285       30.0765692704  TIP3      2083            0.0000000000
     28570      2276  TIP3      OH2            32.9600182063       16.8507282330       27.5595778342  TIP3      2084            0.0000000000
     28571      2276  TIP3      H1             33.4427557163       16.1589048684       27.0628336321  TIP3      2084            0.0000000000
     28572      2276  TIP3      H2             33.4137726866       17.6461791013       27.1990419073  TIP3      2084            0.0000000000
     28573      2277  TIP3      OH2            34.1538061685       14.7931646319       26.0219250030  TIP3      2085            0.0000000000
     28574      2277  TIP3      H1             33.9699484644       14.0372083258       25.4362064761  TIP3      2085            0.0000000000
     28575      2277  TIP3      H2             34.2368784093       14.3150930918       26.8724337911  TIP3      2085            0.0000000000
     28576      2278  TIP3      OH2            35.6164245410       13.5090245989       34.6290311716  TIP3      2086            0.0000000000
     28577      2278  TIP3      H1             35.9090209191       12.8265382739       33.9974625942  TIP3      2086            0.0000000000
     28578      2278  TIP3      H2             36.0133388756       14.2995284472       34.2047186522  TIP3      2086            0.0000000000
     28579      2279  TIP3      OH2            30.3312269076       10.3259449149       24.3224382065  TIP3      2087            0.0000000000
     28580      2279  TIP3      H1             29.6198778457       10.8444072645       23.9157655038  TIP3      2087            0.0000000000
     28581      2279  TIP3      H2             31.0038168300       10.4349936238       23.6341342366  TIP3      2087            0.0000000000
     28582      2280  TIP3      OH2            33.7701532440       10.5632788153       25.2318045792  TIP3      2088            0.0000000000
     28583      2280  TIP3      H1             33.0297703621       10.7732520895       25.8273055827  TIP3      2088            0.0000000000
     28584      2280  TIP3      H2             34.2184456991        9.8574388486       25.7453212691  TIP3      2088            0.0000000000
     28585      2281  TIP3      OH2            33.6492670307        8.6569501835       34.3422610353  TIP3      2089            0.0000000000
     28586      2281  TIP3      H1             33.6885329381        9.4678780248       34.8723588627  TIP3      2089            0.0000000000
     28587      2281  TIP3      H2             33.0554704903        8.9821046146       33.6368422242  TIP3      2089            0.0000000000
     28588      2282  TIP3      OH2            25.3662303693       11.1741947640       27.1645541223  TIP3      2090            0.0000000000
     28589      2282  TIP3      H1             25.0683803178       10.7877704584       26.3127695206  TIP3      2090            0.0000000000
     28590      2282  TIP3      H2             26.0044135652       10.4960464947       27.4835259272  TIP3      2090            0.0000000000
     28591      2283  TIP3      OH2            26.6890580111       14.5546582129       29.8453360682  TIP3      2091            0.0000000000
     28592      2283  TIP3      H1             26.6867907979       14.0465539036       29.0221610083  TIP3      2091            0.0000000000
     28593      2283  TIP3      H2             27.4831834058       14.1983786514       30.2859246364  TIP3      2091            0.0000000000
     28594      2284  TIP3      OH2            25.7049815444        9.9200838468       30.8189303515  TIP3      2092            0.0000000000
     28595      2284  TIP3      H1             26.2516777158       10.0156738332       30.0126616693  TIP3      2092            0.0000000000
     28596      2284  TIP3      H2             26.1006522357       10.5898953620       31.4203448919  TIP3      2092            0.0000000000
     28597      2285  TIP3      OH2            32.0770651446       15.5003381465       31.5139982693  TIP3      2093            0.0000000000
     28598      2285  TIP3      H1             31.8636594367       16.1302568213       32.2073076492  TIP3      2093            0.0000000000
     28599      2285  TIP3      H2             31.8744319612       14.6390808568       31.9454484315  TIP3      2093            0.0000000000
     28600      2286  TIP3      OH2            26.6614542082       14.3535636012       35.5078504575  TIP3      2094            0.0000000000
     28601      2286  TIP3      H1             26.2430546355       15.0890771434       36.0012080041  TIP3      2094            0.0000000000
     28602      2286  TIP3      H2             25.9892341358       14.1515859944       34.8117853908  TIP3      2094            0.0000000000
     28603      2287  TIP3      OH2            23.6060369572       10.5195273224       34.6536796112  TIP3      2095            0.0000000000
     28604      2287  TIP3      H1             23.6612602088       11.1760445124       35.3713913083  TIP3      2095            0.0000000000
     28605      2287  TIP3      H2             22.6603197095       10.5937894657       34.4548316641  TIP3      2095            0.0000000000
     28606      2288  TIP3      OH2            30.3763956202       16.4423085284       26.3168557524  TIP3      2096            0.0000000000
     28607      2288  TIP3      H1             30.7851543129       16.7213107062       27.1508290430  TIP3      2096            0.0000000000
     28608      2288  TIP3      H2             29.7938564128       17.1936062868       26.1440582228  TIP3      2096            0.0000000000
     28609      2289  TIP3      OH2            24.9103149076       16.3826185284       36.2566733568  TIP3      2097            0.0000000000
     28610      2289  TIP3      H1             24.8462835752       16.2887360693       35.2902950170  TIP3      2097            0.0000000000
     28611      2289  TIP3      H2             23.9808455595       16.2502844318       36.5255606768  TIP3      2097            0.0000000000
     28612      2290  TIP3      OH2            36.2318710575        2.0899273889       23.1577060109  TIP3      2098            0.0000000000
     28613      2290  TIP3      H1             35.3015224176        1.7560291229       23.0876150137  TIP3      2098            0.0000000000
     28614      2290  TIP3      H2             36.4477689587        2.3976901715       22.2807014818  TIP3      2098            0.0000000000
     28615      2291  TIP3      OH2            24.3732681960       10.1983068102       24.7355247652  TIP3      2099            0.0000000000
     28616      2291  TIP3      H1             24.0543794205       10.9909003980       24.2634781196  TIP3      2099            0.0000000000
     28617      2291  TIP3      H2             23.6656247254        9.5634324597       24.5941520173  TIP3      2099            0.0000000000
     28618      2292  TIP3      OH2            20.4289277367       12.6235447890       33.6745043534  TIP3      2100            0.0000000000
     28619      2292  TIP3      H1             19.9876889722       12.5446176940       32.8091901547  TIP3      2100            0.0000000000
     28620      2292  TIP3      H2             20.5210235517       11.6759714002       33.8844379145  TIP3      2100            0.0000000000
     28621      2293  TIP3      OH2            20.2048898549       15.3599920078       30.4414261861  TIP3      2101            0.0000000000
     28622      2293  TIP3      H1             21.1649601760       15.2454078714       30.4121618671  TIP3      2101            0.0000000000
     28623      2293  TIP3      H2             20.1190737822       16.1782382711       30.9460733867  TIP3      2101            0.0000000000
     28624      2294  TIP3      OH2            29.3931808559       15.6075876413       34.9987781300  TIP3      2102            0.0000000000
     28625      2294  TIP3      H1             29.4486321881       16.4428971482       35.5211071901  TIP3      2102            0.0000000000
     28626      2294  TIP3      H2             28.5217727274       15.2411568529       35.2450294082  TIP3      2102            0.0000000000
     28627      2295  TIP3      OH2            29.8552466751       19.3599801314       24.8484429253  TIP3      2103            0.0000000000
     28628      2295  TIP3      H1             29.7798261178       19.2689820124       23.8735800389  TIP3      2103            0.0000000000
     28629      2295  TIP3      H2             29.8721219438       20.3292081304       24.9535511000  TIP3      2103            0.0000000000
     28630      2296  TIP3      OH2            23.4686136332       18.2135924156       26.6226825148  TIP3      2104            0.0000000000
     28631      2296  TIP3      H1             23.6423512274       17.8199763930       27.5075085154  TIP3      2104            0.0000000000
     28632      2296  TIP3      H2             22.6046195647       17.8366216107       26.4354965586  TIP3      2104            0.0000000000
     28633      2297  TIP3      OH2            32.5757684991       18.4935030011       24.5744009790  TIP3      2105            0.0000000000
     28634      2297  TIP3      H1             31.6159191434       18.5762308283       24.7230367185  TIP3      2105            0.0000000000
     28635      2297  TIP3      H2             32.8276130115       17.7579677911       25.1401665200  TIP3      2105            0.0000000000
     28636      2298  TIP3      OH2            35.2181307952        7.6138204764       36.6470233487  TIP3      2106            0.0000000000
     28637      2298  TIP3      H1             35.0767302643        8.0055243731       35.7830010439  TIP3      2106            0.0000000000
     28638      2298  TIP3      H2             35.6670301963        6.7700112318       36.3972260897  TIP3      2106            0.0000000000
     28639      2299  TIP3      OH2            22.7235913224       13.9421256353       34.6073864542  TIP3      2107            0.0000000000
     28640      2299  TIP3      H1             22.9426166711       13.5741767656       35.4933752725  TIP3      2107            0.0000000000
     28641      2299  TIP3      H2             21.8542438438       13.5457838655       34.3926466727  TIP3      2107            0.0000000000
     28642      2300  TIP3      OH2            25.4296450133        2.4114746702       30.5757557159  TIP3      2108            0.0000000000
     28643      2300  TIP3      H1             24.5335850039        2.2754430217       30.2018364948  TIP3      2108            0.0000000000
     28644      2300  TIP3      H2             25.2675388954        3.2525377243       31.0376697355  TIP3      2108            0.0000000000
     28645      2301  TIP3      OH2            30.0443769271        2.3195873927       34.1096578298  TIP3      2109            0.0000000000
     28646      2301  TIP3      H1             30.4667369120        1.8642462124       34.8667867881  TIP3      2109            0.0000000000
     28647      2301  TIP3      H2             29.0611305861        2.2321414382       34.2102166606  TIP3      2109            0.0000000000
     28648      2302  TIP3      OH2            33.2953308221        5.9221403051       34.7869090667  TIP3      2110            0.0000000000
     28649      2302  TIP3      H1             32.7755158366        5.7214104673       35.5982738116  TIP3      2110            0.0000000000
     28650      2302  TIP3      H2             33.1497310273        6.8695390772       34.6119595243  TIP3      2110            0.0000000000
     28651      2303  TIP3      OH2            25.5088145449        7.3889724581       31.8007208673  TIP3      2111            0.0000000000
     28652      2303  TIP3      H1             24.7783740560        7.3823477723       32.4448695551  TIP3      2111            0.0000000000
     28653      2303  TIP3      H2             25.4611847971        8.3041196337       31.4432012614  TIP3      2111            0.0000000000
     28654      2304  TIP3      OH2            25.4573726973        7.4969411171       26.6727408057  TIP3      2112            0.0000000000
     28655      2304  TIP3      H1             24.5156917852        7.2547749269       26.5468953668  TIP3      2112            0.0000000000
     28656      2304  TIP3      H2             25.8429826605        7.1987824443       25.8334215301  TIP3      2112            0.0000000000
     28657      2305  TIP3      OH2            30.9928388122        7.9901983516       25.4065902312  TIP3      2113            0.0000000000
     28658      2305  TIP3      H1             30.6272735444        8.8492300542       25.1093541541  TIP3      2113            0.0000000000
     28659      2305  TIP3      H2             31.7139832497        7.8324731379       24.7790415710  TIP3      2113            0.0000000000
     28660      2306  TIP3      OH2            30.0376477094        8.2152383739       36.8782603511  TIP3      2114            0.0000000000
     28661      2306  TIP3      H1             29.5291753447        7.4207854030       37.1717247171  TIP3      2114            0.0000000000
     28662      2306  TIP3      H2             30.8786848861        8.1064400925       37.3533891013  TIP3      2114            0.0000000000
     28663      2307  TIP3      OH2            32.0250958159        7.5371092648       28.2824054490  TIP3      2115            0.0000000000
     28664      2307  TIP3      H1             31.7370009579        8.0682941223       27.5241717234  TIP3      2115            0.0000000000
     28665      2307  TIP3      H2             32.0988843558        6.6650048791       27.8377394393  TIP3      2115            0.0000000000
     28666      2308  TIP3      OH2            23.1269474046        7.6421592817       33.5006375957  TIP3      2116            0.0000000000
     28667      2308  TIP3      H1             23.2373841518        8.0207973071       34.3955565776  TIP3      2116            0.0000000000
     28668      2308  TIP3      H2             22.6943356247        6.7972090830       33.7039105105  TIP3      2116            0.0000000000
     28669      2309  TIP3      OH2            19.7779219732        4.7472556480       27.4648976206  TIP3      2117            0.0000000000
     28670      2309  TIP3      H1             20.4562229923        4.7159497002       28.1707332169  TIP3      2117            0.0000000000
     28671      2309  TIP3      H2             20.2358980644        4.3674015279       26.6898156054  TIP3      2117            0.0000000000
     28672      2310  TIP3      OH2            21.0747576307        5.5238896231       22.8805584856  TIP3      2118            0.0000000000
     28673      2310  TIP3      H1             21.5779158139        6.0731152770       22.2642458372  TIP3      2118            0.0000000000
     28674      2310  TIP3      H2             20.3666703080        6.1290343407       23.1593742279  TIP3      2118            0.0000000000
     28675      2311  TIP3      OH2            31.2217235055        9.0767308594       32.8297941332  TIP3      2119            0.0000000000
     28676      2311  TIP3      H1             31.6152534517        8.3828402126       32.2565025480  TIP3      2119            0.0000000000
     28677      2311  TIP3      H2             30.7536555995        8.5546358797       33.5076322949  TIP3      2119            0.0000000000
     28678      2312  TIP3      OH2            27.9945772662        5.0162961197       27.6831728383  TIP3      2120            0.0000000000
     28679      2312  TIP3      H1             27.0670489034        5.0744406697       27.9886937138  TIP3      2120            0.0000000000
     28680      2312  TIP3      H2             28.5007278737        4.8986250330       28.4984418990  TIP3      2120            0.0000000000
     28681      2313  TIP3      OH2            22.8167847375        6.6149318001       26.5342406119  TIP3      2121            0.0000000000
     28682      2313  TIP3      H1             21.9262891616        6.7583283439       26.1513340801  TIP3      2121            0.0000000000
     28683      2313  TIP3      H2             23.1011091346        5.7762098544       26.1307307666  TIP3      2121            0.0000000000
     28684      2314  TIP3      OH2            26.4834268352        6.6602591684       24.1556406926  TIP3      2122            0.0000000000
     28685      2314  TIP3      H1             27.3996822834        6.8149430444       24.3944984417  TIP3      2122            0.0000000000
     28686      2314  TIP3      H2             26.2404348761        7.3728288267       23.5598889930  TIP3      2122            0.0000000000
     28687      2315  TIP3      OH2            32.3852727695        4.2429267944       30.9114217617  TIP3      2123            0.0000000000
     28688      2315  TIP3      H1             31.7206589229        4.3689948423       31.6192026022  TIP3      2123            0.0000000000
     28689      2315  TIP3      H2             31.8775411774        4.0940739046       30.0971622792  TIP3      2123            0.0000000000
     28690      2316  TIP3      OH2            35.5914267569       19.9463157339       37.2820816680  TIP3      2124            0.0000000000
     28691      2316  TIP3      H1             35.8975352119       20.2867078902       36.4278590345  TIP3      2124            0.0000000000
     28692      2316  TIP3      H2             36.3247298890       20.2454418698       37.8418291709  TIP3      2124            0.0000000000
     28693      2317  TIP3      OH2            23.3098092190       12.4288034727       36.8156495403  TIP3      2125            0.0000000000
     28694      2317  TIP3      H1             24.0115276419       12.6590115871       37.4483314249  TIP3      2125            0.0000000000
     28695      2317  TIP3      H2             22.5238325243       12.4793628480       37.4005343288  TIP3      2125            0.0000000000
     28696      2318  TIP3      OH2            29.3068435823        7.8163452574       29.5736982671  TIP3      2126            0.0000000000
     28697      2318  TIP3      H1             29.9125396545        7.2857368566       29.0392029060  TIP3      2126            0.0000000000
     28698      2318  TIP3      H2             29.1556458653        7.2623895400       30.3514234690  TIP3      2126            0.0000000000
     28699      2319  TIP3      OH2            24.3192067540        3.9878960588       25.9933169156  TIP3      2127            0.0000000000
     28700      2319  TIP3      H1             23.9779980095        3.0710066473       26.0212615462  TIP3      2127            0.0000000000
     28701      2319  TIP3      H2             25.1053237208        3.8754200070       25.4501292809  TIP3      2127            0.0000000000
     28702      2320  TIP3      OH2            27.9291388357        6.1410467726       32.0081887184  TIP3      2128            0.0000000000
     28703      2320  TIP3      H1             27.1117844570        6.6699085176       32.0932263561  TIP3      2128            0.0000000000
     28704      2320  TIP3      H2             28.5032514535        6.5011748976       32.7106077723  TIP3      2128            0.0000000000
     28705      2321  TIP3      OH2            35.5753564731       11.6190828402       32.4909381447  TIP3      2129            0.0000000000
     28706      2321  TIP3      H1             36.2110381534       11.8069744280       31.7722798519  TIP3      2129            0.0000000000
     28707      2321  TIP3      H2             34.7481972964       11.5973217001       31.9716906185  TIP3      2129            0.0000000000
     28708      2322  TIP3      OH2            30.0297399018       12.6311566276       34.9195485874  TIP3      2130            0.0000000000
     28709      2322  TIP3      H1             29.6652147101       12.2109567326       35.7070717766  TIP3      2130            0.0000000000
     28710      2322  TIP3      H2             29.7926478231       13.5588310426       35.0346267288  TIP3      2130            0.0000000000
     28711      2323  TIP3      OH2            33.0436942357        7.1037969921       23.4723324667  TIP3      2131            0.0000000000
     28712      2323  TIP3      H1             33.9338121674        6.9606377040       23.8562753451  TIP3      2131            0.0000000000
     28713      2323  TIP3      H2             33.1859862085        7.9077209279       22.9539943017  TIP3      2131            0.0000000000
     28714      2324  TIP3      OH2            23.6449232521       11.7686140622       29.4815272627  TIP3      2132            0.0000000000
     28715      2324  TIP3      H1             24.3262476970       11.6807620922       28.7873129603  TIP3      2132            0.0000000000
     28716      2324  TIP3      H2             23.7010185820       10.9102133083       29.9387529896  TIP3      2132            0.0000000000
     28717      2325  TIP3      OH2            20.6172520978       10.1690806417       34.7694593200  TIP3      2133            0.0000000000
     28718      2325  TIP3      H1             20.8246822062        9.7125828284       35.6044236335  TIP3      2133            0.0000000000
     28719      2325  TIP3      H2             20.0263722057        9.5404196367       34.3171722427  TIP3      2133            0.0000000000
     28720      2326  TIP3      OH2            27.6587221309        9.7503832476       36.9026158310  TIP3      2134            0.0000000000
     28721      2326  TIP3      H1             27.3059411846        9.3927552045       36.0747333145  TIP3      2134            0.0000000000
     28722      2326  TIP3      H2             28.5638187762        9.3850167580       36.9188300359  TIP3      2134            0.0000000000
     28723      2327  TIP3      OH2            32.3043649746       15.0486027945       34.8668032033  TIP3      2135            0.0000000000
     28724      2327  TIP3      H1             31.3838216385       15.2420859796       34.6445999908  TIP3      2135            0.0000000000
     28725      2327  TIP3      H2             32.3100927319       15.3458690091       35.7959857674  TIP3      2135            0.0000000000
     28726      2328  TIP3      OH2            36.1618034399       16.1037208518       23.6671667536  TIP3      2136            0.0000000000
     28727      2328  TIP3      H1             35.9278293615       15.2515202583       24.0427810399  TIP3      2136            0.0000000000
     28728      2328  TIP3      H2             36.5725554709       15.8842739886       22.8182451266  TIP3      2136            0.0000000000
     28729      2329  TIP3      OH2            33.4310870968       10.8625405923       30.7821740259  TIP3      2137            0.0000000000
     28730      2329  TIP3      H1             32.4904894610       10.6470182532       30.6313873557  TIP3      2137            0.0000000000
     28731      2329  TIP3      H2             33.9013612635       10.1296744287       30.3366923954  TIP3      2137            0.0000000000
     28732      2330  TIP3      OH2            25.9991582578       15.2250501479       26.9113672189  TIP3      2138            0.0000000000
     28733      2330  TIP3      H1             26.5193116759       16.0117873163       26.6614261008  TIP3      2138            0.0000000000
     28734      2330  TIP3      H2             25.1387293763       15.4571804399       26.5497785044  TIP3      2138            0.0000000000
     28735      2331  TIP3      OH2            27.4576725135       12.9073968176       26.4571108774  TIP3      2139            0.0000000000
     28736      2331  TIP3      H1             27.1079718646       13.8134513340       26.4610296878  TIP3      2139            0.0000000000
     28737      2331  TIP3      H2             26.7109215447       12.3979394623       26.8222613787  TIP3      2139            0.0000000000
     28738      2332  TIP3      OH2            27.8763631406       17.0717162355       32.8022547755  TIP3      2140            0.0000000000
     28739      2332  TIP3      H1             28.3424691394       17.8717247725       32.5101047434  TIP3      2140            0.0000000000
     28740      2332  TIP3      H2             28.4915095369       16.7255863262       33.4734583663  TIP3      2140            0.0000000000
     28741      2333  TIP3      OH2            26.1066840777       17.8265576220       26.0389197437  TIP3      2141            0.0000000000
     28742      2333  TIP3      H1             25.1520347626       18.0277122251       26.0731044478  TIP3      2141            0.0000000000
     28743      2333  TIP3      H2             26.4921062571       18.6956556279       26.2401520279  TIP3      2141            0.0000000000
     28744      2334  TIP3      OH2            31.4074918684       13.0553123360       32.4149956575  TIP3      2142            0.0000000000
     28745      2334  TIP3      H1             31.0775519193       12.8674487309       33.3207736646  TIP3      2142            0.0000000000
     28746      2334  TIP3      H2             32.0421915264       12.3402940656       32.2472101690  TIP3      2142            0.0000000000
     28747      2335  TIP3      OH2            34.1954905007       17.6773872257       34.8965597845  TIP3      2143            0.0000000000
     28748      2335  TIP3      H1             33.5261993796       17.1533043117       34.4160892769  TIP3      2143            0.0000000000
     28749      2335  TIP3      H2             34.4168891047       18.3502375075       34.2200554720  TIP3      2143            0.0000000000
     28750      2336  TIP3      OH2            22.3032321202        4.8916239468       34.3028857559  TIP3      2144            0.0000000000
     28751      2336  TIP3      H1             21.3960899272        5.2505564484       34.2776710402  TIP3      2144            0.0000000000
     28752      2336  TIP3      H2             22.1786444029        4.0467604186       34.7616501943  TIP3      2144            0.0000000000
     28753      2337  TIP3      OH2            34.5628976375       12.7868295915       23.8895735521  TIP3      2145            0.0000000000
     28754      2337  TIP3      H1             34.2992358793       11.9088987965       24.2538424174  TIP3      2145            0.0000000000
     28755      2337  TIP3      H2             35.5179972586       12.7418292883       23.9514191912  TIP3      2145            0.0000000000
     28756      2338  TIP3      OH2            21.8893358474       16.6828745775       32.7203070336  TIP3      2146            0.0000000000
     28757      2338  TIP3      H1             22.2101032375       15.7671686506       32.7228378375  TIP3      2146            0.0000000000
     28758      2338  TIP3      H2             22.1553016557       16.9741890176       33.5998714821  TIP3      2146            0.0000000000
     28759      2339  TIP3      OH2            23.1165212441       11.9766123435       22.8705845017  TIP3      2147            0.0000000000
     28760      2339  TIP3      H1             22.4940951863       12.3639185846       23.5131453425  TIP3      2147            0.0000000000
     28761      2339  TIP3      H2             23.7322310475       12.6933950123       22.6960051481  TIP3      2147            0.0000000000
     28762      2340  TIP3      OH2            31.0249781399        4.6792238756       33.2319097696  TIP3      2148            0.0000000000
     28763      2340  TIP3      H1             31.7330561223        4.7804268202       33.8777271045  TIP3      2148            0.0000000000
     28764      2340  TIP3      H2             30.6289731502        3.8296798412       33.4958411690  TIP3      2148            0.0000000000
     28765      2341  TIP3      OH2            31.7647841773        4.2690359945       24.2990001571  TIP3      2149            0.0000000000
     28766      2341  TIP3      H1             32.0279136327        4.7825350101       23.5341556726  TIP3      2149            0.0000000000
     28767      2341  TIP3      H2             32.3134819373        4.6603125744       24.9899506990  TIP3      2149            0.0000000000
     28768      2342  TIP3      OH2            29.5894470467        7.0253176551       34.3289938150  TIP3      2150            0.0000000000
     28769      2342  TIP3      H1             29.6424246112        7.5793503285       35.1351010344  TIP3      2150            0.0000000000
     28770      2342  TIP3      H2             30.2185598211        6.3053572131       34.4572251294  TIP3      2150            0.0000000000
     28771      2343  TIP3      OH2            29.7961098961        3.0622817230       26.0060464581  TIP3      2151            0.0000000000
     28772      2343  TIP3      H1             29.5088962733        3.6953081678       26.6861900000  TIP3      2151            0.0000000000
     28773      2343  TIP3      H2             30.5328731344        3.5909301647       25.6199554100  TIP3      2151            0.0000000000
     28774      2344  TIP3      OH2            35.6841601808        4.8252908026       35.1112902155  TIP3      2152            0.0000000000
     28775      2344  TIP3      H1             34.7787425444        5.2134541536       35.0616182246  TIP3      2152            0.0000000000
     28776      2344  TIP3      H2             35.9963471291        4.9256460876       34.2084650917  TIP3      2152            0.0000000000
     28777      2345  TIP3      OH2            34.3423978468        8.6860597490       29.2696313624  TIP3      2153            0.0000000000
     28778      2345  TIP3      H1             33.5233138524        8.2707271547       28.9181127129  TIP3      2153            0.0000000000
     28779      2345  TIP3      H2             34.7372683856        7.9336400063       29.7350516688  TIP3      2153            0.0000000000
     28780      2346  TIP3      OH2            22.0722193585        7.2676696610       20.9018078860  TIP3      2154            0.0000000000
     28781      2346  TIP3      H1             22.0719999206        8.2035996304       21.1149000663  TIP3      2154            0.0000000000
     28782      2346  TIP3      H2             21.1783761895        7.0555881179       20.6159494189  TIP3      2154            0.0000000000
     28783      2347  TIP3      OH2            35.4440000237       17.9419481786       30.8834981296  TIP3      2155            0.0000000000
     28784      2347  TIP3      H1             35.2745920526       18.6323995230       30.2134647784  TIP3      2155            0.0000000000
     28785      2347  TIP3      H2             36.3813155984       18.0375370466       31.0669676199  TIP3      2155            0.0000000000
     28786      2348  TIP3      OH2            22.8922841744        2.0564147791       29.6849305591  TIP3      2156            0.0000000000
     28787      2348  TIP3      H1             22.6939076077        2.0697465727       28.7217682285  TIP3      2156            0.0000000000
     28788      2348  TIP3      H2             22.4759476740        1.2072432905       29.9431070974  TIP3      2156            0.0000000000
     28789      2349  TIP3      OH2            21.7494934434       15.9374243872       25.6888531526  TIP3      2157            0.0000000000
     28790      2349  TIP3      H1             20.9742326443       16.4890474191       25.8499885689  TIP3      2157            0.0000000000
     28791      2349  TIP3      H2             22.3608266605       16.4890138653       25.2093096289  TIP3      2157            0.0000000000
     28792      2350  TIP3      OH2            21.0628413545       18.6650018446       37.1262404399  TIP3      2158            0.0000000000
     28793      2350  TIP3      H1             21.6404504620       18.4083998577       37.8707604501  TIP3      2158            0.0000000000
     28794      2350  TIP3      H2             20.6400985778       17.8041125115       36.9313799269  TIP3      2158            0.0000000000
     28795      2351  TIP3      OH2            25.7229826976       17.5319505097       38.7123292143  TIP3      2159            0.0000000000
     28796      2351  TIP3      H1             26.4917702807       17.0605891062       39.0568551584  TIP3      2159            0.0000000000
     28797      2351  TIP3      H2             25.7225138247       17.2422613471       37.7769709018  TIP3      2159            0.0000000000
     28798      2352  TIP3      OH2            32.2416395052       15.9394128965       37.4680224195  TIP3      2160            0.0000000000
     28799      2352  TIP3      H1             31.9315179849       15.0490126375       37.7336760353  TIP3      2160            0.0000000000
     28800      2352  TIP3      H2             33.0164218555       16.0572834445       38.0459553232  TIP3      2160            0.0000000000
     28801      2353  TIP3      OH2            20.9455824561       12.3757286707       38.1099731359  TIP3      2161            0.0000000000
     28802      2353  TIP3      H1             21.1388554289       11.4716027052       37.7892634371  TIP3      2161            0.0000000000
     28803      2353  TIP3      H2             20.2280379699       12.6514375094       37.5110454957  TIP3      2161            0.0000000000
     28804      2354  TIP3      OH2            27.7161765825       12.3998991400       37.4443968413  TIP3      2162            0.0000000000
     28805      2354  TIP3      H1             27.3314732179       12.7067049129       36.6051450464  TIP3      2162            0.0000000000
     28806      2354  TIP3      H2             27.7516470375       11.4193292885       37.3548949750  TIP3      2162            0.0000000000
     28807      2355  TIP3      OH2            33.3421172041       12.2133440189       34.8360024966  TIP3      2163            0.0000000000
     28808      2355  TIP3      H1             34.1319674914       12.8091057186       34.8071420675  TIP3      2163            0.0000000000
     28809      2355  TIP3      H2             32.6729835831       12.9041630551       34.9228191122  TIP3      2163            0.0000000000
     28810      2356  TIP3      OH2            21.8206429042        9.6323183302       37.4844967640  TIP3      2164            0.0000000000
     28811      2356  TIP3      H1             22.3087490734        8.8015323187       37.3859010710  TIP3      2164            0.0000000000
     28812      2356  TIP3      H2             21.6729889667        9.6398887217       38.4518940410  TIP3      2164            0.0000000000
     28813      2357  TIP3      OH2            26.4980230868       10.7083893230       22.5158895365  TIP3      2165            0.0000000000
     28814      2357  TIP3      H1             26.0241450815       10.2470234608       23.2182066410  TIP3      2165            0.0000000000
     28815      2357  TIP3      H2             26.8034307457       10.0509166462       21.8984147751  TIP3      2165            0.0000000000
     28816      2358  TIP3      OH2            25.8108212082        8.5839817933       34.8367590193  TIP3      2166            0.0000000000
     28817      2358  TIP3      H1             25.1805930435        9.2660894094       35.1190284590  TIP3      2166            0.0000000000
     28818      2358  TIP3      H2             26.1707292628        8.9629531079       34.0213799635  TIP3      2166            0.0000000000
     28819      2359  TIP3      OH2            30.8235776147       11.1621255418       38.3033862681  TIP3      2167            0.0000000000
     28820      2359  TIP3      H1             31.7569667886       11.1077428997       38.0397661296  TIP3      2167            0.0000000000
     28821      2359  TIP3      H2             30.6871780991       10.3397604683       38.7969327384  TIP3      2167            0.0000000000
     28822      2360  TIP3      OH2            26.2807237140        5.9370814655       35.8836115504  TIP3      2168            0.0000000000
     28823      2360  TIP3      H1             26.2908809922        5.2288293027       35.2202854252  TIP3      2168            0.0000000000
     28824      2360  TIP3      H2             26.1141455826        6.7539026302       35.3692256080  TIP3      2168            0.0000000000
     28825      2361  TIP3      OH2            26.6026311509        4.2741902293       33.4346222849  TIP3      2169            0.0000000000
     28826      2361  TIP3      H1             27.0793118998        4.8201119966       32.7604340091  TIP3      2169            0.0000000000
     28827      2361  TIP3      H2             25.6901876954        4.2668888837       33.0593960022  TIP3      2169            0.0000000000
     28828      2362  TIP3      OH2            28.1426146031        9.8341735931       33.6812301110  TIP3      2170            0.0000000000
     28829      2362  TIP3      H1             28.8950267211        9.6646383302       33.1093170604  TIP3      2170            0.0000000000
     28830      2362  TIP3      H2             27.7767494676       10.6692788784       33.3516673683  TIP3      2170            0.0000000000
     28831      2363  TIP3      OH2            32.5301056612        7.5712187556       38.6798252106  TIP3      2171            0.0000000000
     28832      2363  TIP3      H1             32.7570512798        6.6389324057       38.5514925586  TIP3      2171            0.0000000000
     28833      2363  TIP3      H2             33.4049286548        7.9871206138       38.6470352944  TIP3      2171            0.0000000000
     28834      2364  TIP3      OH2            33.8139321261       10.3931911184       36.8330568215  TIP3      2172            0.0000000000
     28835      2364  TIP3      H1             33.6032789707       11.1112931998       36.2077214418  TIP3      2172            0.0000000000
     28836      2364  TIP3      H2             34.7749581429       10.3335056402       36.6514674861  TIP3      2172            0.0000000000
     28837      2365  TIP3      OH2            24.3184050939        7.4373377383       37.1438584508  TIP3      2173            0.0000000000
     28838      2365  TIP3      H1             23.8433092719        6.7298168313       37.6402267970  TIP3      2173            0.0000000000
     28839      2365  TIP3      H2             25.1783426959        6.9754169814       37.2054937083  TIP3      2173            0.0000000000
     28840      2366  TIP3      OH2            27.4364173117        1.7357367254       33.7890172525  TIP3      2174            0.0000000000
     28841      2366  TIP3      H1             27.2084398177        2.7056471795       33.7501501483  TIP3      2174            0.0000000000
     28842      2366  TIP3      H2             26.6158664511        1.4113539973       33.3568890338  TIP3      2174            0.0000000000
     28843      2367  TIP3      OH2            28.6439420314        6.0909550311       37.4843699982  TIP3      2175            0.0000000000
     28844      2367  TIP3      H1             28.3294009505        5.8081162451       38.3626144356  TIP3      2175            0.0000000000
     28845      2367  TIP3      H2             27.8605776141        5.9107757590       36.9252677784  TIP3      2175            0.0000000000
     28846      2368  TIP3      OH2            31.3474786270        5.2351799332       36.5584693379  TIP3      2176            0.0000000000
     28847      2368  TIP3      H1             30.3885653569        5.2926711620       36.7099699379  TIP3      2176            0.0000000000
     28848      2368  TIP3      H2             31.6567222419        4.6130975500       37.2461805702  TIP3      2176            0.0000000000
     28849      2369  TIP3      OH2            32.9969635059        3.8644720529       38.4855894702  TIP3      2177            0.0000000000
     28850      2369  TIP3      H1             32.8736293342        2.8909936697       38.5031685683  TIP3      2177            0.0000000000
     28851      2369  TIP3      H2             32.6831162472        4.1582417481       39.3751257113  TIP3      2177            0.0000000000
     28852      2370  TIP3      OH2            22.6623119153        5.1092812749       37.5406090673  TIP3      2178            0.0000000000
     28853      2370  TIP3      H1             22.9898482307        4.3855027105       36.9941476943  TIP3      2178            0.0000000000
     28854      2370  TIP3      H2             22.7045467134        4.7521379974       38.4550207710  TIP3      2178            0.0000000000
     28855      2371  TIP3      OH2            27.5548900897        1.1036762459       36.4910030978  TIP3      2179            0.0000000000
     28856      2371  TIP3      H1             28.2526284879        0.4246077415       36.5688385506  TIP3      2179            0.0000000000
     28857      2371  TIP3      H2             27.4727208351        1.2959550115       35.5524575735  TIP3      2179            0.0000000000
     28858      2372  TIP3      OH2            28.1325426085        2.4918655636       38.5273548891  TIP3      2180            0.0000000000
     28859      2372  TIP3      H1             27.7839577615        2.1068701765       37.7063862559  TIP3      2180            0.0000000000
     28860      2372  TIP3      H2             27.5746508151        3.3007199293       38.5700330479  TIP3      2180            0.0000000000
     28861      2373  TIP3      OH2            19.7475078141       19.6540543790       26.2759832572  TIP3      2181            0.0000000000
     28862      2373  TIP3      H1             19.0425883073       19.1907754099       25.7795436070  TIP3      2181            0.0000000000
     28863      2373  TIP3      H2             20.0214343019       19.0046976003       26.9495586472  TIP3      2181            0.0000000000
     28864      2374  TIP3      OH2            20.5791028719       17.7509600625       28.1382176709  TIP3      2182            0.0000000000
     28865      2374  TIP3      H1             20.2175800655       16.8976244492       28.4074151097  TIP3      2182            0.0000000000
     28866      2374  TIP3      H2             20.8001468820       18.1232788423       29.0134239211  TIP3      2182            0.0000000000
     28867      2375  TIP3      OH2            35.9297173236       14.0366006546       38.5391420050  TIP3      2183            0.0000000000
     28868      2375  TIP3      H1             35.1821088574       13.8545886812       39.1282692003  TIP3      2183            0.0000000000
     28869      2375  TIP3      H2             36.4732782254       14.6288827216       39.0865696498  TIP3      2183            0.0000000000
     28870      2376  TIP3      OH2            36.1054028778       15.8176839986       33.3163962911  TIP3      2184            0.0000000000
     28871      2376  TIP3      H1             35.4474434452       16.2720148329       33.8621564480  TIP3      2184            0.0000000000
     28872      2376  TIP3      H2             35.5696108926       15.4897864905       32.5624113552  TIP3      2184            0.0000000000
     28873      2377  TIP3      OH2            36.6365633888        7.3303427901       20.9689047814  TIP3      2185            0.0000000000
     28874      2377  TIP3      H1             36.4031988281        8.0743206838       20.3415921765  TIP3      2185            0.0000000000
     28875      2377  TIP3      H2             36.2753868203        6.6093232697       20.4423117084  TIP3      2185            0.0000000000
     28876      2378  TIP3      OH2            35.2978751734        8.8286288233       26.6341617402  TIP3      2186            0.0000000000
     28877      2378  TIP3      H1             35.3917761035        7.8675706904       26.6442507423  TIP3      2186            0.0000000000
     28878      2378  TIP3      H2             35.2416048411        9.0328288213       27.5877190969  TIP3      2186            0.0000000000
     28879      2379  TIP3      OH2            20.6350718480       10.8633733050       30.6436498514  TIP3      2187            0.0000000000
     28880      2379  TIP3      H1             20.8082125991       10.7818420298       29.6807910896  TIP3      2187            0.0000000000
     28881      2379  TIP3      H2             21.5291959193       10.6821408607       30.9925864855  TIP3      2187            0.0000000000
     28882      2380  TIP3      OH2           -37.0329030971       10.7604242865       36.5353688659  TIP3      2188            0.0000000000
     28883      2380  TIP3      H1            -36.4431675368        9.9909329637       36.5484501746  TIP3      2188            0.0000000000
     28884      2380  TIP3      H2            -36.4768325208       11.4930279450       36.2259699677  TIP3      2188            0.0000000000
     28885      2381  TIP3      OH2            35.2852397931        6.3202768064       24.9632138510  TIP3      2189            0.0000000000
     28886      2381  TIP3      H1             35.5568595653        5.4306274339       25.2708814098  TIP3      2189            0.0000000000
     28887      2381  TIP3      H2             36.0792925992        6.6616821373       24.5637603668  TIP3      2189            0.0000000000
     28888      2382  TIP3      OH2            35.5280131696        6.3842965839       30.4255248754  TIP3      2190            0.0000000000
     28889      2382  TIP3      H1             36.4732775560        6.5088048740       30.2531133163  TIP3      2190            0.0000000000
     28890      2382  TIP3      H2             35.5429490636        6.8906995508       31.2585349859  TIP3      2190            0.0000000000
     28891      2383  TIP3      OH2            35.9788572845        7.6341485888       33.3754148369  TIP3      2191            0.0000000000
     28892      2383  TIP3      H1             35.0828321710        7.9339785313       33.5989304946  TIP3      2191            0.0000000000
     28893      2383  TIP3      H2             36.3905607819        8.4097832357       32.9622508292  TIP3      2191            0.0000000000
     28894      2384  TIP3      OH2            20.2341975069        6.1495502784       36.7547237061  TIP3      2192            0.0000000000
     28895      2384  TIP3      H1             21.1771843163        5.9619047179       36.9714984944  TIP3      2192            0.0000000000
     28896      2384  TIP3      H2             19.8103734265        5.3330524788       37.0879434927  TIP3      2192            0.0000000000
     28897      2385  TIP3      OH2            35.1620524587        3.4180166694       25.6040782141  TIP3      2193            0.0000000000
     28898      2385  TIP3      H1             36.0532873512        3.2026997060       25.9248208533  TIP3      2193            0.0000000000
     28899      2385  TIP3      H2             35.1637492066        2.9162089044       24.7597473927  TIP3      2193            0.0000000000
     28900      2386  TIP3      OH2            21.4535227611        4.4533345356       29.6422888519  TIP3      2194            0.0000000000
     28901      2386  TIP3      H1             21.9162096049        3.6294981962       29.9024953835  TIP3      2194            0.0000000000
     28902      2386  TIP3      H2             22.0062440802        5.1476430536       30.0244432602  TIP3      2194            0.0000000000
     28903      2387  TIP3      OH2            19.7355074118        7.4561824601       30.6774317906  TIP3      2195            0.0000000000
     28904      2387  TIP3      H1             20.2991798329        7.2025993309       29.9184359779  TIP3      2195            0.0000000000
     28905      2387  TIP3      H2             20.2062527706        8.2578926864       30.9469469723  TIP3      2195            0.0000000000
     28906      2388  TIP3      OH2            20.0734332298        3.7477331362       24.7724861629  TIP3      2196            0.0000000000
     28907      2388  TIP3      H1             19.1382445998        3.9244477255       24.6149828956  TIP3      2196            0.0000000000
     28908      2388  TIP3      H2             20.5117453533        4.1982502346       24.0254177491  TIP3      2196            0.0000000000
     28909      2389  TIP3      OH2            34.7004374474       18.5492944901       26.7680706310  TIP3      2197            0.0000000000
     28910      2389  TIP3      H1             35.3345741960       18.2006818260       26.1247214656  TIP3      2197            0.0000000000
     28911      2389  TIP3      H2             35.2411410790       19.1417358144       27.3199856484  TIP3      2197            0.0000000000
     28912      2390  TIP3      OH2            20.0458883637        2.3606421624       33.0407179250  TIP3      2198            0.0000000000
     28913      2390  TIP3      H1             19.3819678896        2.1726855232       33.7274224070  TIP3      2198            0.0000000000
     28914      2390  TIP3      H2             19.5920021266        3.0373064618       32.5041305194  TIP3      2198            0.0000000000
     28915      2391  TIP3      OH2            22.2937681276       15.5916942074       37.2193284614  TIP3      2199            0.0000000000
     28916      2391  TIP3      H1             21.4483115897       15.7859779926       36.7853573148  TIP3      2199            0.0000000000
     28917      2391  TIP3      H2             22.0247994038       15.5073875371       38.1414921389  TIP3      2199            0.0000000000
     28918      2392  TIP3      OH2            25.1847210770       16.5784105926       33.5089707568  TIP3      2200            0.0000000000
     28919      2392  TIP3      H1             24.8613796096       17.4444547276       33.2209109818  TIP3      2200            0.0000000000
     28920      2392  TIP3      H2             26.1086471516       16.6546199534       33.1889527451  TIP3      2200            0.0000000000
     28921      2393  TIP3      OH2            29.5066596062       18.0074789746       36.3895793046  TIP3      2201            0.0000000000
     28922      2393  TIP3      H1             29.6340324922       17.6487829693       37.3018575881  TIP3      2201            0.0000000000
     28923      2393  TIP3      H2             30.4135434420       18.2974825733       36.1618907475  TIP3      2201            0.0000000000
     28924      2394  TIP3      OH2            31.8189810832       19.2709797084       35.7016079006  TIP3      2202            0.0000000000
     28925      2394  TIP3      H1             32.5617246999       18.6911793001       35.4698607460  TIP3      2202            0.0000000000
     28926      2394  TIP3      H2             32.1783571363       19.7099142011       36.5010170268  TIP3      2202            0.0000000000
     28927      2395  TIP3      OH2            22.6282280460       19.8400575262       33.4985814128  TIP3      2203            0.0000000000
     28928      2395  TIP3      H1             21.8837697980       20.2986720909       33.0723004632  TIP3      2203            0.0000000000
     28929      2395  TIP3      H2             22.2888999926       19.5969901040       34.3670277609  TIP3      2203            0.0000000000
     28930      2396  TIP3      OH2            25.0788324739       19.3828188282       32.5510866984  TIP3      2204            0.0000000000
     28931      2396  TIP3      H1             24.1901628507       19.5467516758       32.9473388662  TIP3      2204            0.0000000000
     28932      2396  TIP3      H2             25.0304191538       19.9748105236       31.7783663013  TIP3      2204            0.0000000000
     28933      2397  TIP3      OH2            29.7883513668       19.2928829854       31.7321339419  TIP3      2205            0.0000000000
     28934      2397  TIP3      H1             29.3286607232       19.8505699329       31.0819520427  TIP3      2205            0.0000000000
     28935      2397  TIP3      H2             29.9191975157       19.9317414827       32.4651601447  TIP3      2205            0.0000000000
     28936      2398  TIP3      OH2            32.0883804771       18.0974109550       32.7536066033  TIP3      2206            0.0000000000
     28937      2398  TIP3      H1             31.2301167074       18.3708526948       32.3883353244  TIP3      2206            0.0000000000
     28938      2398  TIP3      H2             32.5435626089       18.9524457586       32.6791235953  TIP3      2206            0.0000000000
     28939      2399  TIP3      OH2            34.6260239995       19.7244292436       32.9863572688  TIP3      2207            0.0000000000
     28940      2399  TIP3      H1             34.5527997150       20.6690504490       32.7494379377  TIP3      2207            0.0000000000
     28941      2399  TIP3      H2             34.8936986024       19.3220821775       32.1391090509  TIP3      2207            0.0000000000
     28942      2400  TIP3      OH2            22.0735899568       18.4566002177       30.4287849699  TIP3      2208            0.0000000000
     28943      2400  TIP3      H1             21.9936262626       17.9902399130       31.2862824040  TIP3      2208            0.0000000000
     28944      2400  TIP3      H2             22.8893914346       18.0752444893       30.0382410956  TIP3      2208            0.0000000000
     28945      2401  TIP3      OH2            24.1409125316       17.1635125216       29.0789513921  TIP3      2209            0.0000000000
     28946      2401  TIP3      H1             23.9888656899       16.2307932086       29.3213257779  TIP3      2209            0.0000000000
     28947      2401  TIP3      H2             25.0044405035       17.3271851363       29.5179457717  TIP3      2209            0.0000000000
     28948      2402  TIP3      OH2            26.7344790058       17.6621607147       29.9661580989  TIP3      2210            0.0000000000
     28949      2402  TIP3      H1             26.9005836089       16.7421131893       29.6869593082  TIP3      2210            0.0000000000
     28950      2402  TIP3      H2             26.7973705396       17.5961109283       30.9285027039  TIP3      2210            0.0000000000
     28951      2403  TIP3      OH2            30.2226758972        3.3007579468       29.0964293149  TIP3      2211            0.0000000000
     28952      2403  TIP3      H1             29.5200003315        2.6772439852       29.3293864800  TIP3      2211            0.0000000000
     28953      2403  TIP3      H2             30.7724061731        2.7832492153       28.4988801922  TIP3      2211            0.0000000000
     28954      2404  TIP3      OH2            35.3614490601        1.3424256000       29.1783546824  TIP3      2212            0.0000000000
     28955      2404  TIP3      H1             35.9015704305        1.9774724193       28.6878164933  TIP3      2212            0.0000000000
     28956      2404  TIP3      H2             34.4616287533        1.6796996460       28.9663692685  TIP3      2212            0.0000000000
     28957      2405  TIP3      OH2            22.5965212487        1.9305399119       26.9403891650  TIP3      2213            0.0000000000
     28958      2405  TIP3      H1             21.7855634581        1.7440190223       26.4299190675  TIP3      2213            0.0000000000
     28959      2405  TIP3      H2             23.0395791385        1.0660525361       26.8816635395  TIP3      2213            0.0000000000
     28960      2406  TIP3      OH2            21.3602662769        1.6947952200       22.7800795015  TIP3      2214            0.0000000000
     28961      2406  TIP3      H1             21.7936565300        2.2694349988       22.1151752689  TIP3      2214            0.0000000000
     28962      2406  TIP3      H2             20.7419551314        2.2945042539       23.2013574409  TIP3      2214            0.0000000000
     28963      2407  TIP3      OH2            27.0260092427        1.8249316238       26.7421391061  TIP3      2215            0.0000000000
     28964      2407  TIP3      H1             27.9178707709        2.2154668435       26.6466237955  TIP3      2215            0.0000000000
     28965      2407  TIP3      H2             27.0060608138        1.6281367728       27.6818545975  TIP3      2215            0.0000000000
     28966      2408  TIP3      OH2            32.8147264674        1.8415795301       28.3354321843  TIP3      2216            0.0000000000
     28967      2408  TIP3      H1             32.7313233901        2.0047478391       27.3882844200  TIP3      2216            0.0000000000
     28968      2408  TIP3      H2             32.3787523042        0.9644261293       28.4634360203  TIP3      2216            0.0000000000
     28969      2409  TIP3      OH2            33.8781319178        1.7962477086       23.9557015524  TIP3      2217            0.0000000000
     28970      2409  TIP3      H1             33.2168637330        2.4923484940       23.8725309137  TIP3      2217            0.0000000000
     28971      2409  TIP3      H2             33.4058750543        0.9938520002       24.2574157827  TIP3      2217            0.0000000000
     28972      2410  TIP3      OH2            30.1749736814       18.8362868741       22.0343231683  TIP3      2218            0.0000000000
     28973      2410  TIP3      H1             31.0051803037       19.2700743598       21.7792506774  TIP3      2218            0.0000000000
     28974      2410  TIP3      H2             29.8674607255       18.5257281491       21.1705816804  TIP3      2218            0.0000000000
     28975      2411  TIP3      OH2            22.4698873590        2.4486651974       36.3675891099  TIP3      2219            0.0000000000
     28976      2411  TIP3      H1             22.0720733226        1.6782127856       36.8147883902  TIP3      2219            0.0000000000
     28977      2411  TIP3      H2             23.3684444796        2.4367872593       36.7775684184  TIP3      2219            0.0000000000
     28978      2412  TIP3      OH2            24.4497721494        1.8360393028       37.9829072561  TIP3      2220            0.0000000000
     28979      2412  TIP3      H1             25.3513150159        1.5109292996       37.8064050131  TIP3      2220            0.0000000000
     28980      2412  TIP3      H2             24.0869571507        1.0688702708       38.4698019313  TIP3      2220            0.0000000000
     28981      2413  TIP3      OH2            32.8358124609        1.1754414218       38.1174424379  TIP3      2221            0.0000000000
     28982      2413  TIP3      H1             32.9346380825        0.7005260521       38.9727034349  TIP3      2221            0.0000000000
     28983      2413  TIP3      H2             33.7636372354        1.1147523297       37.8190052395  TIP3      2221            0.0000000000
     28984      2414  TIP3      OH2            35.9669141899       17.1464970199       36.9532365212  TIP3      2222            0.0000000000
     28985      2414  TIP3      H1             35.2922659068       17.0155793322       36.2616509119  TIP3      2222            0.0000000000
     28986      2414  TIP3      H2             35.9069143872       18.1271486069       37.0244681993  TIP3      2222            0.0000000000
     28987      2415  TIP3      OH2           -24.8980790690       29.9225902343       26.7938257473  TIP3      2223            0.0000000000
     28988      2415  TIP3      H1            -24.9235809168       30.9055270501       26.7494229684  TIP3      2223            0.0000000000
     28989      2415  TIP3      H2            -25.6383978418       29.6891781520       26.2144622850  TIP3      2223            0.0000000000
     28990      2416  TIP3      OH2           -26.0158209137       29.1706557062       30.2882099098  TIP3      2224            0.0000000000
     28991      2416  TIP3      H1            -26.0659219262       28.5410268433       31.0197535991  TIP3      2224            0.0000000000
     28992      2416  TIP3      H2            -26.4022894419       28.6761164364       29.5464597078  TIP3      2224            0.0000000000
     28993      2417  TIP3      OH2           -33.6162586449       28.7995554226       31.7871672168  TIP3      2225            0.0000000000
     28994      2417  TIP3      H1            -33.6241635963       28.1859592523       32.5498316796  TIP3      2225            0.0000000000
     28995      2417  TIP3      H2            -32.9568600405       29.4492537041       32.0782689735  TIP3      2225            0.0000000000
     28996      2418  TIP3      OH2           -22.3155392690       32.0716035015       28.6185412438  TIP3      2226            0.0000000000
     28997      2418  TIP3      H1            -22.8279107945       31.4173398557       29.0936942211  TIP3      2226            0.0000000000
     28998      2418  TIP3      H2            -22.3396713092       32.8320906795       29.2311152243  TIP3      2226            0.0000000000
     28999      2419  TIP3      OH2           -32.7898744205       33.2644003527       30.4236929997  TIP3      2227            0.0000000000
     29000      2419  TIP3      H1            -33.0941501782       32.4151164398       30.0494432630  TIP3      2227            0.0000000000
     29001      2419  TIP3      H2            -31.8271317948       33.1251740596       30.3894954425  TIP3      2227            0.0000000000
     29002      2420  TIP3      OH2           -35.9468422437       26.8570698450       25.5781605052  TIP3      2228            0.0000000000
     29003      2420  TIP3      H1            -36.4546769478       27.6693515159       25.7835575528  TIP3      2228            0.0000000000
     29004      2420  TIP3      H2            -36.6366755139       26.2833934844       25.2489778089  TIP3      2228            0.0000000000
     29005      2421  TIP3      OH2           -35.4450007597       29.0427128117       27.9429838026  TIP3      2229            0.0000000000
     29006      2421  TIP3      H1            -35.1628188295       28.2678267288       28.4514111887  TIP3      2229            0.0000000000
     29007      2421  TIP3      H2            -34.7161718646       29.1945395390       27.3318286114  TIP3      2229            0.0000000000
     29008      2422  TIP3      OH2           -27.6902915351       31.5413303402       30.7943825956  TIP3      2230            0.0000000000
     29009      2422  TIP3      H1            -27.3491677516       30.9451241211       30.1136136258  TIP3      2230            0.0000000000
     29010      2422  TIP3      H2            -26.8700482134       31.7407785777       31.2781587148  TIP3      2230            0.0000000000
     29011      2423  TIP3      OH2           -19.1036108702       23.2665651731       31.4774486022  TIP3      2231            0.0000000000
     29012      2423  TIP3      H1            -18.8993201756       23.8104397941       32.2708310188  TIP3      2231            0.0000000000
     29013      2423  TIP3      H2            -18.4914811298       23.6472441445       30.8365371385  TIP3      2231            0.0000000000
     29014      2424  TIP3      OH2           -24.5213115263       26.0451961572       31.0865899969  TIP3      2232            0.0000000000
     29015      2424  TIP3      H1            -24.3337851333       25.0892317553       31.0958891534  TIP3      2232            0.0000000000
     29016      2424  TIP3      H2            -24.6326951453       26.1754956815       30.1274197684  TIP3      2232            0.0000000000
     29017      2425  TIP3      OH2           -31.4127373736       24.1664548788       28.3417646281  TIP3      2233            0.0000000000
     29018      2425  TIP3      H1            -31.2859664358       24.9539702439       27.7590860500  TIP3      2233            0.0000000000
     29019      2425  TIP3      H2            -31.7749298786       23.5694440964       27.6337687748  TIP3      2233            0.0000000000
     29020      2426  TIP3      OH2           -23.6765626627       24.2029604999       26.6786979646  TIP3      2234            0.0000000000
     29021      2426  TIP3      H1            -23.0134101144       23.8862529517       27.3344614815  TIP3      2234            0.0000000000
     29022      2426  TIP3      H2            -23.1280318789       24.7660388108       26.1134803295  TIP3      2234            0.0000000000
     29023      2427  TIP3      OH2           -34.7392265239       26.5555261757       28.9244554289  TIP3      2235            0.0000000000
     29024      2427  TIP3      H1            -34.1439012166       25.9934627366       29.4293762123  TIP3      2235            0.0000000000
     29025      2427  TIP3      H2            -34.6178950120       26.2026990533       28.0272978933  TIP3      2235            0.0000000000
     29026      2428  TIP3      OH2           -29.6587426194       28.0698337640       28.4109764373  TIP3      2236            0.0000000000
     29027      2428  TIP3      H1            -28.9127998355       27.5275447750       28.7155752176  TIP3      2236            0.0000000000
     29028      2428  TIP3      H2            -30.1086351284       27.4499130988       27.8017377265  TIP3      2236            0.0000000000
     29029      2429  TIP3      OH2           -18.6369778820       24.6362133568       33.7782866364  TIP3      2237            0.0000000000
     29030      2429  TIP3      H1            -19.2443523610       25.4004818769       33.6735024142  TIP3      2237            0.0000000000
     29031      2429  TIP3      H2            -18.6024650100       24.5613544208       34.7396553132  TIP3      2237            0.0000000000
     29032      2430  TIP3      OH2           -32.4334174215       23.1426188797       32.3154154928  TIP3      2238            0.0000000000
     29033      2430  TIP3      H1            -32.9094837740       23.5569491334       31.5725812628  TIP3      2238            0.0000000000
     29034      2430  TIP3      H2            -33.1449796550       23.2361154409       33.0161348594  TIP3      2238            0.0000000000
     29035      2431  TIP3      OH2           -25.2008470472       32.5069002662       25.8751214035  TIP3      2239            0.0000000000
     29036      2431  TIP3      H1            -25.5071731648       32.2674695620       24.9866668405  TIP3      2239            0.0000000000
     29037      2431  TIP3      H2            -25.4870101339       33.4370641239       25.9460362459  TIP3      2239            0.0000000000
     29038      2432  TIP3      OH2           -29.9482199796       30.6738770592       32.5923403809  TIP3      2240            0.0000000000
     29039      2432  TIP3      H1            -30.6764287008       31.3005049536       32.8041782280  TIP3      2240            0.0000000000
     29040      2432  TIP3      H2            -29.2597418392       31.2807901576       32.2855963731  TIP3      2240            0.0000000000
     29041      2433  TIP3      OH2           -21.8342217234       23.5870914978       28.6637942180  TIP3      2241            0.0000000000
     29042      2433  TIP3      H1            -22.0659910509       22.8077111300       29.1786716335  TIP3      2241            0.0000000000
     29043      2433  TIP3      H2            -21.1598140633       23.9868974011       29.2289968438  TIP3      2241            0.0000000000
     29044      2434  TIP3      OH2           -33.0305503779       24.7952186540       30.3356353754  TIP3      2242            0.0000000000
     29045      2434  TIP3      H1            -32.7505201948       25.7092384421       30.5442054218  TIP3      2242            0.0000000000
     29046      2434  TIP3      H2            -32.5584358386       24.5094104520       29.5018142852  TIP3      2242            0.0000000000
     29047      2435  TIP3      OH2           -31.5328128509       32.6650648145       33.3913376276  TIP3      2243            0.0000000000
     29048      2435  TIP3      H1            -31.5871136033       33.5750803375       33.0494308673  TIP3      2243            0.0000000000
     29049      2435  TIP3      H2            -32.4260937965       32.6098173480       33.8038235462  TIP3      2243            0.0000000000
     29050      2436  TIP3      OH2           -35.4727446839       32.3579423392       24.2011399766  TIP3      2244            0.0000000000
     29051      2436  TIP3      H1            -35.6662261597       32.5838978992       23.2612942493  TIP3      2244            0.0000000000
     29052      2436  TIP3      H2            -35.3569231441       33.1790532865       24.6877886780  TIP3      2244            0.0000000000
     29053      2437  TIP3      OH2           -21.8163360316       34.0019526879       30.9932955556  TIP3      2245            0.0000000000
     29054      2437  TIP3      H1            -22.7964998203       34.0424549580       31.0658343332  TIP3      2245            0.0000000000
     29055      2437  TIP3      H2            -21.5622240870       34.9007323310       30.7295988868  TIP3      2245            0.0000000000
     29056      2438  TIP3      OH2           -21.5175987488       22.2462520855       32.3410619780  TIP3      2246            0.0000000000
     29057      2438  TIP3      H1            -22.2382341361       22.8823653323       32.2431054457  TIP3      2246            0.0000000000
     29058      2438  TIP3      H2            -20.8010632500       22.6638713605       31.8184603195  TIP3      2246            0.0000000000
     29059      2439  TIP3      OH2           -28.5558831038       20.3910454347       29.8170223606  TIP3      2247            0.0000000000
     29060      2439  TIP3      H1            -28.6753701588       19.4213994344       29.7251534511  TIP3      2247            0.0000000000
     29061      2439  TIP3      H2            -29.4452264375       20.6609780956       30.1151698761  TIP3      2247            0.0000000000
     29062      2440  TIP3      OH2           -23.5376529833       35.5231096950       27.4723922883  TIP3      2248            0.0000000000
     29063      2440  TIP3      H1            -23.0581456658       34.8878092815       26.9099263067  TIP3      2248            0.0000000000
     29064      2440  TIP3      H2            -23.1823037220       36.3503125546       27.1375035494  TIP3      2248            0.0000000000
     29065      2441  TIP3      OH2           -22.3161034626       33.6461275761       26.0294011129  TIP3      2249            0.0000000000
     29066      2441  TIP3      H1            -22.6829575283       32.9702548416       25.4434307341  TIP3      2249            0.0000000000
     29067      2441  TIP3      H2            -22.3303456913       33.1830887898       26.8888750680  TIP3      2249            0.0000000000
     29068      2442  TIP3      OH2           -20.7553420948       32.2772882784       34.5424045798  TIP3      2250            0.0000000000
     29069      2442  TIP3      H1            -20.6074846531       31.6082426790       33.8426273986  TIP3      2250            0.0000000000
     29070      2442  TIP3      H2            -20.5154831758       33.1109242349       34.1024932709  TIP3      2250            0.0000000000
     29071      2443  TIP3      OH2           -26.2275886834       29.1287626935       24.2962925117  TIP3      2251            0.0000000000
     29072      2443  TIP3      H1            -26.9006339171       29.7681869134       23.9706829179  TIP3      2251            0.0000000000
     29073      2443  TIP3      H2            -25.5195134868       29.2607103654       23.6345224246  TIP3      2251            0.0000000000
     29074      2444  TIP3      OH2           -18.8840553080       28.5619618539       32.5465678683  TIP3      2252            0.0000000000
     29075      2444  TIP3      H1            -19.5146567615       29.3081334553       32.6459446262  TIP3      2252            0.0000000000
     29076      2444  TIP3      H2            -18.3247486441       28.8558704647       31.8129883511  TIP3      2252            0.0000000000
     29077      2445  TIP3      OH2           -22.7900237743       29.3608949991       25.2247592249  TIP3      2253            0.0000000000
     29078      2445  TIP3      H1            -23.5382704803       29.6313437293       25.8210093434  TIP3      2253            0.0000000000
     29079      2445  TIP3      H2            -22.3359640036       28.7099840405       25.7713414974  TIP3      2253            0.0000000000
     29080      2446  TIP3      OH2           -22.8680261365       27.5389473862       34.3602741232  TIP3      2254            0.0000000000
     29081      2446  TIP3      H1            -22.8661760410       28.3624911649       34.8734802869  TIP3      2254            0.0000000000
     29082      2446  TIP3      H2            -23.5003929715       27.8234875469       33.6645055491  TIP3      2254            0.0000000000
     29083      2447  TIP3      OH2           -31.1671246235       30.0415388716       27.1697385899  TIP3      2255            0.0000000000
     29084      2447  TIP3      H1            -31.5082868083       29.6584916643       26.3288251696  TIP3      2255            0.0000000000
     29085      2447  TIP3      H2            -30.5553934759       29.3467357356       27.4878410665  TIP3      2255            0.0000000000
     29086      2448  TIP3      OH2           -29.8539642270       33.3855488959       29.8104663714  TIP3      2256            0.0000000000
     29087      2448  TIP3      H1            -29.8588569833       32.8602463015       29.0119693344  TIP3      2256            0.0000000000
     29088      2448  TIP3      H2            -29.0788719202       33.0565963461       30.2972495952  TIP3      2256            0.0000000000
     29089      2449  TIP3      OH2           -30.8536525608       28.7856407850       30.7865411020  TIP3      2257            0.0000000000
     29090      2449  TIP3      H1            -30.2954480351       28.9085747262       29.9920585806  TIP3      2257            0.0000000000
     29091      2449  TIP3      H2            -30.4913125924       29.4546258832       31.4126089856  TIP3      2257            0.0000000000
     29092      2450  TIP3      OH2           -24.4536178501       34.3490487064       31.5172436139  TIP3      2258            0.0000000000
     29093      2450  TIP3      H1            -24.7785384449       34.9953807887       32.1358026875  TIP3      2258            0.0000000000
     29094      2450  TIP3      H2            -24.7173744373       33.4974719012       31.9376586611  TIP3      2258            0.0000000000
     29095      2451  TIP3      OH2           -29.8971515571       33.2427771457       35.5092512522  TIP3      2259            0.0000000000
     29096      2451  TIP3      H1            -30.3392930814       33.9621618225       36.0081175695  TIP3      2259            0.0000000000
     29097      2451  TIP3      H2            -30.5730010584       33.0145291287       34.8200928679  TIP3      2259            0.0000000000
     29098      2452  TIP3      OH2           -23.9425351811       28.5578346243       22.8995342572  TIP3      2260            0.0000000000
     29099      2452  TIP3      H1            -23.3974690490       28.7444859888       23.7018012166  TIP3      2260            0.0000000000
     29100      2452  TIP3      H2            -23.5167766810       29.0841802377       22.2124561109  TIP3      2260            0.0000000000
     29101      2453  TIP3      OH2           -32.9251059265       29.3838728885       34.7023998298  TIP3      2261            0.0000000000
     29102      2453  TIP3      H1            -32.9029969002       30.0776610674       35.3845612583  TIP3      2261            0.0000000000
     29103      2453  TIP3      H2            -33.8631920157       29.4398527049       34.4429979100  TIP3      2261            0.0000000000
     29104      2454  TIP3      OH2           -26.2462698282       35.2807899492       26.4115363957  TIP3      2262            0.0000000000
     29105      2454  TIP3      H1            -25.7225433883       35.6044868157       27.1511105325  TIP3      2262            0.0000000000
     29106      2454  TIP3      H2            -26.7521744580       36.0468807055       26.1149317678  TIP3      2262            0.0000000000
     29107      2455  TIP3      OH2           -31.6792514249       35.2729773209       36.2204525626  TIP3      2263            0.0000000000
     29108      2455  TIP3      H1            -31.7594423994       35.1336856199       35.2535621098  TIP3      2263            0.0000000000
     29109      2455  TIP3      H2            -32.5987479230       35.0979790089       36.5076636339  TIP3      2263            0.0000000000
     29110      2456  TIP3      OH2           -20.2300146406       20.3152474376       22.8408602915  TIP3      2264            0.0000000000
     29111      2456  TIP3      H1            -21.1808247650       20.4386387515       23.0513334020  TIP3      2264            0.0000000000
     29112      2456  TIP3      H2            -20.0014447668       21.1186249826       22.3579364661  TIP3      2264            0.0000000000
     29113      2457  TIP3      OH2           -32.1613077522       29.0380487530       24.7500407800  TIP3      2265            0.0000000000
     29114      2457  TIP3      H1            -32.4806209733       29.8329296837       24.2828301957  TIP3      2265            0.0000000000
     29115      2457  TIP3      H2            -32.8872141547       28.4243435910       24.5833921583  TIP3      2265            0.0000000000
     29116      2458  TIP3      OH2           -35.6978656934       31.4024005611       33.4547960818  TIP3      2266            0.0000000000
     29117      2458  TIP3      H1            -36.4141743435       31.4423688038       32.7956701789  TIP3      2266            0.0000000000
     29118      2458  TIP3      H2            -35.9643561719       30.5521675923       33.8506543847  TIP3      2266            0.0000000000
     29119      2459  TIP3      OH2           -36.1926676933       34.4093359321       30.2602823856  TIP3      2267            0.0000000000
     29120      2459  TIP3      H1            -35.3165159053       34.0683510019       30.4798406297  TIP3      2267            0.0000000000
     29121      2459  TIP3      H2            -36.3625893046       35.0047383264       30.9968046060  TIP3      2267            0.0000000000
     29122      2460  TIP3      OH2           -18.1531421333       34.9205592631       36.1877163330  TIP3      2268            0.0000000000
     29123      2460  TIP3      H1            -18.2798338848       33.9646838222       36.1011286942  TIP3      2268            0.0000000000
     29124      2460  TIP3      H2            -19.0352929607       35.1903059540       36.5327817409  TIP3      2268            0.0000000000
     29125      2461  TIP3      OH2           -27.2091719068       34.5070647867       34.9424306162  TIP3      2269            0.0000000000
     29126      2461  TIP3      H1            -27.0831930250       35.2616705871       35.5210200401  TIP3      2269            0.0000000000
     29127      2461  TIP3      H2            -28.0387256614       34.0905012599       35.2554934747  TIP3      2269            0.0000000000
     29128      2462  TIP3      OH2           -20.9873922825       26.3923546521       36.5805642488  TIP3      2270            0.0000000000
     29129      2462  TIP3      H1            -21.4733335685       26.8377120131       35.8670406538  TIP3      2270            0.0000000000
     29130      2462  TIP3      H2            -21.0086753441       25.4660889265       36.2962525792  TIP3      2270            0.0000000000
     29131      2463  TIP3      OH2           -33.8182371357       32.8569815697       34.6496649219  TIP3      2271            0.0000000000
     29132      2463  TIP3      H1            -33.6697449609       32.4410698670       35.5187363342  TIP3      2271            0.0000000000
     29133      2463  TIP3      H2            -34.6610607204       32.4319841991       34.3508410050  TIP3      2271            0.0000000000
     29134      2464  TIP3      OH2           -31.1441430847       21.3192147625       30.5089204389  TIP3      2272            0.0000000000
     29135      2464  TIP3      H1            -32.0546452856       21.1318054436       30.1822441499  TIP3      2272            0.0000000000
     29136      2464  TIP3      H2            -31.3237919789       22.0495315727       31.1015691302  TIP3      2272            0.0000000000
     29137      2465  TIP3      OH2           -26.5151374176       20.9371683624       33.9137970282  TIP3      2273            0.0000000000
     29138      2465  TIP3      H1            -26.1254799433       20.5140800105       34.7014370849  TIP3      2273            0.0000000000
     29139      2465  TIP3      H2            -27.4869050495       20.8219621221       34.0573996981  TIP3      2273            0.0000000000
     29140      2466  TIP3      OH2           -23.2327321549       24.7945837183       34.8028974283  TIP3      2274            0.0000000000
     29141      2466  TIP3      H1            -23.7934567166       24.5752657372       35.5887834503  TIP3      2274            0.0000000000
     29142      2466  TIP3      H2            -23.4174807887       25.7235744070       34.5878984648  TIP3      2274            0.0000000000
     29143      2467  TIP3      OH2           -30.9581954206       26.4980654543       32.0605604766  TIP3      2275            0.0000000000
     29144      2467  TIP3      H1            -31.7847553050       26.4184624886       32.5851807905  TIP3      2275            0.0000000000
     29145      2467  TIP3      H2            -31.1161451895       27.3493146918       31.5667011271  TIP3      2275            0.0000000000
     29146      2468  TIP3      OH2           -31.0909623269       26.3084326394       26.7434694900  TIP3      2276            0.0000000000
     29147      2468  TIP3      H1            -32.0376875358       26.1421320697       26.5285258491  TIP3      2276            0.0000000000
     29148      2468  TIP3      H2            -30.7110486585       26.0899991027       25.8581632544  TIP3      2276            0.0000000000
     29149      2469  TIP3      OH2           -25.6242286743       26.8183385199       25.3730333470  TIP3      2277            0.0000000000
     29150      2469  TIP3      H1            -25.9589332553       27.7075700245       25.1127225318  TIP3      2277            0.0000000000
     29151      2469  TIP3      H2            -24.8669965076       26.7080389506       24.7776574837  TIP3      2277            0.0000000000
     29152      2470  TIP3      OH2           -26.5274665417       27.0764535091       36.8700494777  TIP3      2278            0.0000000000
     29153      2470  TIP3      H1            -27.0459426836       26.2954268656       37.1794607969  TIP3      2278            0.0000000000
     29154      2470  TIP3      H2            -25.6916742437       26.9639176174       37.3540132461  TIP3      2278            0.0000000000
     29155      2471  TIP3      OH2           -24.5048960337       26.3752273802       28.2721481076  TIP3      2279            0.0000000000
     29156      2471  TIP3      H1            -24.8546055432       26.9085855899       27.5391165630  TIP3      2279            0.0000000000
     29157      2471  TIP3      H2            -24.4720527107       25.5042404987       27.8251174496  TIP3      2279            0.0000000000
     29158      2472  TIP3      OH2           -33.4080942318       26.4502269255       33.4850430335  TIP3      2280            0.0000000000
     29159      2472  TIP3      H1            -33.3857301943       26.9095344934       34.3448338704  TIP3      2280            0.0000000000
     29160      2472  TIP3      H2            -33.9194967785       25.6540696534       33.7089396265  TIP3      2280            0.0000000000
     29161      2473  TIP3      OH2           -36.5344713419       23.8275284696       27.3710871651  TIP3      2281            0.0000000000
     29162      2473  TIP3      H1            -36.0836209402       23.5161084557       28.1742975635  TIP3      2281            0.0000000000
     29163      2473  TIP3      H2            -36.2909287728       23.2004659475       26.6835010572  TIP3      2281            0.0000000000
     29164      2474  TIP3      OH2           -34.9050714228       24.5154227890       23.2964810409  TIP3      2282            0.0000000000
     29165      2474  TIP3      H1            -34.8672477046       25.0096533898       22.4758133402  TIP3      2282            0.0000000000
     29166      2474  TIP3      H2            -35.8703255827       24.7384022218       23.4037870898  TIP3      2282            0.0000000000
     29167      2475  TIP3      OH2           -25.2966715065       27.9426550452       32.8621018101  TIP3      2283            0.0000000000
     29168      2475  TIP3      H1            -24.9727463917       27.2488490642       32.2528710270  TIP3      2283            0.0000000000
     29169      2475  TIP3      H2            -25.8121160660       27.4264183663       33.5087076753  TIP3      2283            0.0000000000
     29170      2476  TIP3      OH2           -28.5457833668       23.9628537439       27.6987888078  TIP3      2284            0.0000000000
     29171      2476  TIP3      H1            -29.4792797555       23.8983940317       27.9517528382  TIP3      2284            0.0000000000
     29172      2476  TIP3      H2            -28.0449881999       23.7260056812       28.4941557056  TIP3      2284            0.0000000000
     29173      2477  TIP3      OH2           -33.6445342224       25.4489074071       26.5613845916  TIP3      2285            0.0000000000
     29174      2477  TIP3      H1            -34.5247519293       25.6639070173       26.1777772863  TIP3      2285            0.0000000000
     29175      2477  TIP3      H2            -33.4540663195       24.6142854028       26.0906125106  TIP3      2285            0.0000000000
     29176      2478  TIP3      OH2           -30.2241170550       25.6041737431       24.3167546685  TIP3      2286            0.0000000000
     29177      2478  TIP3      H1            -29.2490195495       25.5495441975       24.4411207266  TIP3      2286            0.0000000000
     29178      2478  TIP3      H2            -30.3506985590       26.2087179277       23.5862989156  TIP3      2286            0.0000000000
     29179      2479  TIP3      OH2           -24.1450688469       23.1563633249       30.9161087957  TIP3      2287            0.0000000000
     29180      2479  TIP3      H1            -24.8303363743       23.1969062733       31.6161877949  TIP3      2287            0.0000000000
     29181      2479  TIP3      H2            -24.6496844139       22.8943855034       30.1339595700  TIP3      2287            0.0000000000
     29182      2480  TIP3      OH2           -33.2341242733       31.2657310006       36.8072688657  TIP3      2288            0.0000000000
     29183      2480  TIP3      H1            -32.5434163485       31.4980675488       37.4552695945  TIP3      2288            0.0000000000
     29184      2480  TIP3      H2            -34.0168049720       31.3887422753       37.3884377202  TIP3      2288            0.0000000000
     29185      2481  TIP3      OH2           -27.3615459611       26.6162209270       29.5501844461  TIP3      2289            0.0000000000
     29186      2481  TIP3      H1            -26.6840606425       26.1598600379       29.0301616717  TIP3      2289            0.0000000000
     29187      2481  TIP3      H2            -27.3602522835       26.1273053931       30.3772287507  TIP3      2289            0.0000000000
     29188      2482  TIP3      OH2           -32.2176816984       22.8280170495       26.0258212370  TIP3      2290            0.0000000000
     29189      2482  TIP3      H1            -32.5736633659       21.9205901466       25.9777712837  TIP3      2290            0.0000000000
     29190      2482  TIP3      H2            -31.4519319041       22.7414620849       25.4469606358  TIP3      2290            0.0000000000
     29191      2483  TIP3      OH2           -28.7056344158       24.9922931201       32.0037018535  TIP3      2291            0.0000000000
     29192      2483  TIP3      H1            -29.3958215261       25.6449167450       32.2118032877  TIP3      2291            0.0000000000
     29193      2483  TIP3      H2            -28.0370545976       25.3027320209       32.6624496682  TIP3      2291            0.0000000000
     29194      2484  TIP3      OH2           -28.0199646793       31.1806150313       23.7295974713  TIP3      2292            0.0000000000
     29195      2484  TIP3      H1            -28.8387839315       30.8019831408       23.3369775471  TIP3      2292            0.0000000000
     29196      2484  TIP3      H2            -28.2813950573       31.3916714069       24.6460511273  TIP3      2292            0.0000000000
     29197      2485  TIP3      OH2           -20.8246649470       30.3869855276       32.4498346463  TIP3      2293            0.0000000000
     29198      2485  TIP3      H1            -20.2910392866       30.9512122550       31.8607752246  TIP3      2293            0.0000000000
     29199      2485  TIP3      H2            -21.7125030735       30.4882323441       32.0476261154  TIP3      2293            0.0000000000
     29200      2486  TIP3      OH2           -24.2233904337       24.0366170477       21.8392311152  TIP3      2294            0.0000000000
     29201      2486  TIP3      H1            -25.1503505254       24.2165025909       21.6950064190  TIP3      2294            0.0000000000
     29202      2486  TIP3      H2            -23.8637007913       24.8789314206       22.1760701783  TIP3      2294            0.0000000000
     29203      2487  TIP3      OH2           -26.5515250558       31.5326276404       34.9290411658  TIP3      2295            0.0000000000
     29204      2487  TIP3      H1            -26.8970362010       31.0656422511       35.7015164693  TIP3      2295            0.0000000000
     29205      2487  TIP3      H2            -26.7995135735       32.4494346568       35.0547906390  TIP3      2295            0.0000000000
     29206      2488  TIP3      OH2           -23.4579647998       25.9387353051       23.5273981596  TIP3      2296            0.0000000000
     29207      2488  TIP3      H1            -22.5669103281       25.8306921282       23.9108117781  TIP3      2296            0.0000000000
     29208      2488  TIP3      H2            -23.4010514283       26.7587938351       23.0054251468  TIP3      2296            0.0000000000
     29209      2489  TIP3      OH2           -32.9105251717       30.6413023263       29.4769371713  TIP3      2297            0.0000000000
     29210      2489  TIP3      H1            -32.2468363132       30.5524885583       28.7719566044  TIP3      2297            0.0000000000
     29211      2489  TIP3      H2            -32.8603193061       29.7861436955       29.9355213530  TIP3      2297            0.0000000000
     29212      2490  TIP3      OH2           -25.8864812277       32.6969355896       22.8332872068  TIP3      2298            0.0000000000
     29213      2490  TIP3      H1            -26.2881499043       33.5613565618       23.0184452185  TIP3      2298            0.0000000000
     29214      2490  TIP3      H2            -26.6726702386       32.1157751384       22.8958055434  TIP3      2298            0.0000000000
     29215      2491  TIP3      OH2           -35.6988593226       28.7987135545       34.4735848437  TIP3      2299            0.0000000000
     29216      2491  TIP3      H1            -35.6145313941       28.5747122739       35.4167156749  TIP3      2299            0.0000000000
     29217      2491  TIP3      H2            -36.5524107448       28.3953320957       34.2637812235  TIP3      2299            0.0000000000
     29218      2492  TIP3      OH2           -28.9238300972       28.5814763745       36.9224401374  TIP3      2300            0.0000000000
     29219      2492  TIP3      H1            -29.2532466357       28.2677579373       36.0693832871  TIP3      2300            0.0000000000
     29220      2492  TIP3      H2            -28.0026853306       28.2525635120       36.9036850435  TIP3      2300            0.0000000000
     29221      2493  TIP3      OH2           -24.2499986676       34.0067520270       34.8151925127  TIP3      2301            0.0000000000
     29222      2493  TIP3      H1            -25.1949419190       34.0711646673       34.6426775680  TIP3      2301            0.0000000000
     29223      2493  TIP3      H2            -24.2802012130       34.1809391071       35.7860741266  TIP3      2301            0.0000000000
     29224      2494  TIP3      OH2           -18.6168506363       26.1128310331       23.2946819044  TIP3      2302            0.0000000000
     29225      2494  TIP3      H1            -19.1442827041       25.7879666228       22.5542061164  TIP3      2302            0.0000000000
     29226      2494  TIP3      H2            -18.4618400012       27.0335624124       22.9847663911  TIP3      2302            0.0000000000
     29227      2495  TIP3      OH2           -18.5720128645       31.9368562143       36.0615906140  TIP3      2303            0.0000000000
     29228      2495  TIP3      H1            -19.4684732977       32.1774519520       35.7158357281  TIP3      2303            0.0000000000
     29229      2495  TIP3      H2            -18.0360209969       31.9152043586       35.2423523614  TIP3      2303            0.0000000000
     29230      2496  TIP3      OH2           -20.1180357226       34.7491363697       23.7672891593  TIP3      2304            0.0000000000
     29231      2496  TIP3      H1            -20.6927391415       34.0259084093       24.0207871396  TIP3      2304            0.0000000000
     29232      2496  TIP3      H2            -20.0747229201       34.7875472172       22.8168219670  TIP3      2304            0.0000000000
     29233      2497  TIP3      OH2           -23.0710044240       29.7426614338       30.7596217933  TIP3      2305            0.0000000000
     29234      2497  TIP3      H1            -24.0201389735       29.5442494424       30.6593632371  TIP3      2305            0.0000000000
     29235      2497  TIP3      H2            -22.6643387310       28.9660094360       30.3453925712  TIP3      2305            0.0000000000
     29236      2498  TIP3      OH2           -30.5037885076       34.0261754006       26.7641976959  TIP3      2306            0.0000000000
     29237      2498  TIP3      H1            -30.0827561645       34.8898106186       26.6710144614  TIP3      2306            0.0000000000
     29238      2498  TIP3      H2            -31.4211839968       34.2593747988       26.5811869298  TIP3      2306            0.0000000000
     29239      2499  TIP3      OH2           -29.1089980752       31.7165639701       26.3908158370  TIP3      2307            0.0000000000
     29240      2499  TIP3      H1            -29.4126280400       32.6415774131       26.4862690749  TIP3      2307            0.0000000000
     29241      2499  TIP3      H2            -29.8579547865       31.2660924840       26.8274683481  TIP3      2307            0.0000000000
     29242      2500  TIP3      OH2           -28.5204089774       35.6701903900       32.5889891801  TIP3      2308            0.0000000000
     29243      2500  TIP3      H1            -28.2811304287       36.6030815110       32.4825090904  TIP3      2308            0.0000000000
     29244      2500  TIP3      H2            -28.0572685487       35.4797659504       33.4213862088  TIP3      2308            0.0000000000
     29245      2501  TIP3      OH2           -30.4559269162      -36.7529523651       26.1094546381  TIP3      2309            0.0000000000
     29246      2501  TIP3      H1            -31.4112343953      -36.6272594921       26.1339526673  TIP3      2309            0.0000000000
     29247      2501  TIP3      H2            -30.1087939467      -35.9092862263       26.4200217217  TIP3      2309            0.0000000000
     29248      2502  TIP3      OH2           -25.1544572444       31.9152449167       32.4303916380  TIP3      2310            0.0000000000
     29249      2502  TIP3      H1            -25.4982988330       31.6968665200       33.3212340118  TIP3      2310            0.0000000000
     29250      2502  TIP3      H2            -24.5282286122       31.1962713177       32.2475227458  TIP3      2310            0.0000000000
     29251      2503  TIP3      OH2           -22.8241310669       32.9085260233       21.5263317811  TIP3      2311            0.0000000000
     29252      2503  TIP3      H1            -22.5633363289       32.4845702913       22.3621375707  TIP3      2311            0.0000000000
     29253      2503  TIP3      H2            -23.7945960193       32.8677328290       21.5936466937  TIP3      2311            0.0000000000
     29254      2504  TIP3      OH2           -22.3852145544       36.4217588491       34.9048196923  TIP3      2312            0.0000000000
     29255      2504  TIP3      H1            -23.0926764702       35.9584497005       34.4377735787  TIP3      2312            0.0000000000
     29256      2504  TIP3      H2            -22.2230832494       37.1861302669       34.3266007913  TIP3      2312            0.0000000000
     29257      2505  TIP3      OH2           -34.3006681211       23.7153368135       34.1940023082  TIP3      2313            0.0000000000
     29258      2505  TIP3      H1            -35.1780216024       24.1129441321       34.3161710370  TIP3      2313            0.0000000000
     29259      2505  TIP3      H2            -34.3985331274       22.9186254057       34.7537246182  TIP3      2313            0.0000000000
     29260      2506  TIP3      OH2           -22.0499419150       31.6196089070       23.7775290350  TIP3      2314            0.0000000000
     29261      2506  TIP3      H1            -22.3114017389       30.8304672311       24.2988061768  TIP3      2314            0.0000000000
     29262      2506  TIP3      H2            -21.1025077693       31.6683205803       23.9621121127  TIP3      2314            0.0000000000
     29263      2507  TIP3      OH2           -34.5725246583       35.5301971192       32.6712704459  TIP3      2315            0.0000000000
     29264      2507  TIP3      H1            -34.3789956073       34.5893252034       32.7281731445  TIP3      2315            0.0000000000
     29265      2507  TIP3      H2            -34.5052521200       35.8373811352       33.5809156272  TIP3      2315            0.0000000000
     29266      2508  TIP3      OH2           -28.3431001896       32.9298014715       20.3366878277  TIP3      2316            0.0000000000
     29267      2508  TIP3      H1            -28.5872864738       33.2326278869       19.4526668713  TIP3      2316            0.0000000000
     29268      2508  TIP3      H2            -28.9689631110       33.4961193053       20.8373143320  TIP3      2316            0.0000000000
     29269      2509  TIP3      OH2           -30.0116129517       33.5674356436       22.4530300866  TIP3      2317            0.0000000000
     29270      2509  TIP3      H1            -29.6817782116       33.0462951039       23.1844477920  TIP3      2317            0.0000000000
     29271      2509  TIP3      H2            -29.8288726232       34.4739984915       22.7530635346  TIP3      2317            0.0000000000
     29272      2510  TIP3      OH2           -25.5686984043       23.5336343953       33.2600061800  TIP3      2318            0.0000000000
     29273      2510  TIP3      H1            -24.8431094098       23.5936267999       33.8957081400  TIP3      2318            0.0000000000
     29274      2510  TIP3      H2            -25.9295533203       22.6493530554       33.4697215323  TIP3      2318            0.0000000000
     29275      2511  TIP3      OH2           -24.7744538192       23.0879703303       24.3557002620  TIP3      2319            0.0000000000
     29276      2511  TIP3      H1            -24.5519278673       23.5716550756       23.5352046005  TIP3      2319            0.0000000000
     29277      2511  TIP3      H2            -24.2441244487       23.5586019039       25.0188622277  TIP3      2319            0.0000000000
     29278      2512  TIP3      OH2           -26.9221277121       35.2964914680       23.2829374408  TIP3      2320            0.0000000000
     29279      2512  TIP3      H1            -27.8502791495       35.5969444193       23.2326997430  TIP3      2320            0.0000000000
     29280      2512  TIP3      H2            -26.5855972800       35.7063776964       22.4776339138  TIP3      2320            0.0000000000
     29281      2513  TIP3      OH2           -27.6381530765       24.9192356481       25.1246488907  TIP3      2321            0.0000000000
     29282      2513  TIP3      H1            -26.7961181352       25.4137334707       25.2109208199  TIP3      2321            0.0000000000
     29283      2513  TIP3      H2            -27.8500212079       24.6666204155       26.0430743922  TIP3      2321            0.0000000000
     29284      2514  TIP3      OH2           -27.0465056232       25.8598182388       34.3440840451  TIP3      2322            0.0000000000
     29285      2514  TIP3      H1            -26.9707675063       26.4292022596       35.1360546855  TIP3      2322            0.0000000000
     29286      2514  TIP3      H2            -26.3583777496       25.1883821416       34.4540224541  TIP3      2322            0.0000000000
     29287      2515  TIP3      OH2           -26.7159394103       21.9101683281       26.0808232081  TIP3      2323            0.0000000000
     29288      2515  TIP3      H1            -27.0757393676       22.5721778322       26.6822674891  TIP3      2323            0.0000000000
     29289      2515  TIP3      H2            -26.0562773834       22.4644360255       25.6047780760  TIP3      2323            0.0000000000
     29290      2516  TIP3      OH2           -29.4020679200      -37.5798795951       23.5858749206  TIP3      2324            0.0000000000
     29291      2516  TIP3      H1            -29.3655792165      -36.8148236240       22.9459272894  TIP3      2324            0.0000000000
     29292      2516  TIP3      H2            -29.9762484858      -37.1305703951       24.2223400942  TIP3      2324            0.0000000000
     29293      2517  TIP3      OH2           -31.1380033264       23.0493560639       22.8288965740  TIP3      2325            0.0000000000
     29294      2517  TIP3      H1            -31.1514178933       23.9353031494       23.2118736794  TIP3      2325            0.0000000000
     29295      2517  TIP3      H2            -30.2389335103       22.7344227243       23.0006004492  TIP3      2325            0.0000000000
     29296      2518  TIP3      OH2           -20.8459037169       23.7526897449       35.1922860640  TIP3      2326            0.0000000000
     29297      2518  TIP3      H1            -21.7779959677       24.0603126889       35.0698259401  TIP3      2326            0.0000000000
     29298      2518  TIP3      H2            -20.5493376977       23.7260173001       34.2700558062  TIP3      2326            0.0000000000
     29299      2519  TIP3      OH2           -22.2020746094       27.5240098277       29.1794570517  TIP3      2327            0.0000000000
     29300      2519  TIP3      H1            -23.0634361963       27.1073756179       28.9437828316  TIP3      2327            0.0000000000
     29301      2519  TIP3      H2            -21.7875690271       26.8264940246       29.7392990817  TIP3      2327            0.0000000000
     29302      2520  TIP3      OH2           -34.3358665330       26.3978235107       20.6504445345  TIP3      2328            0.0000000000
     29303      2520  TIP3      H1            -34.4769253343       27.1720311850       21.2067151980  TIP3      2328            0.0000000000
     29304      2520  TIP3      H2            -35.2593767853       26.0872235797       20.7964972098  TIP3      2328            0.0000000000
     29305      2521  TIP3      OH2           -33.6897566025       20.9321935824       29.6798321042  TIP3      2329            0.0000000000
     29306      2521  TIP3      H1            -33.8720947639       20.9111216590       28.7094043942  TIP3      2329            0.0000000000
     29307      2521  TIP3      H2            -34.0932983676       20.0663207603       29.9396765442  TIP3      2329            0.0000000000
     29308      2522  TIP3      OH2           -34.6309840488       34.7732930787       25.9805189256  TIP3      2330            0.0000000000
     29309      2522  TIP3      H1            -35.5132795721       35.1636275004       25.8349052653  TIP3      2330            0.0000000000
     29310      2522  TIP3      H2            -34.2658065623       35.2302149527       25.1960264685  TIP3      2330            0.0000000000
     29311      2523  TIP3      OH2           -30.6742319224       36.0939219275       38.9044565809  TIP3      2331            0.0000000000
     29312      2523  TIP3      H1            -29.7869666796       35.7616848197       39.0620653502  TIP3      2331            0.0000000000
     29313      2523  TIP3      H2            -30.7679472052       35.9542983531       37.9386893723  TIP3      2331            0.0000000000
     29314      2524  TIP3      OH2           -25.8627579532       35.8962685843       20.1566562977  TIP3      2332            0.0000000000
     29315      2524  TIP3      H1            -26.8116536362       35.6393976095       20.2937175402  TIP3      2332            0.0000000000
     29316      2524  TIP3      H2            -25.6163477424       35.0898381915       19.7161999516  TIP3      2332            0.0000000000
     29317      2525  TIP3      OH2           -24.3155388529       34.6170722742       37.3818532984  TIP3      2333            0.0000000000
     29318      2525  TIP3      H1            -24.6817101620       33.8098968369       37.7895078951  TIP3      2333            0.0000000000
     29319      2525  TIP3      H2            -23.6004417870       34.8506750587       37.9969833065  TIP3      2333            0.0000000000
     29320      2526  TIP3      OH2           -22.0858535416       35.2795324796       20.1190711631  TIP3      2334            0.0000000000
     29321      2526  TIP3      H1            -21.8021179694       34.7776692402       20.8909315733  TIP3      2334            0.0000000000
     29322      2526  TIP3      H2            -21.3483137756       35.8118784133       19.8092315437  TIP3      2334            0.0000000000
     29323      2527  TIP3      OH2           -35.4574478546       31.2369594239       38.0954541041  TIP3      2335            0.0000000000
     29324      2527  TIP3      H1            -35.4310207589       30.3083598302       37.8065413793  TIP3      2335            0.0000000000
     29325      2527  TIP3      H2            -36.2826211801       31.5674625672       37.6768654534  TIP3      2335            0.0000000000
     29326      2528  TIP3      OH2           -28.8669195170       31.2252516925       37.4563438331  TIP3      2336            0.0000000000
     29327      2528  TIP3      H1            -29.2383565884       31.5441584070       36.6146397729  TIP3      2336            0.0000000000
     29328      2528  TIP3      H2            -28.8206433633       30.2433736917       37.3521350186  TIP3      2336            0.0000000000
     29329      2529  TIP3      OH2           -23.1993443343       31.0973356378       34.8869247942  TIP3      2337            0.0000000000
     29330      2529  TIP3      H1            -22.4096402870       31.6770315954       34.8220334482  TIP3      2337            0.0000000000
     29331      2529  TIP3      H2            -23.8970757803       31.7652046039       34.9246761826  TIP3      2337            0.0000000000
     29332      2530  TIP3      OH2           -34.7630152841       28.4623110851       37.4854764129  TIP3      2338            0.0000000000
     29333      2530  TIP3      H1            -34.2566047229       27.6325702397       37.4073056425  TIP3      2338            0.0000000000
     29334      2530  TIP3      H2            -34.8685044350       28.5114736375       38.4522765063  TIP3      2338            0.0000000000
     29335      2531  TIP3      OH2           -29.9344829514       29.5607459189       22.6056833539  TIP3      2339            0.0000000000
     29336      2531  TIP3      H1            -30.5882993682       29.1366854998       23.1821263764  TIP3      2339            0.0000000000
     29337      2531  TIP3      H2            -29.8419623885       28.9630499932       21.8654101426  TIP3      2339            0.0000000000
     29338      2532  TIP3      OH2           -30.8039287415       27.4219366810       34.8477797875  TIP3      2340            0.0000000000
     29339      2532  TIP3      H1            -31.3858765964       28.1517291882       35.1305231407  TIP3      2340            0.0000000000
     29340      2532  TIP3      H2            -30.3986821332       27.7981123977       34.0462048425  TIP3      2340            0.0000000000
     29341      2533  TIP3      OH2           -25.7117999899       30.0037952432       38.2702129570  TIP3      2341            0.0000000000
     29342      2533  TIP3      H1            -24.7654598693       29.9573582180       38.0627387362  TIP3      2341            0.0000000000
     29343      2533  TIP3      H2            -25.8798440496       29.2067184105       38.7947030135  TIP3      2341            0.0000000000
     29344      2534  TIP3      OH2           -30.3705537765       24.8190093698       35.8790435121  TIP3      2342            0.0000000000
     29345      2534  TIP3      H1            -30.2558694372       24.0990317909       35.2360538202  TIP3      2342            0.0000000000
     29346      2534  TIP3      H2            -30.4522028035       25.6377204239       35.3578110476  TIP3      2342            0.0000000000
     29347      2535  TIP3      OH2           -29.9838853522       23.1994696642       33.4588674161  TIP3      2343            0.0000000000
     29348      2535  TIP3      H1            -29.4351285010       23.6312284108       32.7650543248  TIP3      2343            0.0000000000
     29349      2535  TIP3      H2            -30.8830121304       23.0812089863       33.0813974976  TIP3      2343            0.0000000000
     29350      2536  TIP3      OH2           -28.4544689784       28.6633956611       33.6832403709  TIP3      2344            0.0000000000
     29351      2536  TIP3      H1            -27.6805305196       28.5275184537       33.1303937826  TIP3      2344            0.0000000000
     29352      2536  TIP3      H2            -28.8093731550       29.5137939352       33.3667383954  TIP3      2344            0.0000000000
     29353      2537  TIP3      OH2           -24.0484384242       26.4127898547       38.6480802306  TIP3      2345            0.0000000000
     29354      2537  TIP3      H1            -23.8246361089       25.4719492353       38.5779457873  TIP3      2345            0.0000000000
     29355      2537  TIP3      H2            -23.1790944649       26.8428542155       38.6705188787  TIP3      2345            0.0000000000
     29356      2538  TIP3      OH2           -22.6981430471       29.2299054808       36.8510169277  TIP3      2346            0.0000000000
     29357      2538  TIP3      H1            -22.9578849557       29.9387503521       36.2225534563  TIP3      2346            0.0000000000
     29358      2538  TIP3      H2            -21.7453247140       29.1851342042       36.6274984308  TIP3      2346            0.0000000000
     29359      2539  TIP3      OH2           -31.9353725315       26.0533660415       37.8546578227  TIP3      2347            0.0000000000
     29360      2539  TIP3      H1            -32.7142414389       25.4909506395       37.6352238152  TIP3      2347            0.0000000000
     29361      2539  TIP3      H2            -31.2990855058       25.7106478086       37.1953541876  TIP3      2347            0.0000000000
     29362      2540  TIP3      OH2           -29.1934196555       20.6256751181       33.8456011532  TIP3      2348            0.0000000000
     29363      2540  TIP3      H1            -29.3724785092       21.5869517446       33.7634110919  TIP3      2348            0.0000000000
     29364      2540  TIP3      H2            -29.9390479506       20.2410391056       33.3504435883  TIP3      2348            0.0000000000
     29365      2541  TIP3      OH2           -27.9150872216       24.9557801278       37.4906315236  TIP3      2349            0.0000000000
     29366      2541  TIP3      H1            -28.2476480165       24.7327477213       38.3807357387  TIP3      2349            0.0000000000
     29367      2541  TIP3      H2            -28.6902135368       24.7651840848       36.9254503839  TIP3      2349            0.0000000000
     29368      2542  TIP3      OH2           -25.2043010770       24.0897451838       36.5445487225  TIP3      2350            0.0000000000
     29369      2542  TIP3      H1            -26.1642871069       24.1539294467       36.6816265629  TIP3      2350            0.0000000000
     29370      2542  TIP3      H2            -24.9324370338       23.4653815189       37.2448229392  TIP3      2350            0.0000000000
     29371      2543  TIP3      OH2           -23.6516678954       22.7213411230       38.4599141523  TIP3      2351            0.0000000000
     29372      2543  TIP3      H1            -23.6699313795       21.7442975497       38.4977982444  TIP3      2351            0.0000000000
     29373      2543  TIP3      H2            -23.8805169423       23.0159569894       39.3735266814  TIP3      2351            0.0000000000
     29374      2544  TIP3      OH2           -33.7651227129       23.9901232293       37.5818937605  TIP3      2352            0.0000000000
     29375      2544  TIP3      H1            -33.5823587827       23.2430109737       36.9861576463  TIP3      2352            0.0000000000
     29376      2544  TIP3      H2            -33.9163920052       23.5451575409       38.4458854724  TIP3      2352            0.0000000000
     29377      2545  TIP3      OH2           -28.9735587482       20.0151058614       36.5424275858  TIP3      2353            0.0000000000
     29378      2545  TIP3      H1            -28.2925854832       19.3124291105       36.5191863978  TIP3      2353            0.0000000000
     29379      2545  TIP3      H2            -29.0878585801       20.1640755904       35.5855644361  TIP3      2353            0.0000000000
     29380      2546  TIP3      OH2           -28.6327209215       21.6166296116       38.6476441886  TIP3      2354            0.0000000000
     29381      2546  TIP3      H1            -28.7933245788       21.1180967649       37.8105453852  TIP3      2354            0.0000000000
     29382      2546  TIP3      H2            -29.2011040364       22.4032454880       38.5384634182  TIP3      2354            0.0000000000
     29383      2547  TIP3      OH2           -35.2957350390       32.6212166247       21.5655663361  TIP3      2355            0.0000000000
     29384      2547  TIP3      H1            -34.5430647650       33.2068030031       21.4953324471  TIP3      2355            0.0000000000
     29385      2547  TIP3      H2            -35.5729483838       32.5584095565       20.6388436376  TIP3      2355            0.0000000000
     29386      2548  TIP3      OH2           -35.9491259249       36.5964686776       28.0616727791  TIP3      2356            0.0000000000
     29387      2548  TIP3      H1            -36.3657310033       35.7464222612       28.3061864995  TIP3      2356            0.0000000000
     29388      2548  TIP3      H2            -35.7957689955       36.9331808604       28.9575788952  TIP3      2356            0.0000000000
     29389      2549  TIP3      OH2           -20.4118151863       32.7261498028       38.7186806616  TIP3      2357            0.0000000000
     29390      2549  TIP3      H1            -21.3242300854       32.7270285160       39.0747128186  TIP3      2357            0.0000000000
     29391      2549  TIP3      H2            -20.0455732055       33.5537325620       39.1086569391  TIP3      2357            0.0000000000
     29392      2550  TIP3      OH2           -19.1002834149       31.0289525210       24.1104867353  TIP3      2358            0.0000000000
     29393      2550  TIP3      H1            -18.2814114400       31.4866185664       24.3100671743  TIP3      2358            0.0000000000
     29394      2550  TIP3      H2            -19.1226977773       30.3439383326       24.8112880464  TIP3      2358            0.0000000000
     29395      2551  TIP3      OH2           -18.7662424621       29.1852204156       26.0015359314  TIP3      2359            0.0000000000
     29396      2551  TIP3      H1            -19.5264173095       28.6537474871       26.3293148160  TIP3      2359            0.0000000000
     29397      2551  TIP3      H2            -18.1221463551       29.2983934095       26.7255084606  TIP3      2359            0.0000000000
     29398      2552  TIP3      OH2           -19.0104678447       31.8356316652       30.9710560956  TIP3      2360            0.0000000000
     29399      2552  TIP3      H1            -18.1665852574       31.5065277089       30.6268754907  TIP3      2360            0.0000000000
     29400      2552  TIP3      H2            -18.8760939088       32.8002324108       30.8473960313  TIP3      2360            0.0000000000
     29401      2553  TIP3      OH2           -20.4795464290       34.7834538348       33.2977138602  TIP3      2361            0.0000000000
     29402      2553  TIP3      H1            -21.1474855941       35.1367297309       33.8926082418  TIP3      2361            0.0000000000
     29403      2553  TIP3      H2            -21.0100244521       34.3614819940       32.5865959540  TIP3      2361            0.0000000000
     29404      2554  TIP3      OH2           -18.4226791307       29.0088077244       22.4088920137  TIP3      2362            0.0000000000
     29405      2554  TIP3      H1            -19.0069869467       29.2603755124       21.6742633298  TIP3      2362            0.0000000000
     29406      2554  TIP3      H2            -18.5553818846       29.7338112144       23.0380142092  TIP3      2362            0.0000000000
     29407      2555  TIP3      OH2           -20.8349866512       27.6135633521       26.6782369439  TIP3      2363            0.0000000000
     29408      2555  TIP3      H1            -21.1039936331       26.6870354880       26.4994876399  TIP3      2363            0.0000000000
     29409      2555  TIP3      H2            -21.4182412730       27.8178766106       27.4252653009  TIP3      2363            0.0000000000
     29410      2556  TIP3      OH2           -35.9567295181       29.6978467899       30.6257819768  TIP3      2364            0.0000000000
     29411      2556  TIP3      H1            -35.7659713593       29.6572678503       29.6604353950  TIP3      2364            0.0000000000
     29412      2556  TIP3      H2            -35.0632714178       29.5694567772       31.0020646328  TIP3      2364            0.0000000000
     29413      2557  TIP3      OH2           -20.0761466301       29.6044426211       36.2912982392  TIP3      2365            0.0000000000
     29414      2557  TIP3      H1            -19.4646998338       28.8414540709       36.3946629540  TIP3      2365            0.0000000000
     29415      2557  TIP3      H2            -19.4693488236       30.3710184009       36.2660733698  TIP3      2365            0.0000000000
     29416      2558  TIP3      OH2           -18.5826557319       27.4830677070       36.9151046332  TIP3      2366            0.0000000000
     29417      2558  TIP3      H1            -19.4610651056       27.0758814967       36.7569823280  TIP3      2366            0.0000000000
     29418      2558  TIP3      H2            -18.0087175710       26.7009971119       36.8487723074  TIP3      2366            0.0000000000
     29419      2559  TIP3      OH2           -20.8802387643       23.7051520331       20.0590971695  TIP3      2367            0.0000000000
     29420      2559  TIP3      H1            -20.2625142042       23.2750266849       20.6725943054  TIP3      2367            0.0000000000
     29421      2559  TIP3      H2            -21.7070547349       23.2603833727       20.2392270014  TIP3      2367            0.0000000000
     29422      2560  TIP3      OH2           -21.2313035987       25.2193538674       25.1341364323  TIP3      2368            0.0000000000
     29423      2560  TIP3      H1            -20.9818573857       24.2623893638       25.1540550802  TIP3      2368            0.0000000000
     29424      2560  TIP3      H2            -20.4816524850       25.5768368685       24.6362062156  TIP3      2368            0.0000000000
     29425      2561  TIP3      OH2           -20.6176332919       25.8134864226       30.4712048331  TIP3      2369            0.0000000000
     29426      2561  TIP3      H1            -19.6427846455       25.9383687274       30.5099579043  TIP3      2369            0.0000000000
     29427      2561  TIP3      H2            -20.8271024625       25.8730908271       31.4212256524  TIP3      2369            0.0000000000
     29428      2562  TIP3      OH2           -20.5700204875       26.4814421198       33.2225920946  TIP3      2370            0.0000000000
     29429      2562  TIP3      H1            -21.4398697648       26.7597181105       33.5899556107  TIP3      2370            0.0000000000
     29430      2562  TIP3      H2            -20.1296638723       27.3486225151       33.0621850680  TIP3      2370            0.0000000000
     29431      2563  TIP3      OH2           -36.1096832733       24.9432228942       36.8026619356  TIP3      2371            0.0000000000
     29432      2563  TIP3      H1            -35.2047552378       24.7048605383       37.0627804357  TIP3      2371            0.0000000000
     29433      2563  TIP3      H2            -36.6828381398       24.2246404663       37.1514529571  TIP3      2371            0.0000000000
     29434      2564  TIP3      OH2           -18.2813864569       20.5456747724       38.5940854845  TIP3      2372            0.0000000000
     29435      2564  TIP3      H1            -17.9323597274       19.8669479282       37.9942666134  TIP3      2372            0.0000000000
     29436      2564  TIP3      H2            -18.1908939133       21.3597566880       38.0640253929  TIP3      2372            0.0000000000
     29437      2565  TIP3      OH2           -20.6057159715       22.4916171812       25.0601105034  TIP3      2373            0.0000000000
     29438      2565  TIP3      H1            -20.3917808283       22.0700013977       25.9225312521  TIP3      2373            0.0000000000
     29439      2565  TIP3      H2            -21.2171565010       21.8457973474       24.6440115587  TIP3      2373            0.0000000000
     29440      2566  TIP3      OH2           -35.1976806444       23.2270692467       29.6747137258  TIP3      2374            0.0000000000
     29441      2566  TIP3      H1            -34.6526770571       22.4444919893       29.8895385863  TIP3      2374            0.0000000000
     29442      2566  TIP3      H2            -34.6506092068       23.9493903804       30.0203850665  TIP3      2374            0.0000000000
     29443      2567  TIP3      OH2           -36.0857651578       26.8073316587       31.0851089679  TIP3      2375            0.0000000000
     29444      2567  TIP3      H1            -36.0724772947       26.4714299748       30.1732430934  TIP3      2375            0.0000000000
     29445      2567  TIP3      H2            -36.3435304246       27.7068695665       30.8654383586  TIP3      2375            0.0000000000
     29446      2568  TIP3      OH2           -18.7737358988       22.6467495102       36.9571234954  TIP3      2376            0.0000000000
     29447      2568  TIP3      H1            -19.7143512178       22.9149601187       36.9272432056  TIP3      2376            0.0000000000
     29448      2568  TIP3      H2            -18.7477105217       22.0924101213       36.1616391712  TIP3      2376            0.0000000000
     29449      2569  TIP3      OH2           -18.7906136709       22.5387839600       21.6154676104  TIP3      2377            0.0000000000
     29450      2569  TIP3      H1            -18.3556126316       21.8222583825       21.1297374238  TIP3      2377            0.0000000000
     29451      2569  TIP3      H2            -18.0948951956       23.2097783582       21.6743317477  TIP3      2377            0.0000000000
     29452      2570  TIP3      OH2            37.3177596439       22.5250730494       24.4711206085  TIP3      2378            0.0000000000
     29453      2570  TIP3      H1             36.3751138759       22.7881121102       24.5179961863  TIP3      2378            0.0000000000
     29454      2570  TIP3      H2             37.6452413989       23.2318487639       23.8958184644  TIP3      2378            0.0000000000
     29455      2571  TIP3      OH2            37.0771924834       21.1816957418       33.1697124645  TIP3      2379            0.0000000000
     29456      2571  TIP3      H1             36.3329815607       20.9768281635       33.7500323898  TIP3      2379            0.0000000000
     29457      2571  TIP3      H2             36.5670515419       21.7534969640       32.5652743382  TIP3      2379            0.0000000000
     29458      2572  TIP3      OH2           -34.2764572177       34.4844792590       37.2159174558  TIP3      2380            0.0000000000
     29459      2572  TIP3      H1            -35.1302219982       34.6440789726       36.7981994097  TIP3      2380            0.0000000000
     29460      2572  TIP3      H2            -34.5473637003       34.3401151030       38.1308521690  TIP3      2380            0.0000000000
     29461      2573  TIP3      OH2           -31.3000486741       35.4463400074       33.5734917163  TIP3      2381            0.0000000000
     29462      2573  TIP3      H1            -31.8048050688       36.1689517945       33.1705290286  TIP3      2381            0.0000000000
     29463      2573  TIP3      H2            -30.4550739118       35.4587340304       33.1031925683  TIP3      2381            0.0000000000
     29464      2574  TIP3      OH2           -19.7499367691       20.7280812926       34.8136555037  TIP3      2382            0.0000000000
     29465      2574  TIP3      H1            -20.5786722506       21.0297888174       34.4040739138  TIP3      2382            0.0000000000
     29466      2574  TIP3      H2            -19.5836012848       19.9070799961       34.2937768513  TIP3      2382            0.0000000000
     29467      2575  TIP3      OH2           -32.4488310248       35.8838081432       28.8611265974  TIP3      2383            0.0000000000
     29468      2575  TIP3      H1            -32.6461676605       35.0313838163       29.2787984567  TIP3      2383            0.0000000000
     29469      2575  TIP3      H2            -31.6985826004       36.1325969399       29.4640108179  TIP3      2383            0.0000000000
     29470      2576  TIP3      OH2           -30.2930217533       35.9379793737       30.1679877828  TIP3      2384            0.0000000000
     29471      2576  TIP3      H1            -29.6594451254       35.3616754346       29.7165072068  TIP3      2384            0.0000000000
     29472      2576  TIP3      H2            -29.8162376036       36.3433718178       30.9019979380  TIP3      2384            0.0000000000
     29473      2577  TIP3      OH2           -26.3844146092       22.1694534208       29.0952498692  TIP3      2385            0.0000000000
     29474      2577  TIP3      H1            -27.0402608084       21.5042163477       29.3533908166  TIP3      2385            0.0000000000
     29475      2577  TIP3      H2            -25.8167001916       21.6441708344       28.5129830163  TIP3      2385            0.0000000000
     29476      2578  TIP3      OH2           -21.2246484377       20.1994213923       29.1570960269  TIP3      2386            0.0000000000
     29477      2578  TIP3      H1            -20.6159894274       20.7954376505       28.6501995941  TIP3      2386            0.0000000000
     29478      2578  TIP3      H2            -22.1094389028       20.5580019575       28.9299267012  TIP3      2386            0.0000000000
     29479      2579  TIP3      OH2           -19.5600345911       21.4711294729       27.4328085441  TIP3      2387            0.0000000000
     29480      2579  TIP3      H1            -18.8759388949       20.8861224553       27.0291988530  TIP3      2387            0.0000000000
     29481      2579  TIP3      H2            -19.0554470708       22.3077484862       27.5481555574  TIP3      2387            0.0000000000
     29482      2580  TIP3      OH2           -34.0089309276       20.7703428342       26.9659769739  TIP3      2388            0.0000000000
     29483      2580  TIP3      H1            -34.7716263303       20.5739749982       26.3815637357  TIP3      2388            0.0000000000
     29484      2580  TIP3      H2            -33.4946033373       19.9506307148       26.8500768000  TIP3      2388            0.0000000000
     29485      2581  TIP3      OH2           -35.2204697195       20.5445310028       22.6681365335  TIP3      2389            0.0000000000
     29486      2581  TIP3      H1            -34.7288890049       21.1703496910       22.1149121337  TIP3      2389            0.0000000000
     29487      2581  TIP3      H2            -35.7775446351       21.0947815804       23.2429373666  TIP3      2389            0.0000000000
     29488      2582  TIP3      OH2           -29.5381686361       20.7143997728       26.7397619904  TIP3      2390            0.0000000000
     29489      2582  TIP3      H1            -28.6353524432       21.0684306030       26.6283217823  TIP3      2390            0.0000000000
     29490      2582  TIP3      H2            -29.5393763556       20.4746625294       27.6629302500  TIP3      2390            0.0000000000
     29491      2583  TIP3      OH2           -23.8040579320       20.7274088971       28.3359991751  TIP3      2391            0.0000000000
     29492      2583  TIP3      H1            -23.8705601687       20.8412653112       27.3774416652  TIP3      2391            0.0000000000
     29493      2583  TIP3      H2            -24.1805370554       19.8225519901       28.4662813377  TIP3      2391            0.0000000000
     29494      2584  TIP3      OH2           -22.5569445466       20.7701765076       24.0237583069  TIP3      2392            0.0000000000
     29495      2584  TIP3      H1            -23.2980869851       21.3718005181       23.8852880319  TIP3      2392            0.0000000000
     29496      2584  TIP3      H2            -22.9913200012       19.9078742132       24.2481309195  TIP3      2392            0.0000000000
     29497      2585  TIP3      OH2           -35.1024609644      -37.1663766733       24.1152444927  TIP3      2393            0.0000000000
     29498      2585  TIP3      H1            -35.6131379625      -37.3690181990       23.2939936478  TIP3      2393            0.0000000000
     29499      2585  TIP3      H2            -35.0885899899      -36.2176643199       24.2069985464  TIP3      2393            0.0000000000
     29500      2586  TIP3      OH2           -33.2653219718       22.4443762883       21.2042660445  TIP3      2394            0.0000000000
     29501      2586  TIP3      H1            -32.7449026315       21.8249292945       20.6687436743  TIP3      2394            0.0000000000
     29502      2586  TIP3      H2            -32.6147933695       22.7220572617       21.8754881471  TIP3      2394            0.0000000000
     29503      2587  TIP3      OH2           -34.1799778117       21.3630019387       36.4534964063  TIP3      2395            0.0000000000
     29504      2587  TIP3      H1            -34.5144274792       20.5137140526       36.7934531204  TIP3      2395            0.0000000000
     29505      2587  TIP3      H2            -33.2453418562       21.2899595620       36.7583926274  TIP3      2395            0.0000000000
     29506      2588  TIP3      OH2           -32.1085634061       20.7181711218       38.0484466723  TIP3      2396            0.0000000000
     29507      2588  TIP3      H1            -31.2300600627       20.3611077305       37.8019744424  TIP3      2396            0.0000000000
     29508      2588  TIP3      H2            -32.5075335666       19.9198870999       38.4479765629  TIP3      2396            0.0000000000
     29509      2589  TIP3      OH2           -23.7074338129       20.0033381706       38.1906950671  TIP3      2397            0.0000000000
     29510      2589  TIP3      H1            -23.6040635939       19.5194980162       39.0319908147  TIP3      2397            0.0000000000
     29511      2589  TIP3      H2            -22.7959276647       19.9755032442       37.8325093987  TIP3      2397            0.0000000000
     29512      2590  TIP3      OH2           -20.6046449496       35.9695342587       36.9908537889  TIP3      2398            0.0000000000
     29513      2590  TIP3      H1            -21.2682542912       35.8934221440       36.2769215083  TIP3      2398            0.0000000000
     29514      2590  TIP3      H2            -20.4776062796       36.9312255784       36.9816199297  TIP3      2398            0.0000000000
     29515      2591  TIP3      OH2            -6.0574218411       29.9113358957       26.7918724666  TIP3      2399            0.0000000000
     29516      2591  TIP3      H1             -6.0768829756       30.8967897357       26.7425414014  TIP3      2399            0.0000000000
     29517      2591  TIP3      H2             -6.7824803578       29.6882810345       26.1773621099  TIP3      2399            0.0000000000
     29518      2592  TIP3      OH2            -7.1903928642       29.1729640350       30.2877434900  TIP3      2400            0.0000000000
     29519      2592  TIP3      H1             -7.2119171497       28.5280805541       31.0123002957  TIP3      2400            0.0000000000
     29520      2592  TIP3      H2             -7.5490002019       28.6715042593       29.5365124725  TIP3      2400            0.0000000000
     29521      2593  TIP3      OH2           -14.8692211103       28.8575881093       31.8456363794  TIP3      2401            0.0000000000
     29522      2593  TIP3      H1            -14.7599914224       28.1705324257       32.5384160284  TIP3      2401            0.0000000000
     29523      2593  TIP3      H2            -14.1078642126       29.4182652545       32.0572849534  TIP3      2401            0.0000000000
     29524      2594  TIP3      OH2            -3.5106617698       32.1089765215       28.5946411021  TIP3      2402            0.0000000000
     29525      2594  TIP3      H1             -3.9349793442       31.4029725122       29.0845333639  TIP3      2402            0.0000000000
     29526      2594  TIP3      H2             -3.4773262376       32.8300820177       29.2463023635  TIP3      2402            0.0000000000
     29527      2595  TIP3      OH2           -13.8686612198       33.3071288709       30.4016389538  TIP3      2403            0.0000000000
     29528      2595  TIP3      H1            -14.2165266873       32.4590121873       30.0497039276  TIP3      2403            0.0000000000
     29529      2595  TIP3      H2            -12.9238676016       33.0872811930       30.4030553072  TIP3      2403            0.0000000000
     29530      2596  TIP3      OH2           -17.3041273813       26.8597337466       25.8334886548  TIP3      2404            0.0000000000
     29531      2596  TIP3      H1            -17.6778357923       27.7468903393       25.7263615612  TIP3      2404            0.0000000000
     29532      2596  TIP3      H2            -17.8368801903       26.3224871266       25.2294141928  TIP3      2404            0.0000000000
     29533      2597  TIP3      OH2           -16.6051155614       29.0470281706       27.9735156000  TIP3      2405            0.0000000000
     29534      2597  TIP3      H1            -16.2331256175       28.2655174863       28.4410743456  TIP3      2405            0.0000000000
     29535      2597  TIP3      H2            -15.8781234723       29.2151880601       27.3415316803  TIP3      2405            0.0000000000
     29536      2598  TIP3      OH2            -8.8345644703       31.5336586710       30.7820894001  TIP3      2406            0.0000000000
     29537      2598  TIP3      H1             -8.4890257347       30.9412118128       30.0958212859  TIP3      2406            0.0000000000
     29538      2598  TIP3      H2             -8.0193904026       31.7473715072       31.2689582836  TIP3      2406            0.0000000000
     29539      2599  TIP3      OH2            -0.2293108683       23.2451434825       31.4904357256  TIP3      2407            0.0000000000
     29540      2599  TIP3      H1             -0.0453488066       23.8270369754       32.2597879811  TIP3      2407            0.0000000000
     29541      2599  TIP3      H2              0.3468970646       23.6590869824       30.8319734379  TIP3      2407            0.0000000000
     29542      2600  TIP3      OH2            -5.6513307848       26.0470174786       31.0885575753  TIP3      2408            0.0000000000
     29543      2600  TIP3      H1             -5.4810777598       25.0886625155       31.0939720540  TIP3      2408            0.0000000000
     29544      2600  TIP3      H2             -5.7525947235       26.1870123389       30.1276258193  TIP3      2408            0.0000000000
     29545      2601  TIP3      OH2           -12.5705868025       24.1192456891       28.3043848627  TIP3      2409            0.0000000000
     29546      2601  TIP3      H1            -12.4170221329       24.9692644748       27.8211866454  TIP3      2409            0.0000000000
     29547      2601  TIP3      H2            -12.9333673023       23.5752594036       27.5808306866  TIP3      2409            0.0000000000
     29548      2602  TIP3      OH2            -4.8056658371       24.2319719376       26.6821411432  TIP3      2410            0.0000000000
     29549      2602  TIP3      H1             -4.1487951966       23.8991063040       27.3367654059  TIP3      2410            0.0000000000
     29550      2602  TIP3      H2             -4.2390623944       24.7849446958       26.1233328058  TIP3      2410            0.0000000000
     29551      2603  TIP3      OH2           -15.9369813245       26.5430573668       29.0264925370  TIP3      2411            0.0000000000
     29552      2603  TIP3      H1            -15.2487728235       26.0213239855       29.4900501626  TIP3      2411            0.0000000000
     29553      2603  TIP3      H2            -15.7803573948       26.2202109128       28.1222900661  TIP3      2411            0.0000000000
     29554      2604  TIP3      OH2           -10.8278903706       28.0773411477       28.4968720784  TIP3      2412            0.0000000000
     29555      2604  TIP3      H1            -10.0673742654       27.5191313271       28.7190057662  TIP3      2412            0.0000000000
     29556      2604  TIP3      H2            -11.2271096653       27.5159839685       27.7960776792  TIP3      2412            0.0000000000
     29557      2605  TIP3      OH2             0.2146755761       24.6406634140       33.7744578783  TIP3      2413            0.0000000000
     29558      2605  TIP3      H1             -0.3834720070       25.4112251620       33.6590872902  TIP3      2413            0.0000000000
     29559      2605  TIP3      H2              0.2493449868       24.5675111200       34.7362520455  TIP3      2413            0.0000000000
     29560      2606  TIP3      OH2           -13.6262517929       23.0384657413       32.3360097032  TIP3      2414            0.0000000000
     29561      2606  TIP3      H1            -13.9074656698       23.6124358707       31.5911850422  TIP3      2414            0.0000000000
     29562      2606  TIP3      H2            -14.3019083608       23.2642748141       33.0200164389  TIP3      2414            0.0000000000
     29563      2607  TIP3      OH2            -6.3325382736       32.5112861800       25.8913537506  TIP3      2415            0.0000000000
     29564      2607  TIP3      H1             -6.6335563734       32.2553678851       24.9990540228  TIP3      2415            0.0000000000
     29565      2607  TIP3      H2             -6.6022105141       33.4496492783       25.9138762355  TIP3      2415            0.0000000000
     29566      2608  TIP3      OH2           -11.1085651902       30.6656344927       32.5885369668  TIP3      2416            0.0000000000
     29567      2608  TIP3      H1            -11.8209308180       31.3045519201       32.7943061787  TIP3      2416            0.0000000000
     29568      2608  TIP3      H2            -10.4099920429       31.2666262654       32.2860819732  TIP3      2416            0.0000000000
     29569      2609  TIP3      OH2            -3.0014994291       23.5785659244       28.6720600540  TIP3      2417            0.0000000000
     29570      2609  TIP3      H1             -3.2091771501       22.7977534373       29.1939819293  TIP3      2417            0.0000000000
     29571      2609  TIP3      H2             -2.3169782594       24.0005202917       29.2186831213  TIP3      2417            0.0000000000
     29572      2610  TIP3      OH2           -14.0577632574       24.8965514067       30.3796862800  TIP3      2418            0.0000000000
     29573      2610  TIP3      H1            -13.4244952107       25.5826444215       30.6851822585  TIP3      2418            0.0000000000
     29574      2610  TIP3      H2            -13.5469832736       24.4854041395       29.6359709435  TIP3      2418            0.0000000000
     29575      2611  TIP3      OH2           -12.6743444866       32.6678666930       33.4283829656  TIP3      2419            0.0000000000
     29576      2611  TIP3      H1            -12.7131709998       33.5432099040       33.0031280226  TIP3      2419            0.0000000000
     29577      2611  TIP3      H2            -13.5800739126       32.5870321006       33.8065132891  TIP3      2419            0.0000000000
     29578      2612  TIP3      OH2            -2.9647981930       33.9960801458       30.9969388928  TIP3      2420            0.0000000000
     29579      2612  TIP3      H1             -3.9432676486       34.0406692049       31.0663791922  TIP3      2420            0.0000000000
     29580      2612  TIP3      H2             -2.7069575528       34.8955424532       30.7311809951  TIP3      2420            0.0000000000
     29581      2613  TIP3      OH2            -2.6582888642       22.2465170515       32.3385004817  TIP3      2421            0.0000000000
     29582      2613  TIP3      H1             -3.3797686642       22.8820048639       32.2425819302  TIP3      2421            0.0000000000
     29583      2613  TIP3      H2             -1.9415017504       22.6654013616       31.8170580534  TIP3      2421            0.0000000000
     29584      2614  TIP3      OH2            -9.6949585333       20.3703569798       29.8061878977  TIP3      2422            0.0000000000
     29585      2614  TIP3      H1             -9.8416114965       19.4076484934       29.7262062710  TIP3      2422            0.0000000000
     29586      2614  TIP3      H2            -10.5731215780       20.6767744919       30.1119024312  TIP3      2422            0.0000000000
     29587      2615  TIP3      OH2            -4.7021574995       35.5256052038       27.4608315537  TIP3      2423            0.0000000000
     29588      2615  TIP3      H1             -4.2142426249       34.8824536591       26.9076327243  TIP3      2423            0.0000000000
     29589      2615  TIP3      H2             -4.3210506207       36.3415652259       27.1317168886  TIP3      2423            0.0000000000
     29590      2616  TIP3      OH2            -3.4438387965       33.6501491744       26.0459518552  TIP3      2424            0.0000000000
     29591      2616  TIP3      H1             -3.8080781098       32.9954106443       25.4158412599  TIP3      2424            0.0000000000
     29592      2616  TIP3      H2             -3.4889090895       33.1553289652       26.8839019938  TIP3      2424            0.0000000000
     29593      2617  TIP3      OH2            -1.8995568445       32.2802725267       34.5458423230  TIP3      2425            0.0000000000
     29594      2617  TIP3      H1             -1.7543569433       31.6086702525       33.8449057134  TIP3      2425            0.0000000000
     29595      2617  TIP3      H2             -1.6506838802       33.1089475515       34.0998271143  TIP3      2425            0.0000000000
     29596      2618  TIP3      OH2            -7.3110740554       29.1857102373       24.2923686896  TIP3      2426            0.0000000000
     29597      2618  TIP3      H1             -8.0876863750       29.7169695884       23.9932721810  TIP3      2426            0.0000000000
     29598      2618  TIP3      H2             -6.6860122039       29.3777769977       23.5862569906  TIP3      2426            0.0000000000
     29599      2619  TIP3      OH2            -7.3324186896       27.6073801784       21.3995759077  TIP3      2427            0.0000000000
     29600      2619  TIP3      H1             -6.5753250272       27.7571126760       21.9628335412  TIP3      2427            0.0000000000
     29601      2619  TIP3      H2             -6.9583240800       27.0804541802       20.6955638732  TIP3      2427            0.0000000000
     29602      2620  TIP3      OH2            -0.0007916151       28.5855664883       32.5923606778  TIP3      2428            0.0000000000
     29603      2620  TIP3      H1             -0.6600010691       29.3077756061       32.6274274381  TIP3      2428            0.0000000000
     29604      2620  TIP3      H2              0.4950222633       28.8192062185       31.7867523553  TIP3      2428            0.0000000000
     29605      2621  TIP3      OH2            -3.9374257621       29.3574190513       25.2424687283  TIP3      2429            0.0000000000
     29606      2621  TIP3      H1             -4.7086715384       29.6076373436       25.8016261458  TIP3      2429            0.0000000000
     29607      2621  TIP3      H2             -3.4726082119       28.6998995350       25.7761387768  TIP3      2429            0.0000000000
     29608      2622  TIP3      OH2            -4.0164252192       27.5404371152       34.3561424807  TIP3      2430            0.0000000000
     29609      2622  TIP3      H1             -4.0102821341       28.3619305404       34.8734699276  TIP3      2430            0.0000000000
     29610      2622  TIP3      H2             -4.6465914152       27.8272422642       33.6622462728  TIP3      2430            0.0000000000
     29611      2623  TIP3      OH2           -12.3846054782       30.0269058599       27.1684283662  TIP3      2431            0.0000000000
     29612      2623  TIP3      H1            -12.6040942731       29.6499258547       26.2817799036  TIP3      2431            0.0000000000
     29613      2623  TIP3      H2            -11.7074160417       29.3618794999       27.4460541139  TIP3      2431            0.0000000000
     29614      2624  TIP3      OH2           -10.9799885257       33.3989147728       29.8049040717  TIP3      2432            0.0000000000
     29615      2624  TIP3      H1            -10.9985104801       32.8557877941       29.0147385985  TIP3      2432            0.0000000000
     29616      2624  TIP3      H2            -10.2213588827       33.0503715387       30.3020095466  TIP3      2432            0.0000000000
     29617      2625  TIP3      OH2           -12.0223528360       28.7844769825       30.8451637388  TIP3      2433            0.0000000000
     29618      2625  TIP3      H1            -11.4804504257       28.8498734102       30.0179715787  TIP3      2433            0.0000000000
     29619      2625  TIP3      H2            -11.6007945270       29.4520623653       31.4273009529  TIP3      2433            0.0000000000
     29620      2626  TIP3      OH2            -5.5974363778       34.3490600539       31.5149600352  TIP3      2434            0.0000000000
     29621      2626  TIP3      H1             -5.9168017723       34.9911257397       32.1393523812  TIP3      2434            0.0000000000
     29622      2626  TIP3      H2             -5.8619819510       33.4943959230       31.9282099091  TIP3      2434            0.0000000000
     29623      2627  TIP3      OH2           -11.0268515314       33.2673962510       35.4865391109  TIP3      2435            0.0000000000
     29624      2627  TIP3      H1            -11.4662700798       33.9241040449       36.0582052035  TIP3      2435            0.0000000000
     29625      2627  TIP3      H2            -11.7106698601       32.9770334803       34.8214157275  TIP3      2435            0.0000000000
     29626      2628  TIP3      OH2           -14.1046778663       29.3791195145       34.6550008824  TIP3      2436            0.0000000000
     29627      2628  TIP3      H1            -14.0505527859       30.0387249670       35.3681049651  TIP3      2436            0.0000000000
     29628      2628  TIP3      H2            -15.0509034794       29.4464229960       34.4584497071  TIP3      2436            0.0000000000
     29629      2629  TIP3      OH2            -7.4575744352       35.2577536714       26.4754843078  TIP3      2437            0.0000000000
     29630      2629  TIP3      H1             -6.8595191899       35.6080842404       27.1283357295  TIP3      2437            0.0000000000
     29631      2629  TIP3      H2             -7.8778822387       36.0329407806       26.0902908036  TIP3      2437            0.0000000000
     29632      2630  TIP3      OH2           -12.8334121845       35.2060343047       36.2905483558  TIP3      2438            0.0000000000
     29633      2630  TIP3      H1            -12.8003705815       34.8095999896       35.4070275668  TIP3      2438            0.0000000000
     29634      2630  TIP3      H2            -13.7310427210       34.9627463726       36.6325688555  TIP3      2438            0.0000000000
     29635      2631  TIP3      OH2           -13.4247269340       29.0624031862       24.7977097725  TIP3      2439            0.0000000000
     29636      2631  TIP3      H1            -13.6203744934       29.8276614225       24.2237123797  TIP3      2439            0.0000000000
     29637      2631  TIP3      H2            -14.0514685826       28.3957412072       24.5345547455  TIP3      2439            0.0000000000
     29638      2632  TIP3      OH2           -17.2780625687       31.4878900080       33.6831273151  TIP3      2440            0.0000000000
     29639      2632  TIP3      H1            -17.7198891820       31.4130312924       32.8212555939  TIP3      2440            0.0000000000
     29640      2632  TIP3      H2            -17.1900500205       30.5373419473       33.8870463136  TIP3      2440            0.0000000000
     29641      2633  TIP3      OH2           -17.4957277899       34.2519613457       30.4054423447  TIP3      2441            0.0000000000
     29642      2633  TIP3      H1            -16.5389677336       34.1181759302       30.3756539880  TIP3      2441            0.0000000000
     29643      2633  TIP3      H2            -17.5918486322       35.0275203882       30.9731146183  TIP3      2441            0.0000000000
     29644      2634  TIP3      OH2             0.6859210818       34.9193213899       36.1884194949  TIP3      2442            0.0000000000
     29645      2634  TIP3      H1              0.5862713927       33.9625551284       36.0950105924  TIP3      2442            0.0000000000
     29646      2634  TIP3      H2             -0.1927775999       35.1808918893       36.5367695892  TIP3      2442            0.0000000000
     29647      2635  TIP3      OH2            -8.3735422320       34.5284001161       34.9274094770  TIP3      2443            0.0000000000
     29648      2635  TIP3      H1             -8.2077024680       35.2471736757       35.5397370975  TIP3      2443            0.0000000000
     29649      2635  TIP3      H2             -9.1674854157       34.0786026882       35.2774721692  TIP3      2443            0.0000000000
     29650      2636  TIP3      OH2            -2.1342078993       26.3911250133       36.5787965328  TIP3      2444            0.0000000000
     29651      2636  TIP3      H1             -2.6155945534       26.8382672247       35.8667530409  TIP3      2444            0.0000000000
     29652      2636  TIP3      H2             -2.1502062915       25.4666431980       36.2904501949  TIP3      2444            0.0000000000
     29653      2637  TIP3      OH2           -14.9956634805       32.8539377290       34.6483310751  TIP3      2445            0.0000000000
     29654      2637  TIP3      H1            -14.7683948748       32.4065423917       35.4971861986  TIP3      2445            0.0000000000
     29655      2637  TIP3      H2            -15.8269361688       32.3964458386       34.3779089209  TIP3      2445            0.0000000000
     29656      2638  TIP3      OH2           -12.3057192798       21.2817996097       30.5464215695  TIP3      2446            0.0000000000
     29657      2638  TIP3      H1            -13.2091715925       21.1457600213       30.1869852473  TIP3      2446            0.0000000000
     29658      2638  TIP3      H2            -12.4428350584       22.1097617453       31.0361465534  TIP3      2446            0.0000000000
     29659      2639  TIP3      OH2            -7.6631220255       20.9359203943       33.9125464159  TIP3      2447            0.0000000000
     29660      2639  TIP3      H1             -7.2724584806       20.5115116808       34.6996768007  TIP3      2447            0.0000000000
     29661      2639  TIP3      H2             -8.6349599926       20.8217095526       34.0569583698  TIP3      2447            0.0000000000
     29662      2640  TIP3      OH2            -4.3774985309       24.7949568981       34.8023991208  TIP3      2448            0.0000000000
     29663      2640  TIP3      H1             -4.9371585477       24.5745094447       35.5885365890  TIP3      2448            0.0000000000
     29664      2640  TIP3      H2             -4.5619778628       25.7238244080       34.5881293157  TIP3      2448            0.0000000000
     29665      2641  TIP3      OH2           -12.1941335198       26.2497363291       31.8259209973  TIP3      2449            0.0000000000
     29666      2641  TIP3      H1            -12.9446668963       26.2446252269       32.4475945187  TIP3      2449            0.0000000000
     29667      2641  TIP3      H2            -12.2491078095       27.1528171516       31.4366924409  TIP3      2449            0.0000000000
     29668      2642  TIP3      OH2           -12.3049033842       26.2204361220       26.7471985357  TIP3      2450            0.0000000000
     29669      2642  TIP3      H1            -13.2326121292       26.0958036130       26.5020388976  TIP3      2450            0.0000000000
     29670      2642  TIP3      H2            -11.8560107748       26.1572649950       25.8779318606  TIP3      2450            0.0000000000
     29671      2643  TIP3      OH2            -6.7344990915       26.8299132553       25.4179644226  TIP3      2451            0.0000000000
     29672      2643  TIP3      H1             -7.1592576890       27.6711232324       25.1157835778  TIP3      2451            0.0000000000
     29673      2643  TIP3      H2             -6.0270441771       26.7199838260       24.7671879232  TIP3      2451            0.0000000000
     29674      2644  TIP3      OH2            -7.6703533001       27.0775300469       36.8730329235  TIP3      2452            0.0000000000
     29675      2644  TIP3      H1             -8.1900869949       26.2961865240       37.1796210937  TIP3      2452            0.0000000000
     29676      2644  TIP3      H2             -6.8343710166       26.9631346206       37.3555074142  TIP3      2452            0.0000000000
     29677      2645  TIP3      OH2            -5.6591095688       26.3677816255       28.2846343750  TIP3      2453            0.0000000000
     29678      2645  TIP3      H1             -5.9899275127       26.9212262883       27.5546143554  TIP3      2453            0.0000000000
     29679      2645  TIP3      H2             -5.6006685527       25.5112722114       27.8207341071  TIP3      2453            0.0000000000
     29680      2646  TIP3      OH2           -14.5898508541       26.4929714344       33.4840395839  TIP3      2454            0.0000000000
     29681      2646  TIP3      H1            -14.4945309066       26.9014148163       34.3616964136  TIP3      2454            0.0000000000
     29682      2646  TIP3      H2            -15.0226038864       25.6526714370       33.7068656358  TIP3      2454            0.0000000000
     29683      2647  TIP3      OH2           -17.9160948742       23.6330871937       27.4666709299  TIP3      2455            0.0000000000
     29684      2647  TIP3      H1            -17.2372536764       23.5412130719       28.1668225235  TIP3      2455            0.0000000000
     29685      2647  TIP3      H2            -17.4912855518       23.2219672668       26.6902254769  TIP3      2455            0.0000000000
     29686      2648  TIP3      OH2           -16.6630871606       24.3645225529       22.8190562550  TIP3      2456            0.0000000000
     29687      2648  TIP3      H1            -16.1855341937       25.0222433261       22.3095831774  TIP3      2456            0.0000000000
     29688      2648  TIP3      H2            -17.3664160257       24.9528808832       23.1722929992  TIP3      2456            0.0000000000
     29689      2649  TIP3      OH2            -6.4952685848       27.9394010297       32.8397660228  TIP3      2457            0.0000000000
     29690      2649  TIP3      H1             -6.1132745983       27.2521590892       32.2560163331  TIP3      2457            0.0000000000
     29691      2649  TIP3      H2             -6.9640204777       27.4115602957       33.5108024422  TIP3      2457            0.0000000000
     29692      2650  TIP3      OH2            -9.6979187073       23.8841611806       27.6838366630  TIP3      2458            0.0000000000
     29693      2650  TIP3      H1            -10.6264766095       23.9530268672       27.9849714442  TIP3      2458            0.0000000000
     29694      2650  TIP3      H2             -9.2068050128       23.7587475356       28.5039371910  TIP3      2458            0.0000000000
     29695      2651  TIP3      OH2           -14.9380082555       25.4640689010       26.5689227804  TIP3      2459            0.0000000000
     29696      2651  TIP3      H1            -15.8017673633       25.5875151295       26.1357375329  TIP3      2459            0.0000000000
     29697      2651  TIP3      H2            -14.5714603093       24.6511323971       26.1699204324  TIP3      2459            0.0000000000
     29698      2652  TIP3      OH2           -11.2512336421       25.4405695406       24.0724868277  TIP3      2460            0.0000000000
     29699      2652  TIP3      H1            -10.3628698194       25.6608605141       24.4236951214  TIP3      2460            0.0000000000
     29700      2652  TIP3      H2            -11.4536825536       26.2482086619       23.5897282640  TIP3      2460            0.0000000000
     29701      2653  TIP3      OH2            -5.2878514961       23.1580778738       30.9200264063  TIP3      2461            0.0000000000
     29702      2653  TIP3      H1             -5.9738925217       23.1997924695       31.6218025988  TIP3      2461            0.0000000000
     29703      2653  TIP3      H2             -5.7914876051       22.8959178362       30.1354010056  TIP3      2461            0.0000000000
     29704      2654  TIP3      OH2           -14.4021332504       31.3332193163       36.8099383909  TIP3      2462            0.0000000000
     29705      2654  TIP3      H1            -13.7008354355       31.4814759670       37.4691222447  TIP3      2462            0.0000000000
     29706      2654  TIP3      H2            -15.1920552809       31.3357861281       37.3942970835  TIP3      2462            0.0000000000
     29707      2655  TIP3      OH2            -8.3844301976       26.6838070264       29.6016053625  TIP3      2463            0.0000000000
     29708      2655  TIP3      H1             -7.8175528198       26.1505409785       29.0346306423  TIP3      2463            0.0000000000
     29709      2655  TIP3      H2             -8.5666696822       26.1086423217       30.3503647779  TIP3      2463            0.0000000000
     29710      2656  TIP3      OH2           -13.4095376275       22.8548367062       25.9186429146  TIP3      2464            0.0000000000
     29711      2656  TIP3      H1            -13.6914099553       21.9269152724       26.0314571232  TIP3      2464            0.0000000000
     29712      2656  TIP3      H2            -12.5638661739       22.7784799894       25.4509995095  TIP3      2464            0.0000000000
     29713      2657  TIP3      OH2            -9.7670839874       24.9953839376       32.0010195092  TIP3      2465            0.0000000000
     29714      2657  TIP3      H1            -10.5905846962       25.5203047254       32.0737549058  TIP3      2465            0.0000000000
     29715      2657  TIP3      H2             -9.2102067782       25.3594364031       32.7128670209  TIP3      2465            0.0000000000
     29716      2658  TIP3      OH2            -9.1779051560       31.2177134568       23.6991316685  TIP3      2466            0.0000000000
     29717      2658  TIP3      H1             -9.9565319268       30.7468075458       23.3554722676  TIP3      2466            0.0000000000
     29718      2658  TIP3      H2             -9.4049060018       31.3408041919       24.6277864097  TIP3      2466            0.0000000000
     29719      2659  TIP3      OH2            -1.9830541476       30.4222038316       32.4843974252  TIP3      2467            0.0000000000
     29720      2659  TIP3      H1             -1.4295783808       30.9279137738       31.8589738606  TIP3      2467            0.0000000000
     29721      2659  TIP3      H2             -2.8476771440       30.4694242016       32.0266013248  TIP3      2467            0.0000000000
     29722      2660  TIP3      OH2            -5.3152507664       24.0420198509       21.8521073504  TIP3      2468            0.0000000000
     29723      2660  TIP3      H1             -6.2637344464       24.1445748434       21.7264157760  TIP3      2468            0.0000000000
     29724      2660  TIP3      H2             -5.0262492708       24.9125225443       22.1805760415  TIP3      2468            0.0000000000
     29725      2661  TIP3      OH2            -7.6977772855       31.5238572347       34.9161454476  TIP3      2469            0.0000000000
     29726      2661  TIP3      H1             -8.0375861871       31.0608410048       35.6940667698  TIP3      2469            0.0000000000
     29727      2661  TIP3      H2             -7.9420682780       32.4418245312       35.0502031888  TIP3      2469            0.0000000000
     29728      2662  TIP3      OH2            -4.6249713690       26.0185514422       23.5551755652  TIP3      2470            0.0000000000
     29729      2662  TIP3      H1             -3.7312542005       25.8309315466       23.9230708754  TIP3      2470            0.0000000000
     29730      2662  TIP3      H2             -4.4696900252       26.7666647926       22.9615247774  TIP3      2470            0.0000000000
     29731      2663  TIP3      OH2           -14.0829219572       30.6002458602       29.4787362666  TIP3      2471            0.0000000000
     29732      2663  TIP3      H1            -13.3888547076       30.5339681366       28.7851955585  TIP3      2471            0.0000000000
     29733      2663  TIP3      H2            -13.9752942753       29.7631640168       29.9596404032  TIP3      2471            0.0000000000
     29734      2664  TIP3      OH2           -17.0828981937       29.0208917770       34.7527570026  TIP3      2472            0.0000000000
     29735      2664  TIP3      H1            -16.9079315681       28.5775299959       35.6046671606  TIP3      2472            0.0000000000
     29736      2664  TIP3      H2            -17.7019389238       28.4053199404       34.3264254825  TIP3      2472            0.0000000000
     29737      2665  TIP3      OH2           -10.0698584676       28.5619959042       36.9266896560  TIP3      2473            0.0000000000
     29738      2665  TIP3      H1            -10.3895185703       28.2618810821       36.0609812115  TIP3      2473            0.0000000000
     29739      2665  TIP3      H2             -9.1413240937       28.2559693240       36.9138563090  TIP3      2473            0.0000000000
     29740      2666  TIP3      OH2            -5.3988944306       34.0133928285       34.8207290231  TIP3      2474            0.0000000000
     29741      2666  TIP3      H1             -6.3426669884       34.0710492544       34.6451182611  TIP3      2474            0.0000000000
     29742      2666  TIP3      H2             -5.4259306565       34.1820237059       35.7912452958  TIP3      2474            0.0000000000
     29743      2667  TIP3      OH2             0.2348459243       26.1137228920       23.2860814482  TIP3      2475            0.0000000000
     29744      2667  TIP3      H1             -0.2733196876       25.8155366444       22.5424429864  TIP3      2475            0.0000000000
     29745      2667  TIP3      H2              0.4032897729       27.0480090756       23.0231896499  TIP3      2475            0.0000000000
     29746      2668  TIP3      OH2             0.2852774097       31.9378949170       36.0630538171  TIP3      2476            0.0000000000
     29747      2668  TIP3      H1             -0.6137251441       32.1766547305       35.7203105782  TIP3      2476            0.0000000000
     29748      2668  TIP3      H2              0.8170301733       31.9134918189       35.2407311193  TIP3      2476            0.0000000000
     29749      2669  TIP3      OH2            -1.2088623173       34.7053216503       23.7596177981  TIP3      2477            0.0000000000
     29750      2669  TIP3      H1             -1.8577478475       34.0246998321       23.9959012109  TIP3      2477            0.0000000000
     29751      2669  TIP3      H2             -1.2260961585       34.7544463422       22.8035236041  TIP3      2477            0.0000000000
     29752      2670  TIP3      OH2            -4.2163702579       29.7391798392       30.7754957101  TIP3      2478            0.0000000000
     29753      2670  TIP3      H1             -5.1557282195       29.5305821522       30.6555604384  TIP3      2478            0.0000000000
     29754      2670  TIP3      H2             -3.7833836549       28.9853855744       30.3297570900  TIP3      2478            0.0000000000
     29755      2671  TIP3      OH2           -11.6879660895       34.0380684422       26.7887531772  TIP3      2479            0.0000000000
     29756      2671  TIP3      H1            -11.2050212823       34.8546370261       26.6213204553  TIP3      2479            0.0000000000
     29757      2671  TIP3      H2            -12.5891977504       34.2949255667       26.5659073899  TIP3      2479            0.0000000000
     29758      2672  TIP3      OH2           -15.8857201593       28.8925645271       21.4391664099  TIP3      2480            0.0000000000
     29759      2672  TIP3      H1            -15.3294257359       29.6067291614       21.7834121714  TIP3      2480            0.0000000000
     29760      2672  TIP3      H2            -16.7880939788       29.1650395908       21.6812529705  TIP3      2480            0.0000000000
     29761      2673  TIP3      OH2           -10.2249511311       31.7674907164       26.4638256953  TIP3      2481            0.0000000000
     29762      2673  TIP3      H1            -10.5933153118       32.6673340479       26.4627262274  TIP3      2481            0.0000000000
     29763      2673  TIP3      H2            -10.9736459501       31.2447621072       26.8087199564  TIP3      2481            0.0000000000
     29764      2674  TIP3      OH2            -9.7142889832       35.7029517482       32.6196156028  TIP3      2482            0.0000000000
     29765      2674  TIP3      H1             -9.3862203143       36.5986766714       32.4523695394  TIP3      2482            0.0000000000
     29766      2674  TIP3      H2             -9.1779551239       35.4665262794       33.3995552685  TIP3      2482            0.0000000000
     29767      2675  TIP3      OH2           -11.9420721062      -36.7955117524       25.5909627373  TIP3      2483            0.0000000000
     29768      2675  TIP3      H1            -12.7673054919      -36.6477720650       26.0503933518  TIP3      2483            0.0000000000
     29769      2675  TIP3      H2            -11.3906929633      -36.1294724777       26.0745083403  TIP3      2483            0.0000000000
     29770      2676  TIP3      OH2            -6.2997932212       31.9207535263       32.4331132992  TIP3      2484            0.0000000000
     29771      2676  TIP3      H1             -6.6441529635       31.6962409766       33.3221111164  TIP3      2484            0.0000000000
     29772      2676  TIP3      H2             -5.6806733956       31.1946856367       32.2435426973  TIP3      2484            0.0000000000
     29773      2677  TIP3      OH2            -3.5224442902       36.4178833990       34.8992278795  TIP3      2485            0.0000000000
     29774      2677  TIP3      H1             -4.2361246685       35.9589003054       34.4389149573  TIP3      2485            0.0000000000
     29775      2677  TIP3      H2             -3.3674271100       37.1878109505       34.3259824635  TIP3      2485            0.0000000000
     29776      2678  TIP3      OH2           -15.4291439098       23.7604417695       34.3074917493  TIP3      2486            0.0000000000
     29777      2678  TIP3      H1            -16.3378075216       24.1067275848       34.2775594366  TIP3      2486            0.0000000000
     29778      2678  TIP3      H2            -15.5395378518       22.9090890093       34.7619570820  TIP3      2486            0.0000000000
     29779      2679  TIP3      OH2            -3.1978302334       31.6463041531       23.8513077586  TIP3      2487            0.0000000000
     29780      2679  TIP3      H1             -3.4572799082       30.7926135381       24.2516563671  TIP3      2487            0.0000000000
     29781      2679  TIP3      H2             -2.2447116024       31.6519460882       23.9439607963  TIP3      2487            0.0000000000
     29782      2680  TIP3      OH2           -15.7274136703       35.5239701709       32.7224675458  TIP3      2488            0.0000000000
     29783      2680  TIP3      H1            -15.5546995155       34.5718787515       32.7333559722  TIP3      2488            0.0000000000
     29784      2680  TIP3      H2            -15.7354665589       35.8049668400       33.6349092045  TIP3      2488            0.0000000000
     29785      2681  TIP3      OH2           -11.1417965345       33.5887336333       22.4836502798  TIP3      2489            0.0000000000
     29786      2681  TIP3      H1            -10.7466087749       33.0575201051       23.1833007413  TIP3      2489            0.0000000000
     29787      2681  TIP3      H2            -10.9668150985       34.5084497707       22.7432751409  TIP3      2489            0.0000000000
     29788      2682  TIP3      OH2           -14.5653263676       30.8206858852       22.9592742097  TIP3      2490            0.0000000000
     29789      2682  TIP3      H1            -15.2166342943       31.2656690277       23.4997621633  TIP3      2490            0.0000000000
     29790      2682  TIP3      H2            -13.9918909219       31.5371673423       22.6211740435  TIP3      2490            0.0000000000
     29791      2683  TIP3      OH2            -6.6988477709       23.5302142950       33.2626186558  TIP3      2491            0.0000000000
     29792      2683  TIP3      H1             -5.9811946269       23.5914582709       33.9025500702  TIP3      2491            0.0000000000
     29793      2683  TIP3      H2             -7.0812606776       22.6542292118       33.4679393943  TIP3      2491            0.0000000000
     29794      2684  TIP3      OH2            -5.9269889989       23.1072577402       24.3458232595  TIP3      2492            0.0000000000
     29795      2684  TIP3      H1             -5.7220832585       23.5927540444       23.5272245225  TIP3      2492            0.0000000000
     29796      2684  TIP3      H2             -5.3820485094       23.5547337477       25.0056777790  TIP3      2492            0.0000000000
     29797      2685  TIP3      OH2            -8.7003734426       24.8179354295       25.1345585534  TIP3      2493            0.0000000000
     29798      2685  TIP3      H1             -7.9648165264       25.4597382068       25.1970620455  TIP3      2493            0.0000000000
     29799      2685  TIP3      H2             -9.0058775275       24.7665118817       26.0603718572  TIP3      2493            0.0000000000
     29800      2686  TIP3      OH2            -8.1622358225       25.8849042692       34.3593693233  TIP3      2494            0.0000000000
     29801      2686  TIP3      H1             -8.0877429983       26.4348229848       35.1624635782  TIP3      2494            0.0000000000
     29802      2686  TIP3      H2             -7.5064516084       25.1819764302       34.4502420365  TIP3      2494            0.0000000000
     29803      2687  TIP3      OH2            -7.8859028125       21.9152804988       26.0666827071  TIP3      2495            0.0000000000
     29804      2687  TIP3      H1             -8.2158018590       22.5824758825       26.6886285880  TIP3      2495            0.0000000000
     29805      2687  TIP3      H2             -7.1967110804       22.4461048490       25.5923805011  TIP3      2495            0.0000000000
     29806      2688  TIP3      OH2           -10.8496993110      -37.0538030846       23.1267712013  TIP3      2496            0.0000000000
     29807      2688  TIP3      H1            -10.7425087148      -36.2188692784       22.6736320583  TIP3      2496            0.0000000000
     29808      2688  TIP3      H2            -11.1494863109      -36.8039407579       24.0267070459  TIP3      2496            0.0000000000
     29809      2689  TIP3      OH2            -1.9947322235       23.7510900718       35.1986423042  TIP3      2497            0.0000000000
     29810      2689  TIP3      H1             -2.9232261375       24.0626447177       35.0681383570  TIP3      2497            0.0000000000
     29811      2689  TIP3      H2             -1.6927233965       23.7261944221       34.2740826919  TIP3      2497            0.0000000000
     29812      2690  TIP3      OH2            -3.3786818870       27.5355608820       29.2236995927  TIP3      2498            0.0000000000
     29813      2690  TIP3      H1             -4.1951434564       27.0887269118       28.9239318451  TIP3      2498            0.0000000000
     29814      2690  TIP3      H2             -2.8942253988       26.8404213126       29.7236565772  TIP3      2498            0.0000000000
     29815      2691  TIP3      OH2           -14.8250561097       20.9117841589       29.6811921850  TIP3      2499            0.0000000000
     29816      2691  TIP3      H1            -15.0202017782       20.9277522110       28.7194670161  TIP3      2499            0.0000000000
     29817      2691  TIP3      H2            -15.2350325363       20.0566402605       29.9325634878  TIP3      2499            0.0000000000
     29818      2692  TIP3      OH2           -15.7798778454       34.8138677215       25.9302448464  TIP3      2500            0.0000000000
     29819      2692  TIP3      H1            -16.6736851198       35.1954104426       25.8371555696  TIP3      2500            0.0000000000
     29820      2692  TIP3      H2            -15.3980805300       35.2897017390       25.1846751652  TIP3      2500            0.0000000000
     29821      2693  TIP3      OH2           -11.7916883298       36.0983230764       38.9084680772  TIP3      2501            0.0000000000
     29822      2693  TIP3      H1            -10.9099572047       35.7535900871       39.0815161714  TIP3      2501            0.0000000000
     29823      2693  TIP3      H2            -11.8740861830       35.9606544328       37.9473830220  TIP3      2501            0.0000000000
     29824      2694  TIP3      OH2            -5.4604103795       34.6117442227       37.3801108129  TIP3      2502            0.0000000000
     29825      2694  TIP3      H1             -5.8258216275       33.8070163331       37.7912266702  TIP3      2502            0.0000000000
     29826      2694  TIP3      H2             -4.7472687226       34.8497690190       37.9937075317  TIP3      2502            0.0000000000
     29827      2695  TIP3      OH2            -3.2882253961       35.7103521481       20.4084832062  TIP3      2503            0.0000000000
     29828      2695  TIP3      H1             -3.0438325065       34.8466006295       20.7688149255  TIP3      2503            0.0000000000
     29829      2695  TIP3      H2             -2.6055271581       35.8627426077       19.7511319201  TIP3      2503            0.0000000000
     29830      2696  TIP3      OH2           -16.7654785165       31.2433360534       38.1047603661  TIP3      2504            0.0000000000
     29831      2696  TIP3      H1            -16.5905325906       30.3395162568       37.7792998595  TIP3      2504            0.0000000000
     29832      2696  TIP3      H2            -17.4820893389       31.5421458795       37.5128662751  TIP3      2504            0.0000000000
     29833      2697  TIP3      OH2           -10.0095665324       31.2201520646       37.4573059079  TIP3      2505            0.0000000000
     29834      2697  TIP3      H1            -10.3774040289       31.5365866803       36.6139148781  TIP3      2505            0.0000000000
     29835      2697  TIP3      H2             -9.9582814536       30.2390697202       37.3559435470  TIP3      2505            0.0000000000
     29836      2698  TIP3      OH2            -4.3464213209       31.0942038417       34.8886779878  TIP3      2506            0.0000000000
     29837      2698  TIP3      H1             -3.5552162152       31.6756045057       34.8217606338  TIP3      2506            0.0000000000
     29838      2698  TIP3      H2             -5.0429910495       31.7639260153       34.9264092746  TIP3      2506            0.0000000000
     29839      2699  TIP3      OH2           -15.8223324815       28.5093037155       37.4936585117  TIP3      2507            0.0000000000
     29840      2699  TIP3      H1            -15.4172671709       27.6373777450       37.4081556400  TIP3      2507            0.0000000000
     29841      2699  TIP3      H2            -16.0558073253       28.5150491110       38.4425857455  TIP3      2507            0.0000000000
     29842      2700  TIP3      OH2           -11.1970147716       29.6101503610       22.5286280586  TIP3      2508            0.0000000000
     29843      2700  TIP3      H1            -11.5739032263       29.0837854113       23.2548120033  TIP3      2508            0.0000000000
     29844      2700  TIP3      H2            -10.9240870841       28.9253158540       21.9085406762  TIP3      2508            0.0000000000
     29845      2701  TIP3      OH2           -11.9373457318       27.4267782556       34.8403536046  TIP3      2509            0.0000000000
     29846      2701  TIP3      H1            -12.5298323400       28.1505185852       35.0955483889  TIP3      2509            0.0000000000
     29847      2701  TIP3      H2            -11.5345839106       27.7950336985       34.0350193100  TIP3      2509            0.0000000000
     29848      2702  TIP3      OH2            -6.8555757387       30.0032686629       38.2705748132  TIP3      2510            0.0000000000
     29849      2702  TIP3      H1             -5.9105891795       29.9511358447       38.0594086437  TIP3      2510            0.0000000000
     29850      2702  TIP3      H2             -7.0246871494       29.2065070969       38.7951618935  TIP3      2510            0.0000000000
     29851      2703  TIP3      OH2           -11.5197546692       24.8193786577       35.8783568509  TIP3      2511            0.0000000000
     29852      2703  TIP3      H1            -11.4108209207       24.1002114802       35.2284644916  TIP3      2511            0.0000000000
     29853      2703  TIP3      H2            -11.5718715176       25.6270969783       35.3330041882  TIP3      2511            0.0000000000
     29854      2704  TIP3      OH2           -11.1226733741       23.1845029647       33.4554459788  TIP3      2512            0.0000000000
     29855      2704  TIP3      H1            -10.6157329764       23.6544191744       32.7502118541  TIP3      2512            0.0000000000
     29856      2704  TIP3      H2            -12.0173986785       23.1112733959       33.0515668696  TIP3      2512            0.0000000000
     29857      2705  TIP3      OH2            -9.5884781883       28.6794514929       33.6985263889  TIP3      2513            0.0000000000
     29858      2705  TIP3      H1             -8.8337689008       28.5129439164       33.1236469111  TIP3      2513            0.0000000000
     29859      2705  TIP3      H2             -9.9542158352       29.5122224667       33.3552074476  TIP3      2513            0.0000000000
     29860      2706  TIP3      OH2            -5.1922372410       26.4127722277       38.6482993349  TIP3      2514            0.0000000000
     29861      2706  TIP3      H1             -4.9686771718       25.4718850500       38.5777689705  TIP3      2514            0.0000000000
     29862      2706  TIP3      H2             -4.3223825358       26.8429135023       38.6706127909  TIP3      2514            0.0000000000
     29863      2707  TIP3      OH2            -3.8429485345       29.2291372985       36.8505763903  TIP3      2515            0.0000000000
     29864      2707  TIP3      H1             -4.1014998694       29.9390931403       36.2225906227  TIP3      2515            0.0000000000
     29865      2707  TIP3      H2             -2.8893401632       29.1853993854       36.6277837248  TIP3      2515            0.0000000000
     29866      2708  TIP3      OH2           -13.0449465810       26.0409221756       37.8492454543  TIP3      2516            0.0000000000
     29867      2708  TIP3      H1            -13.8327512814       25.4908998252       37.6473926253  TIP3      2516            0.0000000000
     29868      2708  TIP3      H2            -12.4192426416       25.6964075569       37.1829951423  TIP3      2516            0.0000000000
     29869      2709  TIP3      OH2           -10.3484017497       20.6125679827       33.8629222483  TIP3      2517            0.0000000000
     29870      2709  TIP3      H1            -10.5167642022       21.5785134063       33.7498950300  TIP3      2517            0.0000000000
     29871      2709  TIP3      H2            -11.0848862355       20.2519774048       33.3393527681  TIP3      2517            0.0000000000
     29872      2710  TIP3      OH2            -9.0615322725       24.9546409393       37.4915098596  TIP3      2518            0.0000000000
     29873      2710  TIP3      H1             -9.3906635123       24.7337305150       38.3820327001  TIP3      2518            0.0000000000
     29874      2710  TIP3      H2             -9.8333288194       24.7640119570       36.9264967061  TIP3      2518            0.0000000000
     29875      2711  TIP3      OH2            -6.3481805919       24.0902836150       36.5446306660  TIP3      2519            0.0000000000
     29876      2711  TIP3      H1             -7.3080577893       24.1541456024       36.6814530214  TIP3      2519            0.0000000000
     29877      2711  TIP3      H2             -6.0757160720       23.4656497792       37.2447200063  TIP3      2519            0.0000000000
     29878      2712  TIP3      OH2            -4.7997464498       22.7233854559       38.4574077848  TIP3      2520            0.0000000000
     29879      2712  TIP3      H1             -4.8090270752       21.7462976870       38.4964613463  TIP3      2520            0.0000000000
     29880      2712  TIP3      H2             -5.0243252505       23.0161426920       39.3726477479  TIP3      2520            0.0000000000
     29881      2713  TIP3      OH2           -14.9825451389       23.9970778244       37.5679593060  TIP3      2521            0.0000000000
     29882      2713  TIP3      H1            -14.7340035920       23.2526420924       36.9951559805  TIP3      2521            0.0000000000
     29883      2713  TIP3      H2            -15.0712110291       23.5640849084       38.4454699902  TIP3      2521            0.0000000000
     29884      2714  TIP3      OH2           -10.1199019756       20.0129029444       36.5439785666  TIP3      2522            0.0000000000
     29885      2714  TIP3      H1             -9.4349491546       19.3136969759       36.5184319842  TIP3      2522            0.0000000000
     29886      2714  TIP3      H2            -10.2321530353       20.1666871614       35.5862625046  TIP3      2522            0.0000000000
     29887      2715  TIP3      OH2            -9.7777652410       21.6168847244       38.6482423138  TIP3      2523            0.0000000000
     29888      2715  TIP3      H1             -9.9368291709       21.1184268110       37.8106084977  TIP3      2523            0.0000000000
     29889      2715  TIP3      H2            -10.3453529387       22.4032438546       38.5379166499  TIP3      2523            0.0000000000
     29890      2716  TIP3      OH2           -17.2394509670       36.6076887010       28.1256313903  TIP3      2524            0.0000000000
     29891      2716  TIP3      H1            -17.5527630712       35.7267015865       28.3660645210  TIP3      2524            0.0000000000
     29892      2716  TIP3      H2            -16.9473522356       36.9569654350       28.9785490912  TIP3      2524            0.0000000000
     29893      2717  TIP3      OH2            -1.5558251011       32.7256504881       38.7193340526  TIP3      2525            0.0000000000
     29894      2717  TIP3      H1             -2.4686576805       32.7275888418       39.0743306634  TIP3      2525            0.0000000000
     29895      2717  TIP3      H2             -1.1899353170       33.5536796326       39.1077617183  TIP3      2525            0.0000000000
     29896      2718  TIP3      OH2            -0.2590130658       31.0265311908       24.1120149821  TIP3      2526            0.0000000000
     29897      2718  TIP3      H1              0.5804678307       31.4641603950       24.3184170374  TIP3      2526            0.0000000000
     29898      2718  TIP3      H2             -0.2725816079       30.3431379127       24.8199810008  TIP3      2526            0.0000000000
     29899      2719  TIP3      OH2             0.1128174716       29.1747659259       26.0128331020  TIP3      2527            0.0000000000
     29900      2719  TIP3      H1             -0.6493945128       28.6621504915       26.3725634721  TIP3      2527            0.0000000000
     29901      2719  TIP3      H2              0.7024447044       29.2792434826       26.7823109082  TIP3      2527            0.0000000000
     29902      2720  TIP3      OH2            -0.1451853437       31.8586009661       31.0180058257  TIP3      2528            0.0000000000
     29903      2720  TIP3      H1              0.6606204360       31.4804611497       30.6226583894  TIP3      2528            0.0000000000
     29904      2720  TIP3      H2             -0.0073618536       32.8062141767       30.8319061561  TIP3      2528            0.0000000000
     29905      2721  TIP3      OH2            -1.6258768606       34.7837426840       33.2947446892  TIP3      2529            0.0000000000
     29906      2721  TIP3      H1             -2.2973855993       35.1338489201       33.8872814262  TIP3      2529            0.0000000000
     29907      2721  TIP3      H2             -2.1555243784       34.3554340636       32.5862285812  TIP3      2529            0.0000000000
     29908      2722  TIP3      OH2             0.4020968213       29.0339354045       22.3899726746  TIP3      2530            0.0000000000
     29909      2722  TIP3      H1             -0.2411797582       29.3137092144       21.7229924940  TIP3      2530            0.0000000000
     29910      2722  TIP3      H2              0.2773972007       29.7182153540       23.0655454933  TIP3      2530            0.0000000000
     29911      2723  TIP3      OH2            -2.0652593668       27.6197527872       26.5905132316  TIP3      2531            0.0000000000
     29912      2723  TIP3      H1             -2.2358585393       26.6711060965       26.5401132607  TIP3      2531            0.0000000000
     29913      2723  TIP3      H2             -2.4188108887       27.8445974420       27.4692536411  TIP3      2531            0.0000000000
     29914      2724  TIP3      OH2           -17.0821708088       29.6713631592       30.6094630759  TIP3      2532            0.0000000000
     29915      2724  TIP3      H1            -16.8231020986       29.6651617291       29.6657290802  TIP3      2532            0.0000000000
     29916      2724  TIP3      H2            -16.1919421320       29.5512266490       31.0120462997  TIP3      2532            0.0000000000
     29917      2725  TIP3      OH2            -1.2209590236       29.6007879748       36.2921305362  TIP3      2533            0.0000000000
     29918      2725  TIP3      H1             -0.6081276591       28.8407212068       36.3938441045  TIP3      2533            0.0000000000
     29919      2725  TIP3      H2             -0.6129518622       30.3698291970       36.2651159229  TIP3      2533            0.0000000000
     29920      2726  TIP3      OH2             0.2721681852       27.4825481871       36.9164179304  TIP3      2534            0.0000000000
     29921      2726  TIP3      H1             -0.6055692958       27.0754942880       36.7561205049  TIP3      2534            0.0000000000
     29922      2726  TIP3      H2              0.8474867519       26.7017423018       36.8482551583  TIP3      2534            0.0000000000
     29923      2727  TIP3      OH2            -2.4256951269       25.1906265322       24.9993110088  TIP3      2535            0.0000000000
     29924      2727  TIP3      H1             -2.1164256494       24.2742359922       25.1826872514  TIP3      2535            0.0000000000
     29925      2727  TIP3      H2             -1.6161121267       25.6217768726       24.6897870182  TIP3      2535            0.0000000000
     29926      2728  TIP3      OH2            -1.7752537503       25.7558435066       30.4822757297  TIP3      2536            0.0000000000
     29927      2728  TIP3      H1             -0.8162685967       25.9891352908       30.4636195309  TIP3      2536            0.0000000000
     29928      2728  TIP3      H2             -1.9611067739       25.8988660649       31.4223723094  TIP3      2536            0.0000000000
     29929      2729  TIP3      OH2            -1.7084544582       26.4775580254       33.2548603732  TIP3      2537            0.0000000000
     29930      2729  TIP3      H1             -2.5898786823       26.7638124912       33.5812494074  TIP3      2537            0.0000000000
     29931      2729  TIP3      H2             -1.2747296170       27.3373648026       33.0389143955  TIP3      2537            0.0000000000
     29932      2730  TIP3      OH2           -17.4514830525       25.0072124599       36.7797462966  TIP3      2538            0.0000000000
     29933      2730  TIP3      H1            -16.5166376885       24.8018384764       36.9871479602  TIP3      2538            0.0000000000
     29934      2730  TIP3      H2            -17.9136965676       24.1913988873       37.0739885506  TIP3      2538            0.0000000000
     29935      2731  TIP3      OH2             0.5777966407       20.5400683224       38.5922685330  TIP3      2539            0.0000000000
     29936      2731  TIP3      H1              0.9235778296       19.8655737643       37.9879208291  TIP3      2539            0.0000000000
     29937      2731  TIP3      H2              0.6655254654       21.3548893879       38.0620115127  TIP3      2539            0.0000000000
     29938      2732  TIP3      OH2            -1.7187282799       22.4651348949       25.0190115655  TIP3      2540            0.0000000000
     29939      2732  TIP3      H1             -1.5375478212       22.0738870003       25.9035651189  TIP3      2540            0.0000000000
     29940      2732  TIP3      H2             -2.3982433904       21.8628297650       24.6594338902  TIP3      2540            0.0000000000
     29941      2733  TIP3      OH2           -16.2631861241       23.3120744477       29.6513094366  TIP3      2541            0.0000000000
     29942      2733  TIP3      H1            -15.8053492806       22.4796623858       29.8915886460  TIP3      2541            0.0000000000
     29943      2733  TIP3      H2            -15.6849501573       23.9895360075       30.0263655463  TIP3      2541            0.0000000000
     29944      2734  TIP3      OH2           -18.0342472389       26.4059559160       30.5850356252  TIP3      2542            0.0000000000
     29945      2734  TIP3      H1            -17.3808700135       26.0283348654       29.9525554231  TIP3      2542            0.0000000000
     29946      2734  TIP3      H2            -17.4683653256       27.0857284733       30.9883520794  TIP3      2542            0.0000000000
     29947      2735  TIP3      OH2             0.0830730770       22.6454665150       36.9552984348  TIP3      2543            0.0000000000
     29948      2735  TIP3      H1             -0.8583110378       22.9152240385       36.9272179128  TIP3      2543            0.0000000000
     29949      2735  TIP3      H2              0.1083003183       22.0932816959       36.1611160148  TIP3      2543            0.0000000000
     29950      2736  TIP3      OH2           -17.6131349082       22.6204370448       24.7985750386  TIP3      2544            0.0000000000
     29951      2736  TIP3      H1            -18.5597749642       22.7336500466       24.6217952442  TIP3      2544            0.0000000000
     29952      2736  TIP3      H2            -17.2117454300       23.0381202663       24.0282213512  TIP3      2544            0.0000000000
     29953      2737  TIP3      OH2           -17.6708057790       21.2301373249       33.0362284535  TIP3      2545            0.0000000000
     29954      2737  TIP3      H1            -18.3306941639       21.0319444706       33.7244983143  TIP3      2545            0.0000000000
     29955      2737  TIP3      H2            -18.1303920512       21.9010235988       32.5000641330  TIP3      2545            0.0000000000
     29956      2738  TIP3      OH2           -15.4247084120       34.5056250256       37.1840542909  TIP3      2546            0.0000000000
     29957      2738  TIP3      H1            -16.3086013713       34.6317663777       36.7863222923  TIP3      2546            0.0000000000
     29958      2738  TIP3      H2            -15.6678812455       34.3077425542       38.1068143420  TIP3      2546            0.0000000000
     29959      2739  TIP3      OH2           -12.4293982319       35.3831894513       33.3341809817  TIP3      2547            0.0000000000
     29960      2739  TIP3      H1            -12.8216538259       36.1179254618       32.8479423213  TIP3      2547            0.0000000000
     29961      2739  TIP3      H2            -11.4907449462       35.4090507622       33.0384710149  TIP3      2547            0.0000000000
     29962      2740  TIP3      OH2            -0.8971040280       20.7306205838       34.8147620858  TIP3      2548            0.0000000000
     29963      2740  TIP3      H1             -1.7229411152       21.0325011868       34.3996256653  TIP3      2548            0.0000000000
     29964      2740  TIP3      H2             -0.7287702801       19.9086684246       34.2962659994  TIP3      2548            0.0000000000
     29965      2741  TIP3      OH2           -13.6218592353       35.9105341403       28.9122718988  TIP3      2549            0.0000000000
     29966      2741  TIP3      H1            -13.7600503038       35.0156076015       29.2582402238  TIP3      2549            0.0000000000
     29967      2741  TIP3      H2            -12.8351454317       36.1321884251       29.4689087232  TIP3      2549            0.0000000000
     29968      2742  TIP3      OH2           -11.4290220851       35.9307014590       30.1707139622  TIP3      2550            0.0000000000
     29969      2742  TIP3      H1            -10.8061918755       35.3392021702       29.7198367565  TIP3      2550            0.0000000000
     29970      2742  TIP3      H2            -10.9505132024       36.3408061124       30.8936584554  TIP3      2550            0.0000000000
     29971      2743  TIP3      OH2            -7.5072656719       22.1565229191       29.1002954961  TIP3      2551            0.0000000000
     29972      2743  TIP3      H1             -8.1861794969       21.5181049785       29.3763889799  TIP3      2551            0.0000000000
     29973      2743  TIP3      H2             -6.9607180747       21.6214202946       28.5137233055  TIP3      2551            0.0000000000
     29974      2744  TIP3      OH2            -2.3744266149       20.2029449204       29.1498804899  TIP3      2552            0.0000000000
     29975      2744  TIP3      H1             -1.7581710033       20.7996641373       28.6574591439  TIP3      2552            0.0000000000
     29976      2744  TIP3      H2             -3.2529148335       20.5635646385       28.9118155232  TIP3      2552            0.0000000000
     29977      2745  TIP3      OH2            -0.7173152262       21.4728678037       27.4445523012  TIP3      2553            0.0000000000
     29978      2745  TIP3      H1             -0.0265837806       20.8843103783       27.0483417446  TIP3      2553            0.0000000000
     29979      2745  TIP3      H2             -0.1946410341       22.2958240145       27.5714957899  TIP3      2553            0.0000000000
     29980      2746  TIP3      OH2           -15.1228695510       20.7871629429       26.9317745518  TIP3      2554            0.0000000000
     29981      2746  TIP3      H1            -15.9448268946       20.5886124582       26.4415887780  TIP3      2554            0.0000000000
     29982      2746  TIP3      H2            -14.6811567708       19.9152782837       26.8805101952  TIP3      2554            0.0000000000
     29983      2747  TIP3      OH2           -10.6700148980       20.6772842293       26.7427197394  TIP3      2555            0.0000000000
     29984      2747  TIP3      H1             -9.7757954784       21.0591659321       26.6444658973  TIP3      2555            0.0000000000
     29985      2747  TIP3      H2            -10.6850647603       20.4980550745       27.6842909154  TIP3      2555            0.0000000000
     29986      2748  TIP3      OH2            -4.9550093214       20.7293953785       28.3493633248  TIP3      2556            0.0000000000
     29987      2748  TIP3      H1             -5.0029034642       20.8349447138       27.3897747100  TIP3      2556            0.0000000000
     29988      2748  TIP3      H2             -5.3270510100       19.8214647789       28.4730759839  TIP3      2556            0.0000000000
     29989      2749  TIP3      OH2            -3.6909363161       20.7185190940       23.9334345324  TIP3      2557            0.0000000000
     29990      2749  TIP3      H1             -4.4136592921       21.3716211265       23.9176227774  TIP3      2557            0.0000000000
     29991      2749  TIP3      H2             -4.1404309242       19.9171100260       24.2848069500  TIP3      2557            0.0000000000
     29992      2750  TIP3      OH2           -16.6356451005      -37.1152051008       24.0098845281  TIP3      2558            0.0000000000
     29993      2750  TIP3      H1            -17.0864466791      -37.0543183978       23.1496587940  TIP3      2558            0.0000000000
     29994      2750  TIP3      H2            -16.3677122726      -36.2022596062       24.1087294496  TIP3      2558            0.0000000000
     29995      2751  TIP3      OH2            -9.5815162853       22.7125467136       23.6053778843  TIP3      2559            0.0000000000
     29996      2751  TIP3      H1             -9.2573182968       22.1455280322       24.3069086293  TIP3      2559            0.0000000000
     29997      2751  TIP3      H2             -9.4567082823       23.5879871368       24.0364030271  TIP3      2559            0.0000000000
     29998      2752  TIP3      OH2           -15.2577892828       21.3113324667       36.3897190633  TIP3      2560            0.0000000000
     29999      2752  TIP3      H1            -15.6516049314       20.5195444466       36.8030996442  TIP3      2560            0.0000000000
     30000      2752  TIP3      H2            -14.3478578370       21.2797979899       36.7674091148  TIP3      2560            0.0000000000
     30001      2753  TIP3      OH2           -13.2544490173       20.7255419760       38.0541864448  TIP3      2561            0.0000000000
     30002      2753  TIP3      H1            -12.3736115202       20.3788426453       37.8018333192  TIP3      2561            0.0000000000
     30003      2753  TIP3      H2            -13.6325276768       19.9152816409       38.4498101270  TIP3      2561            0.0000000000
     30004      2754  TIP3      OH2            -4.8434189333       20.0026441984       38.1947478222  TIP3      2562            0.0000000000
     30005      2754  TIP3      H1             -4.7427147811       19.5167638354       39.0354384841  TIP3      2562            0.0000000000
     30006      2754  TIP3      H2             -3.9328335192       19.9733917146       37.8342394367  TIP3      2562            0.0000000000
     30007      2755  TIP3      OH2            -1.7585866862       35.9710990292       36.9982592995  TIP3      2563            0.0000000000
     30008      2755  TIP3      H1             -2.4130250674       35.8932458835       36.2758176392  TIP3      2563            0.0000000000
     30009      2755  TIP3      H2             -1.6198234461       36.9300616403       36.9765745340  TIP3      2563            0.0000000000
     30010      2756  TIP3      OH2            12.8035634579       29.9005741736       26.7840207149  TIP3      2564            0.0000000000
     30011      2756  TIP3      H1             12.8042644444       30.8849568541       26.7822450046  TIP3      2564            0.0000000000
     30012      2756  TIP3      H2             12.0599542950       29.7071307060       26.2013019389  TIP3      2564            0.0000000000
     30013      2757  TIP3      OH2            11.6665756961       29.1748866349       30.2929854765  TIP3      2565            0.0000000000
     30014      2757  TIP3      H1             11.6522561963       28.5275151649       31.0125216353  TIP3      2565            0.0000000000
     30015      2757  TIP3      H2             11.3053948038       28.6707959332       29.5427544430  TIP3      2565            0.0000000000
     30016      2758  TIP3      OH2             4.0131094247       28.8584618157       31.8511184701  TIP3      2566            0.0000000000
     30017      2758  TIP3      H1              4.0982414936       28.1698074147       32.5432211599  TIP3      2566            0.0000000000
     30018      2758  TIP3      H2              4.7652927280       29.4258772920       32.0737587573  TIP3      2566            0.0000000000
     30019      2759  TIP3      OH2            15.3420519418       32.1052842922       28.5916590517  TIP3      2567            0.0000000000
     30020      2759  TIP3      H1             14.9241574364       31.4043497450       29.0937912792  TIP3      2567            0.0000000000
     30021      2759  TIP3      H2             15.3776004893       32.8292715116       29.2429807598  TIP3      2567            0.0000000000
     30022      2760  TIP3      OH2             4.9790044614       33.3058053969       30.3669080959  TIP3      2568            0.0000000000
     30023      2760  TIP3      H1              4.6463609491       32.4385642581       30.0501178442  TIP3      2568            0.0000000000
     30024      2760  TIP3      H2              5.9263116890       33.0974588367       30.4153111574  TIP3      2568            0.0000000000
     30025      2761  TIP3      OH2             1.5523811086       26.8503431220       25.8753194634  TIP3      2569            0.0000000000
     30026      2761  TIP3      H1              1.1717741947       27.7427742649       25.7769542068  TIP3      2569            0.0000000000
     30027      2761  TIP3      H2              1.0336437478       26.3320868184       25.2480331132  TIP3      2569            0.0000000000
     30028      2762  TIP3      OH2             2.2971046750       29.0863038185       27.9912580314  TIP3      2570            0.0000000000
     30029      2762  TIP3      H1              2.5707788808       28.2628778731       28.4384761945  TIP3      2570            0.0000000000
     30030      2762  TIP3      H2              2.9881058566       29.1933590591       27.3184087156  TIP3      2570            0.0000000000
     30031      2763  TIP3      OH2            10.0222725975       31.5414194688       30.7906450549  TIP3      2571            0.0000000000
     30032      2763  TIP3      H1             10.3652726713       30.9554217424       30.0994395873  TIP3      2571            0.0000000000
     30033      2763  TIP3      H2             10.8419668750       31.7428954076       31.2753894702  TIP3      2571            0.0000000000
     30034      2764  TIP3      OH2            18.6290195494       23.2429036628       31.4900925749  TIP3      2572            0.0000000000
     30035      2764  TIP3      H1             18.8123881194       23.8255564513       32.2595918219  TIP3      2572            0.0000000000
     30036      2764  TIP3      H2             19.2043607012       23.6590647299       30.8329210896  TIP3      2572            0.0000000000
     30037      2765  TIP3      OH2            13.2049563862       26.0479041073       31.0851309577  TIP3      2573            0.0000000000
     30038      2765  TIP3      H1             13.3742516096       25.0894482067       31.0939059223  TIP3      2573            0.0000000000
     30039      2765  TIP3      H2             13.1043356229       26.1858270103       30.1234459506  TIP3      2573            0.0000000000
     30040      2766  TIP3      OH2             6.3125834926       24.1287196759       28.2950853731  TIP3      2574            0.0000000000
     30041      2766  TIP3      H1              6.4283348729       24.9665059326       27.8054931023  TIP3      2574            0.0000000000
     30042      2766  TIP3      H2              5.9196926857       23.5639718392       27.5953630688  TIP3      2574            0.0000000000
     30043      2767  TIP3      OH2            14.0332969530       24.2125003051       26.7353522071  TIP3      2575            0.0000000000
     30044      2767  TIP3      H1             14.7257680439       23.9039347726       27.3643855845  TIP3      2575            0.0000000000
     30045      2767  TIP3      H2             14.5421446922       24.7551964931       26.1089683908  TIP3      2575            0.0000000000
     30046      2768  TIP3      OH2             2.9379774498       26.5513849239       29.0386643769  TIP3      2576            0.0000000000
     30047      2768  TIP3      H1              3.6096699824       26.0068993752       29.4905552181  TIP3      2576            0.0000000000
     30048      2768  TIP3      H2              3.0514263752       26.2364504598       28.1269018708  TIP3      2576            0.0000000000
     30049      2769  TIP3      OH2             8.0965632330       28.1008151208       28.3714184919  TIP3      2577            0.0000000000
     30050      2769  TIP3      H1              8.7806530256       27.5209564343       28.7422917930  TIP3      2577            0.0000000000
     30051      2769  TIP3      H2              7.5943581531       27.4541822196       27.8342691220  TIP3      2577            0.0000000000
     30052      2770  TIP3      OH2            19.0619541824       24.6460017939       33.7644213817  TIP3      2578            0.0000000000
     30053      2770  TIP3      H1             18.4653453269       25.4169896389       33.6493151662  TIP3      2578            0.0000000000
     30054      2770  TIP3      H2             19.0907540105       24.5751834778       34.7261012311  TIP3      2578            0.0000000000
     30055      2771  TIP3      OH2             5.2300039833       23.0365899919       32.3377978595  TIP3      2579            0.0000000000
     30056      2771  TIP3      H1              4.9466013889       23.6078220676       31.5918583241  TIP3      2579            0.0000000000
     30057      2771  TIP3      H2              4.5539221525       23.2640097169       33.0208447873  TIP3      2579            0.0000000000
     30058      2772  TIP3      OH2            12.5548124352       32.5248785097       25.8973002066  TIP3      2580            0.0000000000
     30059      2772  TIP3      H1             12.2427873978       32.2788737315       25.0258682128  TIP3      2580            0.0000000000
     30060      2772  TIP3      H2             12.2346480893       33.4450828905       25.9534300152  TIP3      2580            0.0000000000
     30061      2773  TIP3      OH2             7.7406015694       30.6668289450       32.5838480769  TIP3      2581            0.0000000000
     30062      2773  TIP3      H1              7.0360598591       31.3129138167       32.7997490450  TIP3      2581            0.0000000000
     30063      2773  TIP3      H2              8.4455583816       31.2650570336       32.2838655955  TIP3      2581            0.0000000000
     30064      2774  TIP3      OH2            15.8594415613       23.5583907003       28.6522309149  TIP3      2582            0.0000000000
     30065      2774  TIP3      H1             15.6541575974       22.7993532830       29.2046954656  TIP3      2582            0.0000000000
     30066      2774  TIP3      H2             16.5319987329       24.0041321087       29.1876287884  TIP3      2582            0.0000000000
     30067      2775  TIP3      OH2             4.8019489860       24.8896289960       30.3749616063  TIP3      2583            0.0000000000
     30068      2775  TIP3      H1              5.4266375364       25.5817816375       30.6853557601  TIP3      2583            0.0000000000
     30069      2775  TIP3      H2              5.3125755791       24.4884912295       29.6250883234  TIP3      2583            0.0000000000
     30070      2776  TIP3      OH2             6.1926545321       32.6745780753       33.4064554216  TIP3      2584            0.0000000000
     30071      2776  TIP3      H1              6.1438997728       33.5780872606       33.0476782735  TIP3      2584            0.0000000000
     30072      2776  TIP3      H2              5.2971946143       32.6086358897       33.8206081440  TIP3      2584            0.0000000000
     30073      2777  TIP3      OH2             2.2123142638       32.3465765182       24.2168295982  TIP3      2585            0.0000000000
     30074      2777  TIP3      H1              1.9963471974       32.6296851149       23.3173334879  TIP3      2585            0.0000000000
     30075      2777  TIP3      H2              2.3608862819       33.1727022102       24.7206898641  TIP3      2585            0.0000000000
     30076      2778  TIP3      OH2            15.8940528306       33.9980254612       30.9887679875  TIP3      2586            0.0000000000
     30077      2778  TIP3      H1             14.9127089721       34.0436711259       31.0693577297  TIP3      2586            0.0000000000
     30078      2778  TIP3      H2             16.1512891543       34.8983343773       30.7327594647  TIP3      2586            0.0000000000
     30079      2779  TIP3      OH2            16.1970641113       22.2462660676       32.3379647854  TIP3      2587            0.0000000000
     30080      2779  TIP3      H1             15.4750247641       22.8813498991       32.2432216920  TIP3      2587            0.0000000000
     30081      2779  TIP3      H2             16.9095653474       22.6659291620       31.8130716321  TIP3      2587            0.0000000000
     30082      2780  TIP3      OH2             9.1629489605       20.3639909265       29.7848527520  TIP3      2588            0.0000000000
     30083      2780  TIP3      H1              9.0106583475       19.4010237385       29.7364975315  TIP3      2588            0.0000000000
     30084      2780  TIP3      H2              8.2907781532       20.6780722503       30.0981993913  TIP3      2588            0.0000000000
     30085      2781  TIP3      OH2            14.1379095886       35.5415341087       27.4597370355  TIP3      2589            0.0000000000
     30086      2781  TIP3      H1             14.6449092952       34.8868287426       26.9407801571  TIP3      2589            0.0000000000
     30087      2781  TIP3      H2             14.5491890505       36.3438635498       27.1366154325  TIP3      2589            0.0000000000
     30088      2782  TIP3      OH2            15.3743078281       33.6431853489       26.0716379888  TIP3      2590            0.0000000000
     30089      2782  TIP3      H1             15.0822061599       32.9818497427       25.4147565997  TIP3      2590            0.0000000000
     30090      2782  TIP3      H2             15.3743040178       33.1474116329       26.9068012702  TIP3      2590            0.0000000000
     30091      2783  TIP3      OH2            16.9582655792       32.2791030702       34.5479468113  TIP3      2591            0.0000000000
     30092      2783  TIP3      H1             17.1008732034       31.6093123295       33.8450895589  TIP3      2591            0.0000000000
     30093      2783  TIP3      H2             17.2031901213       33.1095093421       34.1006046513  TIP3      2591            0.0000000000
     30094      2784  TIP3      OH2            11.4349117554       29.1546566826       24.3090412264  TIP3      2592            0.0000000000
     30095      2784  TIP3      H1             10.7467965625       29.7466698248       23.9933190828  TIP3      2592            0.0000000000
     30096      2784  TIP3      H2             12.1855707774       29.2337339155       23.6819386201  TIP3      2592            0.0000000000
     30097      2785  TIP3      OH2            18.8543244323       28.5855624313       32.5910626055  TIP3      2593            0.0000000000
     30098      2785  TIP3      H1             18.1956809942       29.3083710565       32.6272365064  TIP3      2593            0.0000000000
     30099      2785  TIP3      H2             19.3507474746       28.8195192055       31.7861495087  TIP3      2593            0.0000000000
     30100      2786  TIP3      OH2            14.9472488602       29.3804254707       25.2603209194  TIP3      2594            0.0000000000
     30101      2786  TIP3      H1             14.1818504032       29.6088339050       25.8412978190  TIP3      2594            0.0000000000
     30102      2786  TIP3      H2             15.3832202672       28.6856195222       25.7765203845  TIP3      2594            0.0000000000
     30103      2787  TIP3      OH2            14.8393113031       27.5401884356       34.3569358916  TIP3      2595            0.0000000000
     30104      2787  TIP3      H1             14.8458347464       28.3618729714       34.8739716620  TIP3      2595            0.0000000000
     30105      2787  TIP3      H2             14.2090519180       27.8277927775       33.6634131709  TIP3      2595            0.0000000000
     30106      2788  TIP3      OH2             6.4931209962       30.0195099651       27.1833933477  TIP3      2596            0.0000000000
     30107      2788  TIP3      H1              6.2062780477       29.6633316982       26.3050032521  TIP3      2596            0.0000000000
     30108      2788  TIP3      H2              7.1408648873       29.3431041426       27.4822969905  TIP3      2596            0.0000000000
     30109      2789  TIP3      OH2             7.8480852821       33.3885866755       29.8430990591  TIP3      2597            0.0000000000
     30110      2789  TIP3      H1              7.8440695571       32.8839376044       29.0242057228  TIP3      2597            0.0000000000
     30111      2789  TIP3      H2              8.6377789072       33.0511662342       30.2981510365  TIP3      2597            0.0000000000
     30112      2790  TIP3      OH2             6.8477082927       28.7754837246       30.8183139002  TIP3      2598            0.0000000000
     30113      2790  TIP3      H1              7.3945063471       28.8710504155       30.0116042952  TIP3      2598            0.0000000000
     30114      2790  TIP3      H2              7.2447815340       29.4443079483       31.4196661921  TIP3      2598            0.0000000000
     30115      2791  TIP3      OH2            13.2586475994       34.3462362523       31.5171505417  TIP3      2599            0.0000000000
     30116      2791  TIP3      H1             12.9370224866       34.9917771166       32.1377920199  TIP3      2599            0.0000000000
     30117      2791  TIP3      H2             12.9985331449       33.4949217065       31.9383496641  TIP3      2599            0.0000000000
     30118      2792  TIP3      OH2             7.8105689702       33.2459849603       35.5110023199  TIP3      2600            0.0000000000
     30119      2792  TIP3      H1              7.3716535264       33.9635550470       36.0122187794  TIP3      2600            0.0000000000
     30120      2792  TIP3      H2              7.1374654396       33.0091722018       34.8200940485  TIP3      2600            0.0000000000
     30121      2793  TIP3      OH2            13.7598840366       28.5284064339       23.0733635729  TIP3      2601            0.0000000000
     30122      2793  TIP3      H1             14.3300083639       28.7433117100       23.8401660336  TIP3      2601            0.0000000000
     30123      2793  TIP3      H2             14.1510232040       29.0350664637       22.3544007283  TIP3      2601            0.0000000000
     30124      2794  TIP3      OH2             4.7503302033       29.3710693868       34.6550401176  TIP3      2602            0.0000000000
     30125      2794  TIP3      H1              4.8057605811       30.0344581208       35.3679172773  TIP3      2602            0.0000000000
     30126      2794  TIP3      H2              3.8049250645       29.4530721407       34.4548766421  TIP3      2602            0.0000000000
     30127      2795  TIP3      OH2            11.4868343954       35.2686927639       26.3873385279  TIP3      2603            0.0000000000
     30128      2795  TIP3      H1             11.9699801393       35.5926062085       27.1478135724  TIP3      2603            0.0000000000
     30129      2795  TIP3      H2             10.9259825236       35.9966215637       26.1199461348  TIP3      2603            0.0000000000
     30130      2796  TIP3      OH2             6.0201732660       35.2913528583       36.2265943209  TIP3      2604            0.0000000000
     30131      2796  TIP3      H1              5.9933514738       35.1198855159       35.2616280913  TIP3      2604            0.0000000000
     30132      2796  TIP3      H2              5.0987192596       35.0995843595       36.4955799351  TIP3      2604            0.0000000000
     30133      2797  TIP3      OH2            17.5213892564       20.3055183077       22.8959290987  TIP3      2605            0.0000000000
     30134      2797  TIP3      H1             16.5714000888       20.4432228744       23.0324426540  TIP3      2605            0.0000000000
     30135      2797  TIP3      H2             17.7148007336       21.0353528769       22.3079984789  TIP3      2605            0.0000000000
     30136      2798  TIP3      OH2             5.4471984728       29.1116158268       24.8560709233  TIP3      2606            0.0000000000
     30137      2798  TIP3      H1              5.2396531477       29.8264833789       24.2194499890  TIP3      2606            0.0000000000
     30138      2798  TIP3      H2              4.8450431612       28.4218779210       24.5588539542  TIP3      2606            0.0000000000
     30139      2799  TIP3      OH2            18.6587457385       34.6876493564       21.1598256529  TIP3      2607            0.0000000000
     30140      2799  TIP3      H1             18.7270894693       35.6386440267       21.2906618554  TIP3      2607            0.0000000000
     30141      2799  TIP3      H2             19.5624170510       34.3568877083       21.0885160157  TIP3      2607            0.0000000000
     30142      2800  TIP3      OH2             1.5711838647       31.4844851307       33.6728815763  TIP3      2608            0.0000000000
     30143      2800  TIP3      H1              1.1407295074       31.3984795073       32.8032002340  TIP3      2608            0.0000000000
     30144      2800  TIP3      H2              1.6649022001       30.5365906888       33.8849273575  TIP3      2608            0.0000000000
     30145      2801  TIP3      OH2             1.3980408888       34.2734839627       30.3915655286  TIP3      2609            0.0000000000
     30146      2801  TIP3      H1              2.3518832004       34.1265474121       30.4013222705  TIP3      2609            0.0000000000
     30147      2801  TIP3      H2              1.2873265424       35.0243482834       30.9926618730  TIP3      2609            0.0000000000
     30148      2802  TIP3      OH2            19.5493329112       34.9099569020       36.1932693245  TIP3      2610            0.0000000000
     30149      2802  TIP3      H1             19.4407547321       33.9566625874       36.0931130671  TIP3      2610            0.0000000000
     30150      2802  TIP3      H2             18.6659635828       35.1844269539       36.5347025403  TIP3      2610            0.0000000000
     30151      2803  TIP3      OH2            10.5038470731       34.5054120788       34.9460930637  TIP3      2611            0.0000000000
     30152      2803  TIP3      H1             10.6308768033       35.2617995984       35.5223989141  TIP3      2611            0.0000000000
     30153      2803  TIP3      H2              9.6783218420       34.0892181106       35.2664269415  TIP3      2611            0.0000000000
     30154      2804  TIP3      OH2            16.7216799816       26.3908434358       36.5784461587  TIP3      2612            0.0000000000
     30155      2804  TIP3      H1             16.2402378182       26.8382935287       35.8665135660  TIP3      2612            0.0000000000
     30156      2804  TIP3      H2             16.7050025977       25.4660004057       36.2915499349  TIP3      2612            0.0000000000
     30157      2805  TIP3      OH2             3.8723770525       32.8114131378       34.6297368247  TIP3      2613            0.0000000000
     30158      2805  TIP3      H1              4.0891758362       32.4254433750       35.5051117461  TIP3      2613            0.0000000000
     30159      2805  TIP3      H2              3.0190624298       32.3928030291       34.3846705100  TIP3      2613            0.0000000000
     30160      2806  TIP3      OH2             6.5506369681       21.2744637656       30.5541070928  TIP3      2614            0.0000000000
     30161      2806  TIP3      H1              5.6475356992       21.1449957602       30.1875152936  TIP3      2614            0.0000000000
     30162      2806  TIP3      H2              6.4127083751       22.1030899754       31.0422433773  TIP3      2614            0.0000000000
     30163      2807  TIP3      OH2            11.1947988865       20.9347936636       33.9100730164  TIP3      2615            0.0000000000
     30164      2807  TIP3      H1             11.5861553585       20.5145750928       34.7000201707  TIP3      2615            0.0000000000
     30165      2807  TIP3      H2             10.2222698189       20.8240960076       34.0601459878  TIP3      2615            0.0000000000
     30166      2808  TIP3      OH2            14.4786043675       24.7947889229       34.7993269655  TIP3      2616            0.0000000000
     30167      2808  TIP3      H1             13.9202918258       24.5744350438       35.5865242942  TIP3      2616            0.0000000000
     30168      2808  TIP3      H2             14.2946822837       25.7243414181       34.5871878692  TIP3      2616            0.0000000000
     30169      2809  TIP3      OH2             6.6593305335       26.2495343245       31.8299457776  TIP3      2617            0.0000000000
     30170      2809  TIP3      H1              5.9115408220       26.2410554748       32.4519057275  TIP3      2617            0.0000000000
     30171      2809  TIP3      H2              6.6044079810       27.1531693286       31.4378389965  TIP3      2617            0.0000000000
     30172      2810  TIP3      OH2             6.6104973471       26.3417423998       26.6930044564  TIP3      2618            0.0000000000
     30173      2810  TIP3      H1              5.6711340070       26.1222654616       26.5205119486  TIP3      2618            0.0000000000
     30174      2810  TIP3      H2              6.9948804668       26.0870609911       25.8216206885  TIP3      2618            0.0000000000
     30175      2811  TIP3      OH2            12.1063109234       26.8114322841       25.3842899730  TIP3      2619            0.0000000000
     30176      2811  TIP3      H1             11.7331720761       27.6786375776       25.1298308387  TIP3      2619            0.0000000000
     30177      2811  TIP3      H2             12.8154801331       26.7345105345       24.7391860234  TIP3      2619            0.0000000000
     30178      2812  TIP3      OH2            11.1852663579       27.0773689465       36.8731473694  TIP3      2620            0.0000000000
     30179      2812  TIP3      H1             10.6661780936       26.2958514920       37.1797727017  TIP3      2620            0.0000000000
     30180      2812  TIP3      H2             12.0219911199       26.9632367669       37.3556438444  TIP3      2620            0.0000000000
     30181      2813  TIP3      OH2            13.1582876751       26.3640509102       28.2826305842  TIP3      2621            0.0000000000
     30182      2813  TIP3      H1             12.8863186706       26.9181975440       27.5333840435  TIP3      2621            0.0000000000
     30183      2813  TIP3      H2             13.2695069191       25.5111598742       27.8167281265  TIP3      2621            0.0000000000
     30184      2814  TIP3      OH2             4.2715336758       26.4922617648       33.4847292726  TIP3      2622            0.0000000000
     30185      2814  TIP3      H1              4.3608660220       26.9025126847       34.3622895700  TIP3      2622            0.0000000000
     30186      2814  TIP3      H2              3.8320346428       25.6547957747       33.7035144351  TIP3      2622            0.0000000000
     30187      2815  TIP3      OH2             0.9324931851       23.5914086207       27.4751020891  TIP3      2623            0.0000000000
     30188      2815  TIP3      H1              1.6085626939       23.5623299512       28.1845744431  TIP3      2623            0.0000000000
     30189      2815  TIP3      H2              1.3900353061       23.2219932460       26.6991781609  TIP3      2623            0.0000000000
     30190      2816  TIP3      OH2            12.3607285510       27.9390256911       32.8392139651  TIP3      2624            0.0000000000
     30191      2816  TIP3      H1             12.7436704430       27.2516032059       32.2567319919  TIP3      2624            0.0000000000
     30192      2816  TIP3      H2             11.8921273067       27.4117966739       33.5110712929  TIP3      2624            0.0000000000
     30193      2817  TIP3      OH2             9.1712630627       23.8884326402       27.6775390962  TIP3      2625            0.0000000000
     30194      2817  TIP3      H1              8.2363976807       23.9124259267       27.9612026760  TIP3      2625            0.0000000000
     30195      2817  TIP3      H2              9.6389034393       23.7553903391       28.5156303854  TIP3      2625            0.0000000000
     30196      2818  TIP3      OH2             3.9446254988       25.4558188292       26.5894898581  TIP3      2626            0.0000000000
     30197      2818  TIP3      H1              3.0751981120       25.6303943859       26.1712981971  TIP3      2626            0.0000000000
     30198      2818  TIP3      H2              4.2549402816       24.6458125694       26.1483622811  TIP3      2626            0.0000000000
     30199      2819  TIP3      OH2             7.5710788398       25.5785073953       24.2671778816  TIP3      2627            0.0000000000
     30200      2819  TIP3      H1              8.5419500005       25.5725311575       24.3250597456  TIP3      2627            0.0000000000
     30201      2819  TIP3      H2              7.3861501847       26.1232660075       23.4868231720  TIP3      2627            0.0000000000
     30202      2820  TIP3      OH2            13.5751015214       23.1515766199       30.9326905040  TIP3      2628            0.0000000000
     30203      2820  TIP3      H1             12.8871845872       23.2035829456       31.6336651495  TIP3      2628            0.0000000000
     30204      2820  TIP3      H2             13.0664220050       22.8979703350       30.1482149467  TIP3      2628            0.0000000000
     30205      2821  TIP3      OH2             4.4554935162       31.2713703910       36.8258916485  TIP3      2629            0.0000000000
     30206      2821  TIP3      H1              5.1567170379       31.5027647601       37.4624495414  TIP3      2629            0.0000000000
     30207      2821  TIP3      H2              3.6622435716       31.3403177767       37.3997159257  TIP3      2629            0.0000000000
     30208      2822  TIP3      OH2            10.4416519404       26.6759508309       29.5739935484  TIP3      2630            0.0000000000
     30209      2822  TIP3      H1             11.0452315718       26.1416577470       29.0469345664  TIP3      2630            0.0000000000
     30210      2822  TIP3      H2             10.2966067025       26.1264238947       30.3552468144  TIP3      2630            0.0000000000
     30211      2823  TIP3      OH2             5.4520574515       22.8421384756       25.9873277344  TIP3      2631            0.0000000000
     30212      2823  TIP3      H1              5.1489642037       21.9197877848       25.9570067715  TIP3      2631            0.0000000000
     30213      2823  TIP3      H2              6.2467177834       22.7773872454       25.4444868224  TIP3      2631            0.0000000000
     30214      2824  TIP3      OH2             9.0872371164       25.0018820698       31.9890701888  TIP3      2632            0.0000000000
     30215      2824  TIP3      H1              8.2615354436       25.5216047954       32.0729766384  TIP3      2632            0.0000000000
     30216      2824  TIP3      H2              9.6423286602       25.3561863113       32.7064031626  TIP3      2632            0.0000000000
     30217      2825  TIP3      OH2            16.8727814532       30.4222567811       32.4843757503  TIP3      2633            0.0000000000
     30218      2825  TIP3      H1             17.4262512856       30.9280813552       31.8591352477  TIP3      2633            0.0000000000
     30219      2825  TIP3      H2             16.0082699141       30.4693640059       32.0265974363  TIP3      2633            0.0000000000
     30220      2826  TIP3      OH2            11.1564301390       31.5227878789       34.9154453228  TIP3      2634            0.0000000000
     30221      2826  TIP3      H1             10.8187312566       31.0612750376       35.6949091991  TIP3      2634            0.0000000000
     30222      2826  TIP3      H2             10.9175627359       32.4422653978       35.0509600183  TIP3      2634            0.0000000000
     30223      2827  TIP3      OH2             4.7890764769       30.6241115851       29.4866955560  TIP3      2635            0.0000000000
     30224      2827  TIP3      H1              5.4738321483       30.5509694021       28.7903873091  TIP3      2635            0.0000000000
     30225      2827  TIP3      H2              4.8469652314       29.7639434364       29.9365100901  TIP3      2635            0.0000000000
     30226      2828  TIP3      OH2             1.7738023318       29.0213491578       34.7494030981  TIP3      2636            0.0000000000
     30227      2828  TIP3      H1              1.9432335951       28.5727723136       35.5997900637  TIP3      2636            0.0000000000
     30228      2828  TIP3      H2              1.1541641569       28.4138167287       34.3041000912  TIP3      2636            0.0000000000
     30229      2829  TIP3      OH2             8.7856637771       28.5666082750       36.9238689664  TIP3      2637            0.0000000000
     30230      2829  TIP3      H1              8.4656953863       28.2628798171       36.0596357111  TIP3      2637            0.0000000000
     30231      2829  TIP3      H2              9.7129333682       28.2575748691       36.9138808716  TIP3      2637            0.0000000000
     30232      2830  TIP3      OH2            13.4548810584       33.9866502469       34.8109272414  TIP3      2638            0.0000000000
     30233      2830  TIP3      H1             12.5121411292       34.0690680996       34.6442703577  TIP3      2638            0.0000000000
     30234      2830  TIP3      H2             13.4426826389       34.1954955462       35.7779209714  TIP3      2638            0.0000000000
     30235      2831  TIP3      OH2            19.1459200037       31.9304493795       36.0646884536  TIP3      2639            0.0000000000
     30236      2831  TIP3      H1             18.2482624863       32.1750609026       35.7239367381  TIP3      2639            0.0000000000
     30237      2831  TIP3      H2             19.6759384179       31.9128470753       35.2411393888  TIP3      2639            0.0000000000
     30238      2832  TIP3      OH2            17.5279155804       34.7637271409       23.7854598011  TIP3      2640            0.0000000000
     30239      2832  TIP3      H1             17.0210947733       33.9811062575       23.9732169215  TIP3      2640            0.0000000000
     30240      2832  TIP3      H2             17.6464264933       34.7783219516       22.8182542372  TIP3      2640            0.0000000000
     30241      2833  TIP3      OH2            14.6414195191       29.7342185041       30.7774276110  TIP3      2641            0.0000000000
     30242      2833  TIP3      H1             13.6997759190       29.5270522997       30.6553757005  TIP3      2641            0.0000000000
     30243      2833  TIP3      H2             15.0731115320       28.9835483806       30.3278546983  TIP3      2641            0.0000000000
     30244      2834  TIP3      OH2             7.1459616752       34.0771135269       26.9264332901  TIP3      2642            0.0000000000
     30245      2834  TIP3      H1              7.6556761008       34.8290474865       26.6063396513  TIP3      2642            0.0000000000
     30246      2834  TIP3      H2              6.2911424538       34.2576980834       26.5249935218  TIP3      2642            0.0000000000
     30247      2835  TIP3      OH2             2.9854144747       28.8903917334       21.4579268562  TIP3      2643            0.0000000000
     30248      2835  TIP3      H1              3.5298675437       29.5935984332       21.8233754188  TIP3      2643            0.0000000000
     30249      2835  TIP3      H2              2.0876140891       29.1890754313       21.6787761338  TIP3      2643            0.0000000000
     30250      2836  TIP3      OH2             8.6250756611       31.7298885410       26.5145056678  TIP3      2644            0.0000000000
     30251      2836  TIP3      H1              8.2879909010       32.6428584542       26.4503316130  TIP3      2644            0.0000000000
     30252      2836  TIP3      H2              7.8331745334       31.2652989324       26.8328073275  TIP3      2644            0.0000000000
     30253      2837  TIP3      OH2             9.1823895891       35.6784313602       32.5753414789  TIP3      2645            0.0000000000
     30254      2837  TIP3      H1              9.4313635882       36.6096340462       32.4806829145  TIP3      2645            0.0000000000
     30255      2837  TIP3      H2              9.6424225503       35.4770860940       33.4069734335  TIP3      2645            0.0000000000
     30256      2838  TIP3      OH2             6.9032754983      -36.7689536709       25.6131045849  TIP3      2646            0.0000000000
     30257      2838  TIP3      H1              6.0821820409      -36.6225322572       26.0762612205  TIP3      2646            0.0000000000
     30258      2838  TIP3      H2              7.4571348403      -36.1007991772       26.0840242303  TIP3      2646            0.0000000000
     30259      2839  TIP3      OH2            12.5541252743       31.9099084650       32.4262022113  TIP3      2647            0.0000000000
     30260      2839  TIP3      H1             12.2138427953       31.6960015689       33.3200755655  TIP3      2647            0.0000000000
     30261      2839  TIP3      H2             13.1793063191       31.1889653469       32.2441314070  TIP3      2647            0.0000000000
     30262      2840  TIP3      OH2            15.3625666106       36.3572842667       34.8656520314  TIP3      2648            0.0000000000
     30263      2840  TIP3      H1             14.5891955206       35.9888772626       34.4280611855  TIP3      2648            0.0000000000
     30264      2840  TIP3      H2             15.4695345429       37.2208609741       34.4117119475  TIP3      2648            0.0000000000
     30265      2841  TIP3      OH2             3.4265049101       23.7632827184       34.3059315876  TIP3      2649            0.0000000000
     30266      2841  TIP3      H1              2.5177401093       24.1088434475       34.2752611261  TIP3      2649            0.0000000000
     30267      2841  TIP3      H2              3.3132180767       22.9116808427       34.7567803107  TIP3      2649            0.0000000000
     30268      2842  TIP3      OH2            15.6247071630       31.6219661868       23.8100137238  TIP3      2650            0.0000000000
     30269      2842  TIP3      H1             15.4489398425       30.8280104842       24.3385200498  TIP3      2650            0.0000000000
     30270      2842  TIP3      H2             16.5933886685       31.6860590499       23.8671637144  TIP3      2650            0.0000000000
     30271      2843  TIP3      OH2             3.0318484007       35.4976596097       32.7267632264  TIP3      2651            0.0000000000
     30272      2843  TIP3      H1              3.3475871482       34.5903480585       32.7500798000  TIP3      2651            0.0000000000
     30273      2843  TIP3      H2              3.2442036546       35.8521869760       33.5975482534  TIP3      2651            0.0000000000
     30274      2844  TIP3      OH2             4.2801855562       30.8776975003       22.9070765309  TIP3      2652            0.0000000000
     30275      2844  TIP3      H1              3.6378922983       31.2889793399       23.5031894988  TIP3      2652            0.0000000000
     30276      2844  TIP3      H2              4.8962833127       31.5866094720       22.6385964646  TIP3      2652            0.0000000000
     30277      2845  TIP3      OH2            12.1582451957       23.5306305202       33.2644306329  TIP3      2653            0.0000000000
     30278      2845  TIP3      H1             12.8777760908       23.5905521817       33.9041804931  TIP3      2653            0.0000000000
     30279      2845  TIP3      H2             11.7749956070       22.6543774112       33.4685529139  TIP3      2653            0.0000000000
     30280      2846  TIP3      OH2            10.6876095997       35.3563607678       23.3098049446  TIP3      2654            0.0000000000
     30281      2846  TIP3      H1              9.7514651713       35.6285693327       23.2391275823  TIP3      2654            0.0000000000
     30282      2846  TIP3      H2             11.1301664412       35.7028163223       22.5474251902  TIP3      2654            0.0000000000
     30283      2847  TIP3      OH2            10.1282226639       24.8429259569       25.1485301904  TIP3      2655            0.0000000000
     30284      2847  TIP3      H1             10.9047786211       25.4392676913       25.1898092742  TIP3      2655            0.0000000000
     30285      2847  TIP3      H2              9.8565381086       24.7500508631       26.0793338671  TIP3      2655            0.0000000000
     30286      2848  TIP3      OH2            10.6949225640       25.8855404635       34.3593269769  TIP3      2656            0.0000000000
     30287      2848  TIP3      H1             10.7692640196       26.4340630590       35.1637142149  TIP3      2656            0.0000000000
     30288      2848  TIP3      H2             11.3491812224       25.1810086422       34.4511482182  TIP3      2656            0.0000000000
     30289      2849  TIP3      OH2            11.0018799037       21.9390318493       26.0188664230  TIP3      2657            0.0000000000
     30290      2849  TIP3      H1             10.6364310964       22.5230021824       26.7174073039  TIP3      2657            0.0000000000
     30291      2849  TIP3      H2             11.6772365728       22.5345414843       25.6549284799  TIP3      2657            0.0000000000
     30292      2850  TIP3      OH2             8.0877024244      -37.0290175271       23.1083885607  TIP3      2658            0.0000000000
     30293      2850  TIP3      H1              8.0255792921      -36.1887688927       22.6721378684  TIP3      2658            0.0000000000
     30294      2850  TIP3      H2              7.6809450870      -36.8639527589       23.9906867488  TIP3      2658            0.0000000000
     30295      2851  TIP3      OH2            16.8603697688       23.7456729931       35.2080557000  TIP3      2659            0.0000000000
     30296      2851  TIP3      H1             15.9340787794       24.0615921589       35.0724158075  TIP3      2659            0.0000000000
     30297      2851  TIP3      H2             17.1642130730       23.7251774576       34.2822784687  TIP3      2659            0.0000000000
     30298      2852  TIP3      OH2            15.4744652173       27.5295704878       29.2101236498  TIP3      2660            0.0000000000
     30299      2852  TIP3      H1             14.6561427681       27.0787472623       28.9312815556  TIP3      2660            0.0000000000
     30300      2852  TIP3      H2             15.9477359141       26.8438417910       29.7314804727  TIP3      2660            0.0000000000
     30301      2853  TIP3      OH2             4.0294338542       20.9112667191       29.6841482937  TIP3      2661            0.0000000000
     30302      2853  TIP3      H1              3.8364563521       20.9244573882       28.7198036453  TIP3      2661            0.0000000000
     30303      2853  TIP3      H2              3.6193275273       20.0565940287       29.9351369078  TIP3      2661            0.0000000000
     30304      2854  TIP3      OH2             2.9806970488       34.8000027570       25.7240624147  TIP3      2662            0.0000000000
     30305      2854  TIP3      H1              2.1464444750       35.2830625112       25.8399449155  TIP3      2662            0.0000000000
     30306      2854  TIP3      H2              3.5073318234       35.3790927693       25.1653748475  TIP3      2662            0.0000000000
     30307      2855  TIP3      OH2             7.0562003193       36.1070510189       38.9068082962  TIP3      2663            0.0000000000
     30308      2855  TIP3      H1              7.9376926743       35.7530058810       39.0548551352  TIP3      2663            0.0000000000
     30309      2855  TIP3      H2              6.9449317060       35.9566092175       37.9441632511  TIP3      2663            0.0000000000
     30310      2856  TIP3      OH2            12.3977034894       36.8596110828       20.0612352586  TIP3      2664            0.0000000000
     30311      2856  TIP3      H1             11.4301191825       36.6848810600       19.7862147660  TIP3      2664            0.0000000000
     30312      2856  TIP3      H2             12.3921155336       35.9178852810       19.7152225948  TIP3      2664            0.0000000000
     30313      2857  TIP3      OH2            13.3925299448       34.5756534863       37.3682382273  TIP3      2665            0.0000000000
     30314      2857  TIP3      H1             13.0290681337       33.7885885157       37.8098492874  TIP3      2665            0.0000000000
     30315      2857  TIP3      H2             14.0930888560       34.8737096893       37.9747475218  TIP3      2665            0.0000000000
     30316      2858  TIP3      OH2            16.2215983526       35.9605645361       21.0322024163  TIP3      2666            0.0000000000
     30317      2858  TIP3      H1             15.9389576589       35.0200225995       20.9781423172  TIP3      2666            0.0000000000
     30318      2858  TIP3      H2             16.3966591123       36.0430867151       20.0797993744  TIP3      2666            0.0000000000
     30319      2859  TIP3      OH2             2.0824063603       31.2386719666       38.1090581589  TIP3      2667            0.0000000000
     30320      2859  TIP3      H1              2.2642965062       30.3399046823       37.7730969508  TIP3      2667            0.0000000000
     30321      2859  TIP3      H2              1.3734203703       31.5431715908       37.5115033197  TIP3      2667            0.0000000000
     30322      2860  TIP3      OH2             8.8387955182       31.2206765665       37.4599366755  TIP3      2668            0.0000000000
     30323      2860  TIP3      H1              8.4739776875       31.5410438384       36.6166873805  TIP3      2668            0.0000000000
     30324      2860  TIP3      H2              8.8917119938       30.2413108412       37.3515937214  TIP3      2668            0.0000000000
     30325      2861  TIP3      OH2            12.0371505235       32.0095031812       20.5516387086  TIP3      2669            0.0000000000
     30326      2861  TIP3      H1             11.5941116180       32.8375432066       20.7738370555  TIP3      2669            0.0000000000
     30327      2861  TIP3      H2             11.6601252971       31.8534687041       19.6652735104  TIP3      2669            0.0000000000
     30328      2862  TIP3      OH2            14.5085841553       31.0936024121       34.8878947659  TIP3      2670            0.0000000000
     30329      2862  TIP3      H1             15.2992793474       31.6747930655       34.8216458545  TIP3      2670            0.0000000000
     30330      2862  TIP3      H2             13.8126828293       31.7647594073       34.9265504909  TIP3      2670            0.0000000000
     30331      2863  TIP3      OH2             3.0253858015       28.4947990354       37.4925203551  TIP3      2671            0.0000000000
     30332      2863  TIP3      H1              3.4380794379       27.6275147580       37.4049989359  TIP3      2671            0.0000000000
     30333      2863  TIP3      H2              2.8016199786       28.5102538362       38.4440489644  TIP3      2671            0.0000000000
     30334      2864  TIP3      OH2             6.9192873983       27.4266362892       34.8407328968  TIP3      2672            0.0000000000
     30335      2864  TIP3      H1              6.3259688716       28.1501660875       35.0956979696  TIP3      2672            0.0000000000
     30336      2864  TIP3      H2              7.3214826659       27.7951187081       34.0354628165  TIP3      2672            0.0000000000
     30337      2865  TIP3      OH2            12.0044799192       30.0020828213       38.2673177171  TIP3      2673            0.0000000000
     30338      2865  TIP3      H1             12.9512338910       29.9442371991       38.0692916415  TIP3      2673            0.0000000000
     30339      2865  TIP3      H2             11.8306956924       29.2081743353       38.7946359668  TIP3      2673            0.0000000000
     30340      2866  TIP3      OH2             7.3370790345       24.8176038617       35.8787874706  TIP3      2674            0.0000000000
     30341      2866  TIP3      H1              7.4456549205       24.1003328495       35.2275524858  TIP3      2674            0.0000000000
     30342      2866  TIP3      H2              7.2839169595       25.6267116305       35.3333246443  TIP3      2674            0.0000000000
     30343      2867  TIP3      OH2             7.7339493606       23.1869505600       33.4534546463  TIP3      2675            0.0000000000
     30344      2867  TIP3      H1              8.2394790183       23.6498292249       32.7428271925  TIP3      2675            0.0000000000
     30345      2867  TIP3      H2              6.8382837730       23.1115724987       33.0518672095  TIP3      2675            0.0000000000
     30346      2868  TIP3      OH2             9.2662651582       28.6793603127       33.6976504417  TIP3      2676            0.0000000000
     30347      2868  TIP3      H1             10.0228808774       28.5143034180       33.1248609598  TIP3      2676            0.0000000000
     30348      2868  TIP3      H2              8.9018771417       29.5130977386       33.3560147776  TIP3      2676            0.0000000000
     30349      2869  TIP3      OH2            13.6612604649       26.4183518475       38.6234512594  TIP3      2677            0.0000000000
     30350      2869  TIP3      H1             13.8850295091       25.4750722200       38.5812560538  TIP3      2677            0.0000000000
     30351      2869  TIP3      H2             14.5322886500       26.8440727825       38.6716538154  TIP3      2677            0.0000000000
     30352      2870  TIP3      OH2            15.0097202285       29.2313251809       36.8492486134  TIP3      2678            0.0000000000
     30353      2870  TIP3      H1             14.7489628684       29.9407509586       36.2222082113  TIP3      2678            0.0000000000
     30354      2870  TIP3      H2             15.9629245435       29.1968961003       36.6276406372  TIP3      2678            0.0000000000
     30355      2871  TIP3      OH2             5.8087584190       26.0461804548       37.8419135652  TIP3      2679            0.0000000000
     30356      2871  TIP3      H1              5.0214686416       25.4944968885       37.6454085617  TIP3      2679            0.0000000000
     30357      2871  TIP3      H2              6.4364364833       25.6959904524       37.1815585987  TIP3      2679            0.0000000000
     30358      2872  TIP3      OH2             8.5158460514       20.6204375046       33.8507548661  TIP3      2680            0.0000000000
     30359      2872  TIP3      H1              8.3345746593       21.5846809866       33.7474438444  TIP3      2680            0.0000000000
     30360      2872  TIP3      H2              7.7724539376       20.2545010747       33.3399633856  TIP3      2680            0.0000000000
     30361      2873  TIP3      OH2             9.7957939714       24.9555000369       37.4934374343  TIP3      2681            0.0000000000
     30362      2873  TIP3      H1              9.4650549429       24.7308174215       38.3839182993  TIP3      2681            0.0000000000
     30363      2873  TIP3      H2              9.0226727483       24.7637870781       36.9269095307  TIP3      2681            0.0000000000
     30364      2874  TIP3      OH2            12.5068036563       24.0910440297       36.5434123561  TIP3      2682            0.0000000000
     30365      2874  TIP3      H1             11.5473792487       24.1543306942       36.6819162064  TIP3      2682            0.0000000000
     30366      2874  TIP3      H2             12.7810771510       23.4671327109       37.2440048139  TIP3      2682            0.0000000000
     30367      2875  TIP3      OH2            14.0493957838       22.7162305735       38.4374844476  TIP3      2683            0.0000000000
     30368      2875  TIP3      H1             14.0459540325       21.7422999310       38.4923018501  TIP3      2683            0.0000000000
     30369      2875  TIP3      H2             13.8357568798       23.0200699917       39.3532693591  TIP3      2683            0.0000000000
     30370      2876  TIP3      OH2             3.8718078213       23.9979577891       37.5699466271  TIP3      2684            0.0000000000
     30371      2876  TIP3      H1              4.1149142566       23.2552233251       36.9931833736  TIP3      2684            0.0000000000
     30372      2876  TIP3      H2              3.7845930312       23.5638846476       38.4451103248  TIP3      2684            0.0000000000
     30373      2877  TIP3      OH2             8.7384580134       20.0120291884       36.5422310732  TIP3      2685            0.0000000000
     30374      2877  TIP3      H1              9.4198945140       19.3111738090       36.5172909870  TIP3      2685            0.0000000000
     30375      2877  TIP3      H2              8.6237370785       20.1657005389       35.5854398239  TIP3      2685            0.0000000000
     30376      2878  TIP3      OH2             9.0801698043       21.6144101465       38.6434600455  TIP3      2686            0.0000000000
     30377      2878  TIP3      H1              8.9170676567       21.1173684313       37.8064409117  TIP3      2686            0.0000000000
     30378      2878  TIP3      H2              8.5126183834       22.4020395764       38.5417930911  TIP3      2686            0.0000000000
     30379      2879  TIP3      OH2             1.6123242210       36.6166531052       28.1401297127  TIP3      2687            0.0000000000
     30380      2879  TIP3      H1              1.3050148004       35.7288719212       28.3721883545  TIP3      2687            0.0000000000
     30381      2879  TIP3      H2              1.9090218608       36.9682385254       28.9901415556  TIP3      2687            0.0000000000
     30382      2880  TIP3      OH2            17.3041628947       32.7210456016       38.7273399899  TIP3      2688            0.0000000000
     30383      2880  TIP3      H1             16.3876190080       32.7271681475       39.0739198458  TIP3      2688            0.0000000000
     30384      2880  TIP3      H2             17.6662737710       33.5542475403       39.1079607907  TIP3      2688            0.0000000000
     30385      2881  TIP3      OH2            18.5828490785       30.9903754270       24.0901327927  TIP3      2689            0.0000000000
     30386      2881  TIP3      H1             19.4029822148       31.4915606693       24.2862006756  TIP3      2689            0.0000000000
     30387      2881  TIP3      H2             18.5855769253       30.3499261267       24.8265198123  TIP3      2689            0.0000000000
     30388      2882  TIP3      OH2            18.9904400422       29.1192790474       25.9741377422  TIP3      2690            0.0000000000
     30389      2882  TIP3      H1             18.2171825331       28.6829322396       26.3928636554  TIP3      2690            0.0000000000
     30390      2882  TIP3      H2             19.5485465515       29.3054203512       26.7574770661  TIP3      2690            0.0000000000
     30391      2883  TIP3      OH2            18.7107567567       31.8590241749       31.0168554032  TIP3      2691            0.0000000000
     30392      2883  TIP3      H1             19.5173172778       31.4806256024       30.6238768775  TIP3      2691            0.0000000000
     30393      2883  TIP3      H2             18.8485203532       32.8066818512       30.8300713286  TIP3      2691            0.0000000000
     30394      2884  TIP3      OH2            17.2338862697       34.7604694025       33.2941534226  TIP3      2692            0.0000000000
     30395      2884  TIP3      H1             16.5642266238       35.1425805866       33.8799071063  TIP3      2692            0.0000000000
     30396      2884  TIP3      H2             16.6961977513       34.3545793699       32.5828559286  TIP3      2692            0.0000000000
     30397      2885  TIP3      OH2            19.1527156077       28.9270371027       22.3788177779  TIP3      2693            0.0000000000
     30398      2885  TIP3      H1             18.7561538986       29.4603486164       21.6703716774  TIP3      2693            0.0000000000
     30399      2885  TIP3      H2             19.1861175475       29.6632788897       23.0412417924  TIP3      2693            0.0000000000
     30400      2886  TIP3      OH2            16.7902279594       27.6194187702       26.5484915087  TIP3      2694            0.0000000000
     30401      2886  TIP3      H1             16.6126355801       26.6701419815       26.5574591588  TIP3      2694            0.0000000000
     30402      2886  TIP3      H2             16.4591260551       27.8540047792       27.4390548377  TIP3      2694            0.0000000000
     30403      2887  TIP3      OH2             1.7814772074       29.7226736747       30.6379744129  TIP3      2695            0.0000000000
     30404      2887  TIP3      H1              1.9585088361       29.6301328006       29.6740516310  TIP3      2695            0.0000000000
     30405      2887  TIP3      H2              2.6732596757       29.5376441406       30.9923188739  TIP3      2695            0.0000000000
     30406      2888  TIP3      OH2            17.6362643461       29.5998975369       36.2928346504  TIP3      2696            0.0000000000
     30407      2888  TIP3      H1             18.2483801544       28.8401525634       36.3942585142  TIP3      2696            0.0000000000
     30408      2888  TIP3      H2             18.2439466354       30.3697248980       36.2651766235  TIP3      2696            0.0000000000
     30409      2889  TIP3      OH2            19.1217231681       27.4918148732       36.9137592556  TIP3      2697            0.0000000000
     30410      2889  TIP3      H1             18.2462492721       27.0797936954       36.7547273437  TIP3      2697            0.0000000000
     30411      2889  TIP3      H2             19.6990482322       26.7171655977       36.8393344132  TIP3      2697            0.0000000000
     30412      2890  TIP3      OH2            16.6884053850       23.7203992017       20.1153648751  TIP3      2698            0.0000000000
     30413      2890  TIP3      H1             17.3742971490       23.2097702395       20.5639699932  TIP3      2698            0.0000000000
     30414      2890  TIP3      H2             15.8736408806       23.2121123703       20.1918972878  TIP3      2698            0.0000000000
     30415      2891  TIP3      OH2            16.4069191221       25.2053551586       24.9789665987  TIP3      2699            0.0000000000
     30416      2891  TIP3      H1             16.6963750654       24.2856283340       25.1605051413  TIP3      2699            0.0000000000
     30417      2891  TIP3      H2             17.2119972875       25.6191159583       24.6976912978  TIP3      2699            0.0000000000
     30418      2892  TIP3      OH2            17.0833384360       25.7522995737       30.4826909469  TIP3      2700            0.0000000000
     30419      2892  TIP3      H1             18.0419403503       25.9878685158       30.4653061450  TIP3      2700            0.0000000000
     30420      2892  TIP3      H2             16.8956179784       25.8984668648       31.4222995215  TIP3      2700            0.0000000000
     30421      2893  TIP3      OH2            17.1473205778       26.4787241404       33.2561471319  TIP3      2701            0.0000000000
     30422      2893  TIP3      H1             16.2661345679       26.7632675532       33.5807004973  TIP3      2701            0.0000000000
     30423      2893  TIP3      H2             17.5802382331       27.3396547014       33.0390421594  TIP3      2701            0.0000000000
     30424      2894  TIP3      OH2             1.4045501605       25.0067613380       36.7793518018  TIP3      2702            0.0000000000
     30425      2894  TIP3      H1              2.3393116297       24.8019649754       36.9874425918  TIP3      2702            0.0000000000
     30426      2894  TIP3      H2              0.9421603211       24.1912575399       37.0739939519  TIP3      2702            0.0000000000
     30427      2895  TIP3      OH2            19.5715248873       20.5880253422       38.6207508382  TIP3      2703            0.0000000000
     30428      2895  TIP3      H1             19.7252261403       19.8560101488       37.9938208143  TIP3      2703            0.0000000000
     30429      2895  TIP3      H2             19.4471545370       21.3551098862       38.0310292780  TIP3      2703            0.0000000000
     30430      2896  TIP3      OH2            17.1142869061       22.4982403395       25.0618150710  TIP3      2704            0.0000000000
     30431      2896  TIP3      H1             17.3329275703       22.0698099662       25.9271342927  TIP3      2704            0.0000000000
     30432      2896  TIP3      H2             16.4982367888       21.8473600961       24.6590308992  TIP3      2704            0.0000000000
     30433      2897  TIP3      OH2             2.5978722417       23.3096386441       29.6446337772  TIP3      2705            0.0000000000
     30434      2897  TIP3      H1              3.0578176191       22.4820479854       29.8979379282  TIP3      2705            0.0000000000
     30435      2897  TIP3      H2              3.1532640317       24.0006381395       30.0283844774  TIP3      2705            0.0000000000
     30436      2898  TIP3      OH2             0.8786652508       26.3130435568       30.6782455176  TIP3      2706            0.0000000000
     30437      2898  TIP3      H1              1.4427336656       26.0587033443       29.9193059582  TIP3      2706            0.0000000000
     30438      2898  TIP3      H2              1.3508388066       27.1141049378       30.9471833366  TIP3      2706            0.0000000000
     30439      2899  TIP3      OH2            18.9599286743       22.6227809251       36.9578584993  TIP3      2707            0.0000000000
     30440      2899  TIP3      H1             18.0166529901       22.9181690213       36.9364801955  TIP3      2707            0.0000000000
     30441      2899  TIP3      H2             18.9462441701       22.0928420240       36.1464749101  TIP3      2707            0.0000000000
     30442      2900  TIP3      OH2             1.2387794147       22.5761177279       24.7126009513  TIP3      2708            0.0000000000
     30443      2900  TIP3      H1              0.2996139680       22.7917925281       24.6276304177  TIP3      2708            0.0000000000
     30444      2900  TIP3      H2              1.6772786244       23.0839471699       24.0354028247  TIP3      2708            0.0000000000
     30445      2901  TIP3      OH2             1.1910861649       21.2152998728       33.0425990688  TIP3      2709            0.0000000000
     30446      2901  TIP3      H1              0.5259975632       21.0282447209       33.7279680969  TIP3      2709            0.0000000000
     30447      2901  TIP3      H2              0.7354627194       21.8940876559       32.5059250641  TIP3      2709            0.0000000000
     30448      2902  TIP3      OH2             3.4190978895       34.4719719185       37.2013021810  TIP3      2710            0.0000000000
     30449      2902  TIP3      H1              2.5586752680       34.6504436757       36.7780179591  TIP3      2710            0.0000000000
     30450      2902  TIP3      H2              3.1725984942       34.3277525544       38.1261030825  TIP3      2710            0.0000000000
     30451      2903  TIP3      OH2             6.3763782456       35.4234285305       33.5514861005  TIP3      2711            0.0000000000
     30452      2903  TIP3      H1              5.9215587357       36.1859114879       33.1707726693  TIP3      2711            0.0000000000
     30453      2903  TIP3      H2              7.2463025388       35.4480278924       33.1222873031  TIP3      2711            0.0000000000
     30454      2904  TIP3      OH2            17.9715045373       20.7325926895       34.8169683681  TIP3      2712            0.0000000000
     30455      2904  TIP3      H1             17.1429780132       21.0355476576       34.4031833075  TIP3      2712            0.0000000000
     30456      2904  TIP3      H2             18.1319036568       19.9091535113       34.3007797257  TIP3      2712            0.0000000000
     30457      2905  TIP3      OH2             5.2314474152       35.8935554135       28.8706680471  TIP3      2713            0.0000000000
     30458      2905  TIP3      H1              5.0945433721       35.0240490458       29.2790301484  TIP3      2713            0.0000000000
     30459      2905  TIP3      H2              6.0013228933       36.1437330576       29.4479989445  TIP3      2713            0.0000000000
     30460      2906  TIP3      OH2             7.4233472101       35.9377299874       30.1591052619  TIP3      2714            0.0000000000
     30461      2906  TIP3      H1              8.0484025110       35.3364370536       29.7290114680  TIP3      2714            0.0000000000
     30462      2906  TIP3      H2              7.8835999253       36.3371522607       30.9050941861  TIP3      2714            0.0000000000
     30463      2907  TIP3      OH2            11.3329584952       22.1473594554       29.0682925664  TIP3      2715            0.0000000000
     30464      2907  TIP3      H1             10.6703573199       21.5101624688       29.3803826391  TIP3      2715            0.0000000000
     30465      2907  TIP3      H2             11.9107905204       21.6101411117       28.5197301387  TIP3      2715            0.0000000000
     30466      2908  TIP3      OH2            16.4859130864       20.2037372050       29.1487413520  TIP3      2716            0.0000000000
     30467      2908  TIP3      H1             17.0883781389       20.8028968419       28.6401975893  TIP3      2716            0.0000000000
     30468      2908  TIP3      H2             15.6003101172       20.5616013625       28.9355849781  TIP3      2716            0.0000000000
     30469      2909  TIP3      OH2            18.1471018317       21.4568258150       27.4336925102  TIP3      2717            0.0000000000
     30470      2909  TIP3      H1             18.8450840575       20.8786903136       27.0419174184  TIP3      2717            0.0000000000
     30471      2909  TIP3      H2             18.6571011219       22.2781469728       27.6016057516  TIP3      2717            0.0000000000
     30472      2910  TIP3      OH2             3.7154910346       20.7804292053       26.9401312161  TIP3      2718            0.0000000000
     30473      2910  TIP3      H1              2.9211768950       20.5710384910       26.4161957724  TIP3      2718            0.0000000000
     30474      2910  TIP3      H2              4.1808975308       19.9243226323       26.8540926417  TIP3      2718            0.0000000000
     30475      2911  TIP3      OH2             2.4352650518       20.5759594627       22.5919015438  TIP3      2719            0.0000000000
     30476      2911  TIP3      H1              3.0007634803       21.2211966521       22.1524966374  TIP3      2719            0.0000000000
     30477      2911  TIP3      H2              1.9418491448       21.0853479499       23.2514860613  TIP3      2719            0.0000000000
     30478      2912  TIP3      OH2             8.2389305896       20.6702197728       26.7000127858  TIP3      2720            0.0000000000
     30479      2912  TIP3      H1              9.0997740786       21.1047244034       26.6717629116  TIP3      2720            0.0000000000
     30480      2912  TIP3      H2              8.1578678243       20.4964539507       27.6397470631  TIP3      2720            0.0000000000
     30481      2913  TIP3      OH2            13.8959571582       20.7320580310       28.3425632809  TIP3      2721            0.0000000000
     30482      2913  TIP3      H1             13.8670814226       20.8305838898       27.3840196141  TIP3      2721            0.0000000000
     30483      2913  TIP3      H2             13.5184991411       19.8324659708       28.5021366029  TIP3      2721            0.0000000000
     30484      2914  TIP3      OH2            15.1910902858       20.7493413366       24.0559931936  TIP3      2722            0.0000000000
     30485      2914  TIP3      H1             14.4788443522       21.3701755380       23.9221857799  TIP3      2722            0.0000000000
     30486      2914  TIP3      H2             14.7376788276       19.9021706157       24.2627569930  TIP3      2722            0.0000000000
     30487      2915  TIP3      OH2             9.5648915355       22.7080845372       23.5731778455  TIP3      2723            0.0000000000
     30488      2915  TIP3      H1              9.5511352348       22.1890637233       24.3822354530  TIP3      2723            0.0000000000
     30489      2915  TIP3      H2              9.3493620259       23.5956318347       23.9522052849  TIP3      2723            0.0000000000
     30490      2916  TIP3      OH2             3.5993951896       21.3198717613       36.3911123587  TIP3      2724            0.0000000000
     30491      2916  TIP3      H1              3.2041388019       20.5257538877       36.8002167049  TIP3      2724            0.0000000000
     30492      2916  TIP3      H2              4.5090166286       21.2784688658       36.7677164661  TIP3      2724            0.0000000000
     30493      2917  TIP3      OH2             5.5998872885       20.7240283052       38.0558744101  TIP3      2725            0.0000000000
     30494      2917  TIP3      H1              6.4779951354       20.3738571288       37.7985926763  TIP3      2725            0.0000000000
     30495      2917  TIP3      H2              5.2244817886       19.9150808617       38.4513392328  TIP3      2725            0.0000000000
     30496      2918  TIP3      OH2            14.0061920226       19.9781857949       38.1768513837  TIP3      2726            0.0000000000
     30497      2918  TIP3      H1             14.1058667947       19.5172490494       39.0312942193  TIP3      2726            0.0000000000
     30498      2918  TIP3      H2             14.9268316413       19.9660597762       37.8404562940  TIP3      2726            0.0000000000
     30499      2919  TIP3      OH2            17.1113738033       35.9661243172       36.9878471175  TIP3      2727            0.0000000000
     30500      2919  TIP3      H1             16.4356828432       35.9142341910       36.2801779820  TIP3      2727            0.0000000000
     30501      2919  TIP3      H2             17.1948155007       36.9386203883       36.9882984142  TIP3      2727            0.0000000000
     30502      2920  TIP3      OH2            31.6608252952       29.9027225380       26.7954747275  TIP3      2728            0.0000000000
     30503      2920  TIP3      H1             31.6592862497       30.8822118095       26.7726503681  TIP3      2728            0.0000000000
     30504      2920  TIP3      H2             30.9231919169       29.6854274258       26.2135816225  TIP3      2728            0.0000000000
     30505      2921  TIP3      OH2            30.5227367105       29.1758051082       30.2859931202  TIP3      2729            0.0000000000
     30506      2921  TIP3      H1             30.5019925400       28.5339049657       31.0148338098  TIP3      2729            0.0000000000
     30507      2921  TIP3      H2             30.1839977121       28.6605264528       29.5369993596  TIP3      2729            0.0000000000
     30508      2922  TIP3      OH2            22.8778597451       28.8565817069       31.8366528325  TIP3      2730            0.0000000000
     30509      2922  TIP3      H1             22.9511990798       28.1731922047       32.5377159573  TIP3      2730            0.0000000000
     30510      2922  TIP3      H2             23.6226005666       29.4279131844       32.0726305817  TIP3      2730            0.0000000000
     30511      2923  TIP3      OH2            34.2123651268       32.0919531562       28.5950790318  TIP3      2731            0.0000000000
     30512      2923  TIP3      H1             33.7916432620       31.3923224138       29.1005111565  TIP3      2731            0.0000000000
     30513      2923  TIP3      H2             34.2982130452       32.7919955696       29.2597813915  TIP3      2731            0.0000000000
     30514      2924  TIP3      OH2            23.8347804025       33.3066638768       30.3672443575  TIP3      2732            0.0000000000
     30515      2924  TIP3      H1             23.5016070718       32.4401015202       30.0500996849  TIP3      2732            0.0000000000
     30516      2924  TIP3      H2             24.7830103455       33.1096411915       30.3988234759  TIP3      2732            0.0000000000
     30517      2925  TIP3      OH2            20.5112011667       26.9027228616       25.7084669234  TIP3      2733            0.0000000000
     30518      2925  TIP3      H1             20.0214140586       27.7455374074       25.8474410291  TIP3      2733            0.0000000000
     30519      2925  TIP3      H2             19.8522541501       26.3008520523       25.3955824116  TIP3      2733            0.0000000000
     30520      2926  TIP3      OH2            21.1338919044       29.0700854723       27.9504357098  TIP3      2734            0.0000000000
     30521      2926  TIP3      H1             21.4249039630       28.2726335531       28.4321003615  TIP3      2734            0.0000000000
     30522      2926  TIP3      H2             21.8553191405       29.2153417971       27.3290398262  TIP3      2734            0.0000000000
     30523      2927  TIP3      OH2            28.8800763721       31.5408081271       30.7917468541  TIP3      2735            0.0000000000
     30524      2927  TIP3      H1             29.2262194923       30.9484568271       30.1090717100  TIP3      2735            0.0000000000
     30525      2927  TIP3      H2             29.6983332783       31.7435097016       31.2774921787  TIP3      2735            0.0000000000
     30526      2928  TIP3      OH2            32.0392467003       26.0474226730       31.0705398006  TIP3      2736            0.0000000000
     30527      2928  TIP3      H1             32.2406767830       25.0954266255       31.0832362775  TIP3      2736            0.0000000000
     30528      2928  TIP3      H2             31.9579837330       26.1758065391       30.1057758973  TIP3      2736            0.0000000000
     30529      2929  TIP3      OH2            25.1591163692       24.1298583676       28.2973598045  TIP3      2737            0.0000000000
     30530      2929  TIP3      H1             25.2891630093       24.9633818135       27.8228237380  TIP3      2737            0.0000000000
     30531      2929  TIP3      H2             24.7735124514       23.5636259186       27.5956781376  TIP3      2737            0.0000000000
     30532      2930  TIP3      OH2            32.9111807830       24.2723474549       26.7657788100  TIP3      2738            0.0000000000
     30533      2930  TIP3      H1             33.6201921301       23.8811399800       27.3158380067  TIP3      2738            0.0000000000
     30534      2930  TIP3      H2             33.3895760668       24.7128387244       26.0538730830  TIP3      2738            0.0000000000
     30535      2931  TIP3      OH2            21.8173416447       26.5616218326       29.0481828291  TIP3      2739            0.0000000000
     30536      2931  TIP3      H1             22.4673813203       25.9992539378       29.5034427210  TIP3      2739            0.0000000000
     30537      2931  TIP3      H2             21.9145437949       26.2358221924       28.1419899349  TIP3      2739            0.0000000000
     30538      2932  TIP3      OH2            26.9493208229       28.0957289806       28.3541877477  TIP3      2740            0.0000000000
     30539      2932  TIP3      H1             27.6344470085       27.5307780795       28.7562134870  TIP3      2740            0.0000000000
     30540      2932  TIP3      H2             26.4449591586       27.4181008225       27.8665408630  TIP3      2740            0.0000000000
     30541      2933  TIP3      OH2            24.0859327883       23.0372570284       32.3329300976  TIP3      2741            0.0000000000
     30542      2933  TIP3      H1             23.8055782420       23.6093684058       31.5878214899  TIP3      2741            0.0000000000
     30543      2933  TIP3      H2             23.4080686169       23.2717350908       33.0062953775  TIP3      2741            0.0000000000
     30544      2934  TIP3      OH2            31.3930554723       32.4966376384       25.8692281311  TIP3      2742            0.0000000000
     30545      2934  TIP3      H1             31.1047526590       32.3017573269       24.9681192669  TIP3      2742            0.0000000000
     30546      2934  TIP3      H2             31.0988657119       33.4232367126       25.9637510228  TIP3      2742            0.0000000000
     30547      2935  TIP3      OH2            26.5948909353       30.6645246430       32.5833843094  TIP3      2743            0.0000000000
     30548      2935  TIP3      H1             25.8932082631       31.3122382615       32.8006784817  TIP3      2743            0.0000000000
     30549      2935  TIP3      H2             27.3010903835       31.2638994882       32.2897542845  TIP3      2743            0.0000000000
     30550      2936  TIP3      OH2            34.5133148032       23.5299912136       28.7509453071  TIP3      2744            0.0000000000
     30551      2936  TIP3      H1             34.4745317895       22.7294659137       29.2645654299  TIP3      2744            0.0000000000
     30552      2936  TIP3      H2             35.2546163861       24.0077789474       29.1619683210  TIP3      2744            0.0000000000
     30553      2937  TIP3      OH2            23.6573734351       24.8862885332       30.3757507963  TIP3      2745            0.0000000000
     30554      2937  TIP3      H1             24.2816780745       25.5777099104       30.6890019398  TIP3      2745            0.0000000000
     30555      2937  TIP3      H2             24.1765342037       24.4847678752       29.6324598070  TIP3      2745            0.0000000000
     30556      2938  TIP3      OH2            25.0479375881       32.6739298936       33.4062986782  TIP3      2746            0.0000000000
     30557      2938  TIP3      H1             24.9974391918       33.5774739938       33.0479489486  TIP3      2746            0.0000000000
     30558      2938  TIP3      H2             24.1529144231       32.6079056684       33.8212661934  TIP3      2746            0.0000000000
     30559      2939  TIP3      OH2            21.0973473339       32.3634038009       24.1986505255  TIP3      2747            0.0000000000
     30560      2939  TIP3      H1             20.8623355490       32.6304793921       23.2901979921  TIP3      2747            0.0000000000
     30561      2939  TIP3      H2             21.2102567513       33.1960569622       24.6790161408  TIP3      2747            0.0000000000
     30562      2940  TIP3      OH2            34.6701679927       33.9379516573       31.0363324363  TIP3      2748            0.0000000000
     30563      2940  TIP3      H1             33.6982244607       34.0399102196       31.0957752881  TIP3      2748            0.0000000000
     30564      2940  TIP3      H2             34.9753444585       34.8115109782       30.7403441138  TIP3      2748            0.0000000000
     30565      2941  TIP3      OH2            34.9864266291       22.3576178348       32.2124635620  TIP3      2749            0.0000000000
     30566      2941  TIP3      H1             34.2285143669       22.9700290957       32.2273390411  TIP3      2749            0.0000000000
     30567      2941  TIP3      H2             35.6617828250       22.8461020131       31.7363600309  TIP3      2749            0.0000000000
     30568      2942  TIP3      OH2            28.0251489571       20.3630683754       29.8250614255  TIP3      2750            0.0000000000
     30569      2942  TIP3      H1             27.8744122063       19.4022788585       29.7345310956  TIP3      2750            0.0000000000
     30570      2942  TIP3      H2             27.1412752084       20.6794316391       30.1060960330  TIP3      2750            0.0000000000
     30571      2943  TIP3      OH2            33.0188473679       35.5483366678       27.4429515390  TIP3      2751            0.0000000000
     30572      2943  TIP3      H1             33.5032369609       34.8744376966       26.9251307117  TIP3      2751            0.0000000000
     30573      2943  TIP3      H2             33.4202231426       36.3594761290       27.1328723492  TIP3      2751            0.0000000000
     30574      2944  TIP3      OH2            34.2499293553       33.6554476964       26.0315935710  TIP3      2752            0.0000000000
     30575      2944  TIP3      H1             33.9326119543       32.9758690473       25.4304887886  TIP3      2752            0.0000000000
     30576      2944  TIP3      H2             34.2672137761       33.1566636278       26.8712135089  TIP3      2752            0.0000000000
     30577      2945  TIP3      OH2            35.5896943358       32.3814754394       34.6010664226  TIP3      2753            0.0000000000
     30578      2945  TIP3      H1             35.9034878653       31.6763801525       34.0047862847  TIP3      2753            0.0000000000
     30579      2945  TIP3      H2             36.0393412085       33.1427538382       34.1881444255  TIP3      2753            0.0000000000
     30580      2946  TIP3      OH2            30.3464314638       29.2084788255       24.2891223037  TIP3      2754            0.0000000000
     30581      2946  TIP3      H1             29.6083011045       29.7520095515       23.9516161383  TIP3      2754            0.0000000000
     30582      2946  TIP3      H2             30.9978760556       29.2661597990       23.5970701153  TIP3      2754            0.0000000000
     30583      2947  TIP3      OH2            33.7285133224       29.4226392368       25.2195652880  TIP3      2755            0.0000000000
     30584      2947  TIP3      H1             33.0215907169       29.6353997325       25.8607580553  TIP3      2755            0.0000000000
     30585      2947  TIP3      H2             34.2191783477       28.7359031548       25.7374213635  TIP3      2755            0.0000000000
     30586      2948  TIP3      OH2            33.6354170132       27.5119401249       34.3360628991  TIP3      2756            0.0000000000
     30587      2948  TIP3      H1             33.6884918878       28.3203293184       34.8708487546  TIP3      2756            0.0000000000
     30588      2948  TIP3      H2             33.0492604026       27.8451273043       33.6331057540  TIP3      2756            0.0000000000
     30589      2949  TIP3      OH2            25.3993964668       30.0332258003       27.1361893171  TIP3      2757            0.0000000000
     30590      2949  TIP3      H1             25.0478147050       29.6274140656       26.3431650775  TIP3      2757            0.0000000000
     30591      2949  TIP3      H2             26.0015046432       29.3476512182       27.5157914215  TIP3      2757            0.0000000000
     30592      2950  TIP3      OH2            26.7083497051       33.3893157701       29.8198715948  TIP3      2758            0.0000000000
     30593      2950  TIP3      H1             26.7089438102       32.8686467071       29.0160543849  TIP3      2758            0.0000000000
     30594      2950  TIP3      H2             27.4880600308       33.0565619267       30.2984427424  TIP3      2758            0.0000000000
     30595      2951  TIP3      OH2            25.7067238524       28.7803246215       30.8203159978  TIP3      2759            0.0000000000
     30596      2951  TIP3      H1             26.2773796162       28.8815451531       30.0373507952  TIP3      2759            0.0000000000
     30597      2951  TIP3      H2             26.0944324329       29.4442431736       31.4311368067  TIP3      2759            0.0000000000
     30598      2952  TIP3      OH2            32.0853453998       34.3600056260       31.5188825728  TIP3      2760            0.0000000000
     30599      2952  TIP3      H1             31.7996392910       34.9848658683       32.1703331714  TIP3      2760            0.0000000000
     30600      2952  TIP3      H2             31.8649678487       33.4973582016       31.9368516221  TIP3      2760            0.0000000000
     30601      2953  TIP3      OH2            26.6685346838       33.2449934530       35.5088138301  TIP3      2761            0.0000000000
     30602      2953  TIP3      H1             26.2289506401       33.9623005539       36.0118662498  TIP3      2761            0.0000000000
     30603      2953  TIP3      H2             25.9927310989       33.0090452623       34.8191660928  TIP3      2761            0.0000000000
     30604      2954  TIP3      OH2            23.6074578484       29.3742066064       34.6504000832  TIP3      2762            0.0000000000
     30605      2954  TIP3      H1             23.6625333573       30.0355900920       35.3657243018  TIP3      2762            0.0000000000
     30606      2954  TIP3      H2             22.6616532302       29.4513489972       34.4560865533  TIP3      2762            0.0000000000
     30607      2955  TIP3      OH2            30.3078672900       35.2805742558       26.3925479087  TIP3      2763            0.0000000000
     30608      2955  TIP3      H1             30.8323999971       35.6151748036       27.1292754791  TIP3      2763            0.0000000000
     30609      2955  TIP3      H2             29.8136488285       36.0488514262       26.0881451035  TIP3      2763            0.0000000000
     30610      2956  TIP3      OH2            24.8756598776       35.2919500177       36.2305871465  TIP3      2764            0.0000000000
     30611      2956  TIP3      H1             24.8450885246       35.1198417782       35.2682113523  TIP3      2764            0.0000000000
     30612      2956  TIP3      H2             23.9547947484       35.0988052753       36.4991811752  TIP3      2764            0.0000000000
     30613      2957  TIP3      OH2            20.4297142338       31.4869414818       33.6717419912  TIP3      2765            0.0000000000
     30614      2957  TIP3      H1             19.9955464474       31.3989009317       32.8038156465  TIP3      2765            0.0000000000
     30615      2957  TIP3      H2             20.5203913577       30.5384819166       33.8855569923  TIP3      2765            0.0000000000
     30616      2958  TIP3      OH2            20.2470186166       34.2746223666       30.3947391543  TIP3      2766            0.0000000000
     30617      2958  TIP3      H1             21.1985469923       34.1241923255       30.4136309363  TIP3      2766            0.0000000000
     30618      2958  TIP3      H2             20.1398161976       35.0269449172       30.9936663593  TIP3      2766            0.0000000000
     30619      2959  TIP3      OH2            29.3619955308       34.5011091403       34.9480449272  TIP3      2767            0.0000000000
     30620      2959  TIP3      H1             29.4871918532       35.2615274149       35.5212050391  TIP3      2767            0.0000000000
     30621      2959  TIP3      H2             28.5314862668       34.0876722763       35.2618019026  TIP3      2767            0.0000000000
     30622      2960  TIP3      OH2            35.2264026954       26.4741788079       36.6482487830  TIP3      2768            0.0000000000
     30623      2960  TIP3      H1             35.0893200654       26.8658063845       35.7846156425  TIP3      2768            0.0000000000
     30624      2960  TIP3      H2             35.6497665259       25.6197075724       36.3953317332  TIP3      2768            0.0000000000
     30625      2961  TIP3      OH2            22.7296124691       32.8093644569       34.6334947116  TIP3      2769            0.0000000000
     30626      2961  TIP3      H1             22.9432468501       32.4227126597       35.5094424390  TIP3      2769            0.0000000000
     30627      2961  TIP3      H2             21.8758773635       32.3929575078       34.3855311899  TIP3      2769            0.0000000000
     30628      2962  TIP3      OH2            25.4059515404       21.2812119662       30.5411368868  TIP3      2770            0.0000000000
     30629      2962  TIP3      H1             24.5000374393       21.1471933739       30.1868619603  TIP3      2770            0.0000000000
     30630      2962  TIP3      H2             25.2714381929       22.1066540117       31.0326754541  TIP3      2770            0.0000000000
     30631      2963  TIP3      OH2            30.0410954535       20.9358455890       33.9136809742  TIP3      2771            0.0000000000
     30632      2963  TIP3      H1             30.4386150734       20.5148168481       34.6990467221  TIP3      2771            0.0000000000
     30633      2963  TIP3      H2             29.0704103426       20.8206133606       34.0598029579  TIP3      2771            0.0000000000
     30634      2964  TIP3      OH2            33.2986634987       24.7777454606       34.7853641864  TIP3      2772            0.0000000000
     30635      2964  TIP3      H1             32.7773095006       24.5794719080       35.5964750518  TIP3      2772            0.0000000000
     30636      2964  TIP3      H2             33.1513379073       25.7252935344       34.6103501608  TIP3      2772            0.0000000000
     30637      2965  TIP3      OH2            25.5088583961       26.2546416343       31.8093304036  TIP3      2773            0.0000000000
     30638      2965  TIP3      H1             24.7719409873       26.2427562788       32.4481150071  TIP3      2773            0.0000000000
     30639      2965  TIP3      H2             25.4585265688       27.1622911936       31.4353940742  TIP3      2773            0.0000000000
     30640      2966  TIP3      OH2            25.4274114841       26.4502624146       26.6083171825  TIP3      2774            0.0000000000
     30641      2966  TIP3      H1             24.5189414790       26.0783054525       26.5487280894  TIP3      2774            0.0000000000
     30642      2966  TIP3      H2             25.8793195245       26.0005867802       25.8738217834  TIP3      2774            0.0000000000
     30643      2967  TIP3      OH2            30.9830060216       26.8944328175       25.4796711874  TIP3      2775            0.0000000000
     30644      2967  TIP3      H1             30.5791058363       27.6822538381       25.0775407088  TIP3      2775            0.0000000000
     30645      2967  TIP3      H2             31.6457465655       26.6137583484       24.8111373599  TIP3      2775            0.0000000000
     30646      2968  TIP3      OH2            30.0430390409       27.0788498864       36.8743625677  TIP3      2776            0.0000000000
     30647      2968  TIP3      H1             29.5372967131       26.2898317230       37.1780946047  TIP3      2776            0.0000000000
     30648      2968  TIP3      H2             30.8815480299       26.9668776964       37.3521952116  TIP3      2776            0.0000000000
     30649      2969  TIP3      OH2            32.0305335375       26.3890226726       28.2753695343  TIP3      2777            0.0000000000
     30650      2969  TIP3      H1             31.7338207070       26.9053240252       27.5082986434  TIP3      2777            0.0000000000
     30651      2969  TIP3      H2             32.0998302501       25.5154277341       27.8207900704  TIP3      2777            0.0000000000
     30652      2970  TIP3      OH2            23.1302373307       26.5020436646       33.4777750086  TIP3      2778            0.0000000000
     30653      2970  TIP3      H1             23.2166247247       26.9176165049       34.3537227036  TIP3      2778            0.0000000000
     30654      2970  TIP3      H2             22.6848220606       25.6672640170       33.6902995951  TIP3      2778            0.0000000000
     30655      2971  TIP3      OH2            19.8094793558       23.6128353470       27.4422865966  TIP3      2779            0.0000000000
     30656      2971  TIP3      H1             20.4577166475       23.5383960351       28.1792325080  TIP3      2779            0.0000000000
     30657      2971  TIP3      H2             20.2576012270       23.1891530309       26.6812714972  TIP3      2779            0.0000000000
     30658      2972  TIP3      OH2            31.2193188763       27.9316672690       32.8291411235  TIP3      2780            0.0000000000
     30659      2972  TIP3      H1             31.6150767281       27.2382146113       32.2567315014  TIP3      2780            0.0000000000
     30660      2972  TIP3      H2             30.7543898862       27.4113569867       33.5092027169  TIP3      2780            0.0000000000
     30661      2973  TIP3      OH2            27.9921606708       23.8908506946       27.6931281400  TIP3      2781            0.0000000000
     30662      2973  TIP3      H1             27.0703720934       23.9243507453       27.9997702948  TIP3      2781            0.0000000000
     30663      2973  TIP3      H2             28.5051128259       23.7490657108       28.4974348115  TIP3      2781            0.0000000000
     30664      2974  TIP3      OH2            22.8358112395       25.4755972995       26.4879260929  TIP3      2782            0.0000000000
     30665      2974  TIP3      H1             21.9196436324       25.5821337150       26.1589970624  TIP3      2782            0.0000000000
     30666      2974  TIP3      H2             23.0838166230       24.5883239929       26.1562144934  TIP3      2782            0.0000000000
     30667      2975  TIP3      OH2            26.4800704470       25.5572271576       24.1646503240  TIP3      2783            0.0000000000
     30668      2975  TIP3      H1             27.4373129589       25.5820453545       24.3630638603  TIP3      2783            0.0000000000
     30669      2975  TIP3      H2             26.3595095455       26.1821446247       23.4495152480  TIP3      2783            0.0000000000
     30670      2976  TIP3      OH2            32.3917443427       23.1237978365       30.9243225634  TIP3      2784            0.0000000000
     30671      2976  TIP3      H1             31.7091506210       23.1919519209       31.6147660519  TIP3      2784            0.0000000000
     30672      2976  TIP3      H2             31.8876919699       22.9276144042       30.1155455831  TIP3      2784            0.0000000000
     30673      2977  TIP3      OH2            23.3126032452       31.2727356354       36.8326575231  TIP3      2785            0.0000000000
     30674      2977  TIP3      H1             24.0174371641       31.5189951483       37.4534764258  TIP3      2785            0.0000000000
     30675      2977  TIP3      H2             22.5262377193       31.3498531460       37.4161607287  TIP3      2785            0.0000000000
     30676      2978  TIP3      OH2            29.3033454330       26.6731237683       29.5709597561  TIP3      2786            0.0000000000
     30677      2978  TIP3      H1             29.9125413225       26.1448598154       29.0394558955  TIP3      2786            0.0000000000
     30678      2978  TIP3      H2             29.1624367291       26.1164429576       30.3458123918  TIP3      2786            0.0000000000
     30679      2979  TIP3      OH2            24.3141437832       22.8502368769       25.9968130222  TIP3      2787            0.0000000000
     30680      2979  TIP3      H1             23.9754975336       21.9359196691       26.0208724372  TIP3      2787            0.0000000000
     30681      2979  TIP3      H2             25.1166317428       22.7258131612       25.4753018686  TIP3      2787            0.0000000000
     30682      2980  TIP3      OH2            27.9382636182       24.9965326311       31.9996642808  TIP3      2788            0.0000000000
     30683      2980  TIP3      H1             27.1182427315       25.5226109066       32.0768656085  TIP3      2788            0.0000000000
     30684      2980  TIP3      H2             28.4996521948       25.3573075179       32.7119437855  TIP3      2788            0.0000000000
     30685      2981  TIP3      OH2            28.5229745853       31.1557066788       23.6736301446  TIP3      2789            0.0000000000
     30686      2981  TIP3      H1             27.6944606507       30.8041311698       23.3455533525  TIP3      2789            0.0000000000
     30687      2981  TIP3      H2             28.3168607839       31.3956984536       24.6021971567  TIP3      2789            0.0000000000
     30688      2982  TIP3      OH2            35.5757574832       30.4764987269       32.4919085857  TIP3      2790            0.0000000000
     30689      2982  TIP3      H1             36.2101725875       30.6641023703       31.7724929007  TIP3      2790            0.0000000000
     30690      2982  TIP3      H2             34.7475601195       30.4523872246       31.9726090651  TIP3      2790            0.0000000000
     30691      2983  TIP3      OH2            30.0212352814       31.5203095422       34.9146380063  TIP3      2791            0.0000000000
     30692      2983  TIP3      H1             29.6727731798       31.0635602659       35.6934147966  TIP3      2791            0.0000000000
     30693      2983  TIP3      H2             29.7978907503       32.4442812911       35.0513002214  TIP3      2791            0.0000000000
     30694      2984  TIP3      OH2            33.0804707678       26.1160830377       23.6646365272  TIP3      2792            0.0000000000
     30695      2984  TIP3      H1             33.9627503887       25.7289283013       23.7722581927  TIP3      2792            0.0000000000
     30696      2984  TIP3      H2             33.1688436712       26.6765200951       22.9043122545  TIP3      2792            0.0000000000
     30697      2985  TIP3      OH2            23.6312236417       30.6150272673       29.4792363496  TIP3      2793            0.0000000000
     30698      2985  TIP3      H1             24.3276209113       30.5613788816       28.7996302547  TIP3      2793            0.0000000000
     30699      2985  TIP3      H2             23.7034225294       29.7656229257       29.9454983508  TIP3      2793            0.0000000000
     30700      2986  TIP3      OH2            30.6066194635       32.6881519012       22.7656858722  TIP3      2794            0.0000000000
     30701      2986  TIP3      H1             30.2729704102       33.5543029458       23.0732078466  TIP3      2794            0.0000000000
     30702      2986  TIP3      H2             29.8473531542       32.1094222299       22.9303415692  TIP3      2794            0.0000000000
     30703      2987  TIP3      OH2            20.6225706813       29.0306710503       34.7473472596  TIP3      2795            0.0000000000
     30704      2987  TIP3      H1             20.7979051186       28.5842357058       35.5987144958  TIP3      2795            0.0000000000
     30705      2987  TIP3      H2             20.0163708330       28.4050941318       34.3101352584  TIP3      2795            0.0000000000
     30706      2988  TIP3      OH2            27.6369883883       28.5700616092       36.9274785147  TIP3      2796            0.0000000000
     30707      2988  TIP3      H1             27.3207091297       28.2654770703       36.0647428229  TIP3      2796            0.0000000000
     30708      2988  TIP3      H2             28.5654907928       28.2607124093       36.9187798984  TIP3      2796            0.0000000000
     30709      2989  TIP3      OH2            32.3101061127       34.0267764539       34.8061526016  TIP3      2797            0.0000000000
     30710      2989  TIP3      H1             31.3654825744       34.0721494191       34.6393875328  TIP3      2797            0.0000000000
     30711      2989  TIP3      H2             32.3000006595       34.1674249316       35.7795635778  TIP3      2797            0.0000000000
     30712      2990  TIP3      OH2            36.1209587427       34.8824795275       23.6369921360  TIP3      2798            0.0000000000
     30713      2990  TIP3      H1             35.8701154789       34.0332540005       24.0039857122  TIP3      2798            0.0000000000
     30714      2990  TIP3      H2             36.4969906868       34.6202322549       22.7744161935  TIP3      2798            0.0000000000
     30715      2991  TIP3      OH2            33.4322694008       29.7111679458       30.7890788078  TIP3      2799            0.0000000000
     30716      2991  TIP3      H1             32.4925129387       29.4998708363       30.6255814435  TIP3      2799            0.0000000000
     30717      2991  TIP3      H2             33.9003590969       28.9792430531       30.3329081258  TIP3      2799            0.0000000000
     30718      2992  TIP3      OH2            26.0373492762       34.0205054369       26.7882410637  TIP3      2800            0.0000000000
     30719      2992  TIP3      H1             26.4862735555       34.8576376672       26.6333855018  TIP3      2800            0.0000000000
     30720      2992  TIP3      H2             25.1388644828       34.2862067265       26.5597992206  TIP3      2800            0.0000000000
     30721      2993  TIP3      OH2            27.4281802074       31.7230345537       26.3476777856  TIP3      2801            0.0000000000
     30722      2993  TIP3      H1             27.1468233369       32.6551266016       26.4726104981  TIP3      2801            0.0000000000
     30723      2993  TIP3      H2             26.7265230576       31.2726043260       26.8577529147  TIP3      2801            0.0000000000
     30724      2994  TIP3      OH2            28.0387823061       35.6774760028       32.5729305645  TIP3      2802            0.0000000000
     30725      2994  TIP3      H1             28.2900841331       36.6078018361       32.4745627486  TIP3      2802            0.0000000000
     30726      2994  TIP3      H2             28.4937828978       35.4775512092       33.4076432145  TIP3      2802            0.0000000000
     30727      2995  TIP3      OH2            25.7652257130      -36.8227152864       25.6716992183  TIP3      2803            0.0000000000
     30728      2995  TIP3      H1             24.9102992229      -36.5964311631       26.0117166589  TIP3      2803            0.0000000000
     30729      2995  TIP3      H2             26.3164067192      -36.1066694102       26.0632651119  TIP3      2803            0.0000000000
     30730      2996  TIP3      OH2            31.4306599269       31.9144260350       32.4315300676  TIP3      2804            0.0000000000
     30731      2996  TIP3      H1             31.0668864038       31.6960069596       33.3157280214  TIP3      2804            0.0000000000
     30732      2996  TIP3      H2             32.0374002411       31.1790224052       32.2442182058  TIP3      2804            0.0000000000
     30733      2997  TIP3      OH2            34.1866000274       36.4863638658       34.9214331373  TIP3      2805            0.0000000000
     30734      2997  TIP3      H1             33.5085082733       35.9868521938       34.4444096221  TIP3      2805            0.0000000000
     30735      2997  TIP3      H2             34.3804949817       37.2191677793       34.3165113952  TIP3      2805            0.0000000000
     30736      2998  TIP3      OH2            22.2931828113       23.7701854654       34.3406960050  TIP3      2806            0.0000000000
     30737      2998  TIP3      H1             21.3829186501       24.1127778601       34.2452046995  TIP3      2806            0.0000000000
     30738      2998  TIP3      H2             22.1526213929       22.8795401890       34.6943274598  TIP3      2806            0.0000000000
     30739      2999  TIP3      OH2            21.8988305341       35.4918545864       32.7247478791  TIP3      2807            0.0000000000
     30740      2999  TIP3      H1             22.2065205538       34.5834918636       32.7522553823  TIP3      2807            0.0000000000
     30741      2999  TIP3      H2             22.0993163569       35.8492588014       33.5974354324  TIP3      2807            0.0000000000
     30742      3000  TIP3      OH2            27.2815237178       33.2142227034       19.7945612262  TIP3      2808            0.0000000000
     30743      3000  TIP3      H1             28.1380950753       33.0092140589       19.4410658619  TIP3      2808            0.0000000000
     30744      3000  TIP3      H2             27.3561265752       33.3450246764       20.7744799627  TIP3      2808            0.0000000000
     30745      3001  TIP3      OH2            27.0212162006       33.5635983779       22.4721514657  TIP3      2809            0.0000000000
     30746      3001  TIP3      H1             26.8397281091       33.0858529101       23.2800193445  TIP3      2809            0.0000000000
     30747      3001  TIP3      H2             26.5404093740       34.4085154879       22.6531168519  TIP3      2809            0.0000000000
     30748      3002  TIP3      OH2            30.9936556856       23.5258807525       33.2723574523  TIP3      2810            0.0000000000
     30749      3002  TIP3      H1             31.7425317360       23.5938535419       33.8774213186  TIP3      2810            0.0000000000
     30750      3002  TIP3      H2             30.6288796685       22.6429523907       33.4756823241  TIP3      2810            0.0000000000
     30751      3003  TIP3      OH2            29.5152600429       35.1854841462       22.9877825053  TIP3      2811            0.0000000000
     30752      3003  TIP3      H1             28.7254537861       35.7023858012       23.2955791330  TIP3      2811            0.0000000000
     30753      3003  TIP3      H2             30.0702961032       35.8493472857       22.5734242016  TIP3      2811            0.0000000000
     30754      3004  TIP3      OH2            29.5453457789       25.8657091080       34.3560790839  TIP3      2812            0.0000000000
     30755      3004  TIP3      H1             29.6435385906       26.4388031554       35.1439594754  TIP3      2812            0.0000000000
     30756      3004  TIP3      H2             30.2155180663       25.1727870408       34.4412334408  TIP3      2812            0.0000000000
     30757      3005  TIP3      OH2            29.8751257661       21.9180202696       26.1595526864  TIP3      2813            0.0000000000
     30758      3005  TIP3      H1             29.4896898024       22.6236968583       26.6906496005  TIP3      2813            0.0000000000
     30759      3005  TIP3      H2             30.4748807851       22.4686352354       25.6122014077  TIP3      2813            0.0000000000
     30760      3006  TIP3      OH2            27.3385173410      -37.0133864514       23.5280771358  TIP3      2814            0.0000000000
     30761      3006  TIP3      H1             27.0926606426      -36.3750630074       22.8115090990  TIP3      2814            0.0000000000
     30762      3006  TIP3      H2             26.5681115639      -36.8391695320       24.1113685548  TIP3      2814            0.0000000000
     30763      3007  TIP3      OH2            35.6953858395       23.6844830106       35.1009069738  TIP3      2815            0.0000000000
     30764      3007  TIP3      H1             34.7881918170       24.0709570860       35.0574946508  TIP3      2815            0.0000000000
     30765      3007  TIP3      H2             36.0179035352       23.7929355770       34.2034926145  TIP3      2815            0.0000000000
     30766      3008  TIP3      OH2            34.3401729933       27.5415458498       29.3055130280  TIP3      2816            0.0000000000
     30767      3008  TIP3      H1             33.5378318982       27.1258794314       28.9063394381  TIP3      2816            0.0000000000
     30768      3008  TIP3      H2             34.7526249841       26.7770652150       29.7367682265  TIP3      2816            0.0000000000
     30769      3009  TIP3      OH2            22.0030705053       26.1991051224       21.1512536228  TIP3      2817            0.0000000000
     30770      3009  TIP3      H1             22.0513050122       27.1381167879       20.9814287786  TIP3      2817            0.0000000000
     30771      3009  TIP3      H2             21.3426681280       25.8157425590       20.5355800373  TIP3      2817            0.0000000000
     30772      3010  TIP3      OH2            22.8831412356       20.9146271267       29.6833555304  TIP3      2818            0.0000000000
     30773      3010  TIP3      H1             22.6885756028       20.9247596485       28.7168391524  TIP3      2818            0.0000000000
     30774      3010  TIP3      H2             22.4758671558       20.0612724155       29.9406949251  TIP3      2818            0.0000000000
     30775      3011  TIP3      OH2            21.9591619534       34.8222518096       25.8994879749  TIP3      2819            0.0000000000
     30776      3011  TIP3      H1             21.0587675497       35.2009305835       25.8257721747  TIP3      2819            0.0000000000
     30777      3011  TIP3      H2             22.3346235487       35.2926638083       25.1409414289  TIP3      2819            0.0000000000
     30778      3012  TIP3      OH2            25.9194380609       36.1193202154       38.9015440593  TIP3      2820            0.0000000000
     30779      3012  TIP3      H1             26.7946446410       35.7506830792       39.0543587361  TIP3      2820            0.0000000000
     30780      3012  TIP3      H2             25.8037555345       35.9593016194       37.9409057272  TIP3      2820            0.0000000000
     30781      3013  TIP3      OH2            30.4619089209       35.8822148135       20.2701327046  TIP3      2821            0.0000000000
     30782      3013  TIP3      H1             29.8010193824       35.3046894307       20.6516478750  TIP3      2821            0.0000000000
     30783      3013  TIP3      H2             30.9855305845       35.2503268342       19.7636747159  TIP3      2821            0.0000000000
     30784      3014  TIP3      OH2            32.2544613425       34.6088317540       37.4004981017  TIP3      2822            0.0000000000
     30785      3014  TIP3      H1             31.8975076181       33.7967491488       37.7979595885  TIP3      2822            0.0000000000
     30786      3014  TIP3      H2             32.9659461439       34.8422299464       38.0135678578  TIP3      2822            0.0000000000
     30787      3015  TIP3      OH2            33.2732715599       35.2173932249       20.4294555509  TIP3      2823            0.0000000000
     30788      3015  TIP3      H1             34.0883666278       34.7727751173       20.7501381156  TIP3      2823            0.0000000000
     30789      3015  TIP3      H2             33.9046389041       35.8384156718       19.9777293239  TIP3      2823            0.0000000000
     30790      3016  TIP3      OH2            20.9376537178       31.2387936991       38.1047560926  TIP3      2824            0.0000000000
     30791      3016  TIP3      H1             21.1205868515       30.3400975919       37.7736052055  TIP3      2824            0.0000000000
     30792      3016  TIP3      H2             20.2286709765       31.5429702112       37.5097488108  TIP3      2824            0.0000000000
     30793      3017  TIP3      OH2            27.7046134549       31.2247651038       37.4611071647  TIP3      2825            0.0000000000
     30794      3017  TIP3      H1             27.3325168566       31.5410461347       36.6171321973  TIP3      2825            0.0000000000
     30795      3017  TIP3      H2             27.7400124725       30.2441145792       37.3690326667  TIP3      2825            0.0000000000
     30796      3018  TIP3      OH2            33.3449213504       31.0715727936       34.8475267413  TIP3      2826            0.0000000000
     30797      3018  TIP3      H1             34.1343649630       31.6646274828       34.7991013036  TIP3      2826            0.0000000000
     30798      3018  TIP3      H2             32.6706187392       31.7535440538       34.9275851322  TIP3      2826            0.0000000000
     30799      3019  TIP3      OH2            21.8759946847       28.5006984320       37.4872254949  TIP3      2827            0.0000000000
     30800      3019  TIP3      H1             22.2974519860       27.6437470258       37.3970908584  TIP3      2827            0.0000000000
     30801      3019  TIP3      H2             21.6518675137       28.5118821552       38.4389682704  TIP3      2827            0.0000000000
     30802      3020  TIP3      OH2            25.7711522036       27.4230632405       34.8466695016  TIP3      2828            0.0000000000
     30803      3020  TIP3      H1             25.1821428663       28.1525626878       35.0951464430  TIP3      2828            0.0000000000
     30804      3020  TIP3      H2             26.1760456761       27.7897642282       34.0404159018  TIP3      2828            0.0000000000
     30805      3021  TIP3      OH2            30.8257534352       30.0110066541       38.3013113774  TIP3      2829            0.0000000000
     30806      3021  TIP3      H1             31.7601160998       29.9620860285       38.0412820019  TIP3      2829            0.0000000000
     30807      3021  TIP3      H2             30.6923397691       29.1912088527       38.7948234044  TIP3      2829            0.0000000000
     30808      3022  TIP3      OH2            26.1684021111       24.8093715488       35.8764527996  TIP3      2830            0.0000000000
     30809      3022  TIP3      H1             26.3285938690       24.1088337693       35.2156396610  TIP3      2830            0.0000000000
     30810      3022  TIP3      H2             26.1553134718       25.6278005935       35.3390673138  TIP3      2830            0.0000000000
     30811      3023  TIP3      OH2            26.5895592483       23.1871454228       33.4550439384  TIP3      2831            0.0000000000
     30812      3023  TIP3      H1             27.0973766624       23.6540387928       32.7482852637  TIP3      2831            0.0000000000
     30813      3023  TIP3      H2             25.6949877383       23.1117758986       33.0510656153  TIP3      2831            0.0000000000
     30814      3024  TIP3      OH2            28.1227516510       28.6777927072       33.6946650721  TIP3      2832            0.0000000000
     30815      3024  TIP3      H1             28.8805548226       28.5138091599       33.1235941121  TIP3      2832            0.0000000000
     30816      3024  TIP3      H2             27.7694015165       29.5180269786       33.3591622559  TIP3      2832            0.0000000000
     30817      3025  TIP3      OH2            32.5303050260       26.4281827298       38.6808986684  TIP3      2833            0.0000000000
     30818      3025  TIP3      H1             32.7540851383       25.4960909943       38.5451129035  TIP3      2833            0.0000000000
     30819      3025  TIP3      H2             33.4053872423       26.8419075152       38.6451169828  TIP3      2833            0.0000000000
     30820      3026  TIP3      OH2            33.8088200637       29.2426004358       36.8312375763  TIP3      2834            0.0000000000
     30821      3026  TIP3      H1             33.6023704589       29.9653000760       36.2102410411  TIP3      2834            0.0000000000
     30822      3026  TIP3      H2             34.7725141890       29.1889803540       36.6526796436  TIP3      2834            0.0000000000
     30823      3027  TIP3      OH2            24.6810895418       26.0208010667       37.8656740648  TIP3      2835            0.0000000000
     30824      3027  TIP3      H1             23.8779353645       25.5279903552       37.6113356950  TIP3      2835            0.0000000000
     30825      3027  TIP3      H2             25.3062095209       25.7238714676       37.1748162085  TIP3      2835            0.0000000000
     30826      3028  TIP3      OH2            27.3732500479       20.6252953962       33.8426448586  TIP3      2836            0.0000000000
     30827      3028  TIP3      H1             27.1900380018       21.5877545014       33.7470365177  TIP3      2836            0.0000000000
     30828      3028  TIP3      H2             26.6273265433       20.2564293014       33.3384761875  TIP3      2836            0.0000000000
     30829      3029  TIP3      OH2            28.6480965443       24.9443230783       37.4925039735  TIP3      2837            0.0000000000
     30830      3029  TIP3      H1             28.3163047622       24.7310539075       38.3826927915  TIP3      2837            0.0000000000
     30831      3029  TIP3      H2             27.8785166449       24.7626182157       36.9240487927  TIP3      2837            0.0000000000
     30832      3030  TIP3      OH2            31.3477494109       24.1079417734       36.5598658829  TIP3      2838            0.0000000000
     30833      3030  TIP3      H1             30.3861373957       24.1460790920       36.6968813888  TIP3      2838            0.0000000000
     30834      3030  TIP3      H2             31.6490005310       23.4695575307       37.2322597782  TIP3      2838            0.0000000000
     30835      3031  TIP3      OH2            32.9964572947       22.7154157600       38.4850237984  TIP3      2839            0.0000000000
     30836      3031  TIP3      H1             32.8798448553       21.7451707668       38.5022727839  TIP3      2839            0.0000000000
     30837      3031  TIP3      H2             32.7063254624       23.0279706225       39.3756064562  TIP3      2839            0.0000000000
     30838      3032  TIP3      OH2            22.7030847032       24.1376869776       37.4844080733  TIP3      2840            0.0000000000
     30839      3032  TIP3      H1             23.0431407808       23.4377202313       36.9010564097  TIP3      2840            0.0000000000
     30840      3032  TIP3      H2             22.6936787180       23.8876000430       38.4270203385  TIP3      2840            0.0000000000
     30841      3033  TIP3      OH2            27.5631511767       20.0192532531       36.5406021569  TIP3      2841            0.0000000000
     30842      3033  TIP3      H1             28.2510564944       19.3222878081       36.5380683109  TIP3      2841            0.0000000000
     30843      3033  TIP3      H2             27.4932652194       20.1634928768       35.5776559571  TIP3      2841            0.0000000000
     30844      3034  TIP3      OH2            27.9113282763       21.5925562611       38.6554758787  TIP3      2842            0.0000000000
     30845      3034  TIP3      H1             27.7917457908       21.1170835027       37.8008621569  TIP3      2842            0.0000000000
     30846      3034  TIP3      H2             27.3930825028       22.4117676851       38.5308692547  TIP3      2842            0.0000000000
     30847      3035  TIP3      OH2            21.0576779878       33.1288111281       21.2510166758  TIP3      2843            0.0000000000
     30848      3035  TIP3      H1             22.0068187026       33.2062213117       21.4263318653  TIP3      2843            0.0000000000
     30849      3035  TIP3      H2             21.1097356815       32.4769547560       20.5388504167  TIP3      2843            0.0000000000
     30850      3036  TIP3      OH2            20.4834429843       36.6166676104       28.1450691550  TIP3      2844            0.0000000000
     30851      3036  TIP3      H1             20.1652743413       35.7314939544       28.3718339924  TIP3      2844            0.0000000000
     30852      3036  TIP3      H2             20.7555540810       36.9684380020       29.0023489702  TIP3      2844            0.0000000000
     30853      3037  TIP3      OH2            35.9290708480       32.9144745198       38.5423653556  TIP3      2845            0.0000000000
     30854      3037  TIP3      H1             35.1854860930       32.7069776313       39.1271642968  TIP3      2845            0.0000000000
     30855      3037  TIP3      H2             36.4854755644       33.4632031119       39.1229124224  TIP3      2845            0.0000000000
     30856      3038  TIP3      OH2            36.0774304021       34.7239520627       33.3496164322  TIP3      2846            0.0000000000
     30857      3038  TIP3      H1             35.4073299335       35.1264116380       33.9149295968  TIP3      2846            0.0000000000
     30858      3038  TIP3      H2             35.5597874544       34.3426105793       32.6043105221  TIP3      2846            0.0000000000
     30859      3039  TIP3      OH2            35.2241385958       27.6885519612       26.6026507430  TIP3      2847            0.0000000000
     30860      3039  TIP3      H1             35.4512663211       26.7496679121       26.6263321689  TIP3      2847            0.0000000000
     30861      3039  TIP3      H2             35.2562171338       27.8959454053       27.5488192386  TIP3      2847            0.0000000000
     30862      3040  TIP3      OH2            20.6367956045       29.7201172902       30.6346698473  TIP3      2848            0.0000000000
     30863      3040  TIP3      H1             20.8137689251       29.6314008214       29.6730067993  TIP3      2848            0.0000000000
     30864      3040  TIP3      H2             21.5285568556       29.5376983126       30.9904788216  TIP3      2848            0.0000000000
     30865      3041  TIP3      OH2           -37.0456984796       29.6305048761       36.5266929494  TIP3      2849            0.0000000000
     30866      3041  TIP3      H1            -36.4509461173       28.8606628552       36.5580117736  TIP3      2849            0.0000000000
     30867      3041  TIP3      H2            -36.4783963745       30.3543257607       36.2267094942  TIP3      2849            0.0000000000
     30868      3042  TIP3      OH2            35.5300156879       25.2552888710       30.4212344250  TIP3      2850            0.0000000000
     30869      3042  TIP3      H1             36.4787995580       25.3577340385       30.2470749049  TIP3      2850            0.0000000000
     30870      3042  TIP3      H2             35.5456822245       25.7507484838       31.2603515727  TIP3      2850            0.0000000000
     30871      3043  TIP3      OH2            35.9835795202       26.4943707642       33.3909025474  TIP3      2851            0.0000000000
     30872      3043  TIP3      H1             35.0820762189       26.7904344555       33.5992391483  TIP3      2851            0.0000000000
     30873      3043  TIP3      H2             36.3891325381       27.2642562431       32.9632092214  TIP3      2851            0.0000000000
     30874      3044  TIP3      OH2            20.2415611258       25.0025090012       36.7789403973  TIP3      2852            0.0000000000
     30875      3044  TIP3      H1             21.1840789430       24.8366110398       36.9701745585  TIP3      2852            0.0000000000
     30876      3044  TIP3      H2             19.7752796586       24.1926568611       37.0732997313  TIP3      2852            0.0000000000
     30877      3045  TIP3      OH2            35.1419014865       22.2420730452       25.6729765078  TIP3      2853            0.0000000000
     30878      3045  TIP3      H1             36.0626339370       22.0469837182       25.8999399392  TIP3      2853            0.0000000000
     30879      3045  TIP3      H2             35.1022850764       21.8157572455       24.7823797927  TIP3      2853            0.0000000000
     30880      3046  TIP3      OH2            21.4513792721       23.3098995727       29.6432709592  TIP3      2854            0.0000000000
     30881      3046  TIP3      H1             21.9121596036       22.4818361348       29.8944481271  TIP3      2854            0.0000000000
     30882      3046  TIP3      H2             22.0089827354       23.9973890234       30.0310297135  TIP3      2854            0.0000000000
     30883      3047  TIP3      OH2            19.7365849767       26.3143186512       30.6755056772  TIP3      2855            0.0000000000
     30884      3047  TIP3      H1             20.3008691940       26.0586918651       29.9188047269  TIP3      2855            0.0000000000
     30885      3047  TIP3      H2             20.2037592169       27.1198994316       30.9414209070  TIP3      2855            0.0000000000
     30886      3048  TIP3      OH2            20.1402911756       22.6165300601       24.8675947592  TIP3      2856            0.0000000000
     30887      3048  TIP3      H1             19.1904113147       22.6457524187       24.6747504119  TIP3      2856            0.0000000000
     30888      3048  TIP3      H2             20.5524728674       22.8872187691       24.0351200214  TIP3      2856            0.0000000000
     30889      3049  TIP3      OH2            20.0619473529       21.2354854669       33.0714258839  TIP3      2857            0.0000000000
     30890      3049  TIP3      H1             19.3642362899       21.0198832847       33.7126850781  TIP3      2857            0.0000000000
     30891      3049  TIP3      H2             19.6036004633       21.8934375931       32.5071420148  TIP3      2857            0.0000000000
     30892      3050  TIP3      OH2            22.2758433751       34.4797179739       37.1999830193  TIP3      2858            0.0000000000
     30893      3050  TIP3      H1             21.4143878231       34.6514906900       36.7772430491  TIP3      2858            0.0000000000
     30894      3050  TIP3      H2             22.0275084331       34.3299664475       38.1242581578  TIP3      2858            0.0000000000
     30895      3051  TIP3      OH2            25.2318586671       35.4229721975       33.5523808457  TIP3      2859            0.0000000000
     30896      3051  TIP3      H1             24.7756641653       36.1848471587       33.1708030091  TIP3      2859            0.0000000000
     30897      3051  TIP3      H2             26.1014426980       35.4477047636       33.1226206595  TIP3      2859            0.0000000000
     30898      3052  TIP3      OH2            24.0938508797       35.8956136221       28.8827576992  TIP3      2860            0.0000000000
     30899      3052  TIP3      H1             23.9499719836       35.0242997182       29.2829419155  TIP3      2860            0.0000000000
     30900      3052  TIP3      H2             24.8634249256       36.1435654858       29.4584511702  TIP3      2860            0.0000000000
     30901      3053  TIP3      OH2            26.2824389767       35.9352947052       30.1609264454  TIP3      2861            0.0000000000
     30902      3053  TIP3      H1             26.9097052603       35.3374042675       29.7314571781  TIP3      2861            0.0000000000
     30903      3053  TIP3      H2             26.7412639434       36.3359966290       30.9078373155  TIP3      2861            0.0000000000
     30904      3054  TIP3      OH2            30.2203479598       22.1520812766       29.0997987551  TIP3      2862            0.0000000000
     30905      3054  TIP3      H1             29.5273435248       21.5225221999       29.3560148245  TIP3      2862            0.0000000000
     30906      3054  TIP3      H2             30.7529667421       21.6379739324       28.4817255076  TIP3      2862            0.0000000000
     30907      3055  TIP3      OH2            35.3566567415       20.1924358032       29.1922232975  TIP3      2863            0.0000000000
     30908      3055  TIP3      H1             35.8991568688       20.8338104911       28.7186853603  TIP3      2863            0.0000000000
     30909      3055  TIP3      H2             34.4656096928       20.5343481035       28.9555103541  TIP3      2863            0.0000000000
     30910      3056  TIP3      OH2            22.5487430546       20.7912565179       26.9693506812  TIP3      2864            0.0000000000
     30911      3056  TIP3      H1             21.7701779467       20.5988428262       26.4116061031  TIP3      2864            0.0000000000
     30912      3056  TIP3      H2             23.0365733673       19.9536036849       26.8697477868  TIP3      2864            0.0000000000
     30913      3057  TIP3      OH2            27.0338635098       20.7236589090       26.7342723386  TIP3      2865            0.0000000000
     30914      3057  TIP3      H1             27.9416976799       21.0706815627       26.6327010383  TIP3      2865            0.0000000000
     30915      3057  TIP3      H2             27.0318893549       20.4807206015       27.6604936113  TIP3      2865            0.0000000000
     30916      3058  TIP3      OH2            32.7898028555       20.6888224858       28.3378973115  TIP3      2866            0.0000000000
     30917      3058  TIP3      H1             32.6955908508       20.8516253015       27.3848008742  TIP3      2866            0.0000000000
     30918      3058  TIP3      H2             32.3718136581       19.8045492729       28.4707974656  TIP3      2866            0.0000000000
     30919      3059  TIP3      OH2            34.0245318116       20.6626840230       23.9814357666  TIP3      2867            0.0000000000
     30920      3059  TIP3      H1             33.3340587569       21.3247600306       23.8159370516  TIP3      2867            0.0000000000
     30921      3059  TIP3      H2             33.5051532929       19.8527406963       24.1482940901  TIP3      2867            0.0000000000
     30922      3060  TIP3      OH2            21.1615132020      -37.1280585080       23.9591901950  TIP3      2868            0.0000000000
     30923      3060  TIP3      H1             20.6566939673      -37.1364859810       23.1273354094  TIP3      2868            0.0000000000
     30924      3060  TIP3      H2             21.3691149285      -36.2068773352       24.0761346324  TIP3      2868            0.0000000000
     30925      3061  TIP3      OH2            22.4749144730       21.2365927395       36.2742840287  TIP3      2869            0.0000000000
     30926      3061  TIP3      H1             22.0632501554       20.4166434295       36.6399532953  TIP3      2869            0.0000000000
     30927      3061  TIP3      H2             23.4233149668       21.1366865606       36.5415926937  TIP3      2869            0.0000000000
     30928      3062  TIP3      OH2            24.4283658092       20.7171782524       38.0548756423  TIP3      2870            0.0000000000
     30929      3062  TIP3      H1             25.3278971159       20.3994682724       37.7960324791  TIP3      2870            0.0000000000
     30930      3062  TIP3      H2             24.1370801801       19.8609888051       38.4576726331  TIP3      2870            0.0000000000
     30931      3063  TIP3      OH2            32.8722259798       20.0197750996       38.1810484589  TIP3      2871            0.0000000000
     30932      3063  TIP3      H1             32.9491353253       19.5203180286       39.0165610970  TIP3      2871            0.0000000000
     30933      3063  TIP3      H2             33.7836591622       19.9595898767       37.8149277588  TIP3      2871            0.0000000000
     30934      3064  TIP3      OH2            36.0232936866       36.0258716350       36.9834216279  TIP3      2872            0.0000000000
     30935      3064  TIP3      H1             35.3583580677       35.8407617359       36.2921827789  TIP3      2872            0.0000000000
     30936      3064  TIP3      H2             36.0326863931       36.9908465125       36.9711812409  TIP3      2872            0.0000000000
     30937      3065  TIP3      OH2           -26.2270926467      -28.9139887709       40.1465158992  TIP3      2873            0.0000000000
     30938      3065  TIP3      H1            -25.5034968008      -28.8224479239       40.8051367912  TIP3      2873            0.0000000000
     30939      3065  TIP3      H2            -25.8299215500      -29.5642996661       39.5613238516  TIP3      2873            0.0000000000
     30940      3066  TIP3      OH2           -23.9849690278      -28.1531971362       41.6209215675  TIP3      2874            0.0000000000
     30941      3066  TIP3      H1            -23.5803754557      -27.8707539064       42.4752138351  TIP3      2874            0.0000000000
     30942      3066  TIP3      H2            -23.6032875487      -27.5321491821       40.9685934307  TIP3      2874            0.0000000000
     30943      3067  TIP3      OH2           -20.2903847302      -36.2129369194       41.5954493771  TIP3      2875            0.0000000000
     30944      3067  TIP3      H1            -21.1727445280      -36.0397410755       41.9156347185  TIP3      2875            0.0000000000
     30945      3067  TIP3      H2            -19.9846705580      -35.3637141733       41.2513502414  TIP3      2875            0.0000000000
     30946      3068  TIP3      OH2           -19.0602409174      -21.8825354619       39.8996076673  TIP3      2876            0.0000000000
     30947      3068  TIP3      H1            -18.9133450572      -20.9611640127       40.1729296762  TIP3      2876            0.0000000000
     30948      3068  TIP3      H2            -18.1481864180      -22.2039843580       40.0124958985  TIP3      2876            0.0000000000
     30949      3069  TIP3      OH2           -23.6335978853      -19.1299857240       40.6955685162  TIP3      2877            0.0000000000
     30950      3069  TIP3      H1            -23.2210128825      -19.8733920379       40.2018216158  TIP3      2877            0.0000000000
     30951      3069  TIP3      H2            -23.5775558086      -19.4472107929       41.6079069299  TIP3      2877            0.0000000000
     30952      3070  TIP3      OH2           -22.4638913548      -26.9738190740       39.5481577503  TIP3      2878            0.0000000000
     30953      3070  TIP3      H1            -22.5016998376      -27.1518302885       38.5775032889  TIP3      2878            0.0000000000
     30954      3070  TIP3      H2            -21.5886442948      -26.5365380839       39.5790814781  TIP3      2878            0.0000000000
     30955      3071  TIP3      OH2           -26.7460600812      -33.2443163556       40.2222414617  TIP3      2879            0.0000000000
     30956      3071  TIP3      H1            -27.3186427165      -33.0036879654       40.9538820669  TIP3      2879            0.0000000000
     30957      3071  TIP3      H2            -27.2510229596      -33.9355049878       39.7447395059  TIP3      2879            0.0000000000
     30958      3072  TIP3      OH2           -30.0515685968      -32.6460111025       39.2093122535  TIP3      2880            0.0000000000
     30959      3072  TIP3      H1            -30.5443758391      -33.0909249946       39.9328440426  TIP3      2880            0.0000000000
     30960      3072  TIP3      H2            -30.7649836615      -32.2649638194       38.6785253187  TIP3      2880            0.0000000000
     30961      3073  TIP3      OH2           -35.4742618838      -32.1953724184       41.5771801114  TIP3      2881            0.0000000000
     30962      3073  TIP3      H1            -34.9466351222      -31.5576489477       41.0622087021  TIP3      2881            0.0000000000
     30963      3073  TIP3      H2            -36.2323955939      -31.7219823176       41.9139582444  TIP3      2881            0.0000000000
     30964      3074  TIP3      OH2           -31.3684797728      -29.9579608955       40.6301200571  TIP3      2882            0.0000000000
     30965      3074  TIP3      H1            -31.9304330996      -30.2596396642       39.8875697185  TIP3      2882            0.0000000000
     30966      3074  TIP3      H2            -30.5786945640      -29.6746345453       40.1422167629  TIP3      2882            0.0000000000
     30967      3075  TIP3      OH2           -24.2670631407      -32.5614062027       40.7996315491  TIP3      2883            0.0000000000
     30968      3075  TIP3      H1            -25.1636776796      -32.3041686329       40.5230390088  TIP3      2883            0.0000000000
     30969      3075  TIP3      H2            -23.8603249371      -31.7079704858       41.0957349798  TIP3      2883            0.0000000000
     30970      3076  TIP3      OH2           -23.4375941827      -30.6251345409       42.3176959156  TIP3      2884            0.0000000000
     30971      3076  TIP3      H1            -22.5361364942      -30.7032936067       42.6817320707  TIP3      2884            0.0000000000
     30972      3076  TIP3      H2            -23.4049960557      -29.7880283073       41.8186591462  TIP3      2884            0.0000000000
     30973      3077  TIP3      OH2           -25.9374848106      -23.8942756185       41.5554760046  TIP3      2885            0.0000000000
     30974      3077  TIP3      H1            -26.2958799470      -23.0584922562       41.8834751967  TIP3      2885            0.0000000000
     30975      3077  TIP3      H2            -26.6370839002      -24.5165237081       41.7855226445  TIP3      2885            0.0000000000
     30976      3078  TIP3      OH2           -18.7773870003      -30.9457896381       42.1202122564  TIP3      2886            0.0000000000
     30977      3078  TIP3      H1            -19.1976152845      -30.9599514018       41.2366370132  TIP3      2886            0.0000000000
     30978      3078  TIP3      H2            -18.4901320564      -29.9901616644       42.0147553189  TIP3      2886            0.0000000000
     30979      3079  TIP3      OH2           -34.8742189275      -27.6504593589       40.2783458729  TIP3      2887            0.0000000000
     30980      3079  TIP3      H1            -34.2274695886      -27.0422539667       40.7256045659  TIP3      2887            0.0000000000
     30981      3079  TIP3      H2            -35.7004756911      -27.2844106459       40.5892027458  TIP3      2887            0.0000000000
     30982      3080  TIP3      OH2           -22.8277417939      -23.6047085583       40.3460866803  TIP3      2888            0.0000000000
     30983      3080  TIP3      H1            -22.5227648408      -23.9493695026       41.1908119918  TIP3      2888            0.0000000000
     30984      3080  TIP3      H2            -23.7844050307      -23.7604035471       40.4406660124  TIP3      2888            0.0000000000
     30985      3081  TIP3      OH2           -18.4224164225      -19.2057012978       40.5670590768  TIP3      2889            0.0000000000
     30986      3081  TIP3      H1            -17.6469502944      -18.6171670927       40.5217489844  TIP3      2889            0.0000000000
     30987      3081  TIP3      H2            -19.0911573221      -18.5860516058       40.9013639837  TIP3      2889            0.0000000000
     30988      3082  TIP3      OH2           -28.7139509446      -22.5155742591       38.8225078473  TIP3      2890            0.0000000000
     30989      3082  TIP3      H1            -28.6153098116      -23.2955731534       38.2588323176  TIP3      2890            0.0000000000
     30990      3082  TIP3      H2            -29.1160844263      -22.9162661349       39.6283931260  TIP3      2890            0.0000000000
     30991      3083  TIP3      OH2           -29.9217941440      -23.0285493801       41.2668159607  TIP3      2891            0.0000000000
     30992      3083  TIP3      H1            -29.7099125293      -23.4686612445       42.0998711738  TIP3      2891            0.0000000000
     30993      3083  TIP3      H2            -29.8214506923      -22.1006443397       41.5616369528  TIP3      2891            0.0000000000
     30994      3084  TIP3      OH2           -33.5778990578      -25.7609580025       41.6451422650  TIP3      2892            0.0000000000
     30995      3084  TIP3      H1            -34.0441159753      -25.4191394914       42.4012207245  TIP3      2892            0.0000000000
     30996      3084  TIP3      H2            -32.8991679970      -25.0597517018       41.5177039490  TIP3      2892            0.0000000000
     30997      3085  TIP3      OH2           -27.5241704376      -21.5644652896       41.3009261950  TIP3      2893            0.0000000000
     30998      3085  TIP3      H1            -28.1334360184      -20.9712970085       41.7897771462  TIP3      2893            0.0000000000
     30999      3085  TIP3      H2            -26.7689776208      -20.9573166703       41.1978754973  TIP3      2893            0.0000000000
     31000      3086  TIP3      OH2           -29.7212990980      -20.2816772053       42.0709599943  TIP3      2894            0.0000000000
     31001      3086  TIP3      H1            -29.6836931473      -19.5124569469       41.4483550846  TIP3      2894            0.0000000000
     31002      3086  TIP3      H2            -30.0012525451      -19.8541751194       42.8882590521  TIP3      2894            0.0000000000
     31003      3087  TIP3      OH2           -31.1782165297      -33.7548843879       41.3756006639  TIP3      2895            0.0000000000
     31004      3087  TIP3      H1            -31.4341498660      -32.9129555977       41.7847569976  TIP3      2895            0.0000000000
     31005      3087  TIP3      H2            -30.3006958565      -33.8155236585       41.7728145048  TIP3      2895            0.0000000000
     31006      3088  TIP3      OH2           -32.8381443724      -23.1175434419       40.6629013656  TIP3      2896            0.0000000000
     31007      3088  TIP3      H1            -32.1989988159      -22.4651204520       40.9739737749  TIP3      2896            0.0000000000
     31008      3088  TIP3      H2            -32.2883317557      -23.5789371485       40.0023189637  TIP3      2896            0.0000000000
     31009      3089  TIP3      OH2           -34.4103593543      -30.4191064193       39.7164954296  TIP3      2897            0.0000000000
     31010      3089  TIP3      H1            -34.4525433628      -29.4952164479       40.0065545186  TIP3      2897            0.0000000000
     31011      3089  TIP3      H2            -35.3387355642      -30.6391572582       39.5724419131  TIP3      2897            0.0000000000
     31012      3090  TIP3      OH2           -26.6948131849      -20.6275626333       38.9371737065  TIP3      2898            0.0000000000
     31013      3090  TIP3      H1            -27.3821096662      -21.2901780046       39.1995642363  TIP3      2898            0.0000000000
     31014      3090  TIP3      H2            -25.9838932525      -21.2385689752       38.6843740759  TIP3      2898            0.0000000000
     31015      3091  TIP3      OH2           -22.1510665607      -20.8936662702       39.0994336497  TIP3      2899            0.0000000000
     31016      3091  TIP3      H1            -21.8665653646      -21.6522540597       39.6461456886  TIP3      2899            0.0000000000
     31017      3091  TIP3      H2            -21.3524129634      -20.7073016736       38.5777538837  TIP3      2899            0.0000000000
     31018      3092  TIP3      OH2           -31.2695995841      -24.9887786903       38.9931948576  TIP3      2900            0.0000000000
     31019      3092  TIP3      H1            -31.0903425454      -25.7389946364       39.5770864463  TIP3      2900            0.0000000000
     31020      3092  TIP3      H2            -30.5138364488      -25.0702412799       38.3770086568  TIP3      2900            0.0000000000
     31021      3093  TIP3      OH2           -25.7749536281      -23.8752476054       38.7962035996  TIP3      2901            0.0000000000
     31022      3093  TIP3      H1            -26.0743031329      -23.7843631893       39.7137252195  TIP3      2901            0.0000000000
     31023      3093  TIP3      H2            -26.0210443620      -24.8153432221       38.6049612754  TIP3      2901            0.0000000000
     31024      3094  TIP3      OH2           -30.0626657676      -26.9766822293       41.3251852842  TIP3      2902            0.0000000000
     31025      3094  TIP3      H1            -30.5145861602      -27.5070076321       41.9980397633  TIP3      2902            0.0000000000
     31026      3094  TIP3      H2            -29.7495060950      -27.6473843770       40.6819949190  TIP3      2902            0.0000000000
     31027      3095  TIP3      OH2           -28.9947846480      -28.7556154809       39.5782886524  TIP3      2903            0.0000000000
     31028      3095  TIP3      H1            -29.1108345265      -28.8277714969       38.6064487288  TIP3      2903            0.0000000000
     31029      3095  TIP3      H2            -28.0178968949      -28.6772666558       39.6726951498  TIP3      2903            0.0000000000
     31030      3096  TIP3      OH2           -19.8042688938      -26.3757042144       38.8022056321  TIP3      2904            0.0000000000
     31031      3096  TIP3      H1            -19.8673855617      -26.7547485433       37.9261639227  TIP3      2904            0.0000000000
     31032      3096  TIP3      H2            -19.5778524554      -25.4236404065       38.7001562292  TIP3      2904            0.0000000000
     31033      3097  TIP3      OH2           -29.1050213941      -18.0249588281       40.7070981582  TIP3      2905            0.0000000000
     31034      3097  TIP3      H1            -28.1329925246      -17.9479165271       40.7353163942  TIP3      2905            0.0000000000
     31035      3097  TIP3      H2            -29.3000896739      -17.4335660807       39.9647785589  TIP3      2905            0.0000000000
     31036      3098  TIP3      OH2           -35.4720983059      -23.4021317655       40.2118443349  TIP3      2906            0.0000000000
     31037      3098  TIP3      H1            -34.5033910486      -23.3184402081       40.3578206248  TIP3      2906            0.0000000000
     31038      3098  TIP3      H2            -35.4676576275      -24.0529332961       39.4873047886  TIP3      2906            0.0000000000
     31039      3099  TIP3      OH2           -19.0083404806      -26.6869122593       41.1089969311  TIP3      2907            0.0000000000
     31040      3099  TIP3      H1            -18.8104940350      -27.2604577104       40.3422670905  TIP3      2907            0.0000000000
     31041      3099  TIP3      H2            -18.3261635862      -27.0110467218       41.7208771168  TIP3      2907            0.0000000000
     31042      3100  TIP3      OH2           -20.1091503708      -30.3435921936       39.7891467697  TIP3      2908            0.0000000000
     31043      3100  TIP3      H1            -19.9866425139      -29.6942903961       39.0854027583  TIP3      2908            0.0000000000
     31044      3100  TIP3      H2            -20.2778379179      -31.1749008851       39.2962309718  TIP3      2908            0.0000000000
     31045      3101  TIP3      OH2           -20.8663207000      -32.9047845971       38.9486431398  TIP3      2909            0.0000000000
     31046      3101  TIP3      H1            -20.2428111970      -33.3171927900       39.5784528513  TIP3      2909            0.0000000000
     31047      3101  TIP3      H2            -21.7067808827      -33.3460633745       39.1172567742  TIP3      2909            0.0000000000
     31048      3102  TIP3      OH2           -18.7718146394      -34.0410698346       40.4221808072  TIP3      2910            0.0000000000
     31049      3102  TIP3      H1            -18.3323279244      -34.8025796458       39.9819473864  TIP3      2910            0.0000000000
     31050      3102  TIP3      H2            -18.0403922129      -33.4026026475       40.5509459776  TIP3      2910            0.0000000000
     31051      3103  TIP3      OH2           -34.7747811798      -35.8906454960       41.6056075163  TIP3      2911            0.0000000000
     31052      3103  TIP3      H1            -34.6706914942      -35.2368473481       40.9134485461  TIP3      2911            0.0000000000
     31053      3103  TIP3      H2            -35.5804017986      -35.6035046329       42.0728533804  TIP3      2911            0.0000000000
     31054      3104  TIP3      OH2           -33.4144429451      -34.0324248011       39.9405485587  TIP3      2912            0.0000000000
     31055      3104  TIP3      H1            -32.8810243747      -34.6882825677       39.4545516484  TIP3      2912            0.0000000000
     31056      3104  TIP3      H2            -32.8020964334      -33.7911192741       40.6605174415  TIP3      2912            0.0000000000
     31057      3105  TIP3      OH2           -26.4618988024      -18.7990197755       40.8743409779  TIP3      2913            0.0000000000
     31058      3105  TIP3      H1            -25.5506165859      -18.5330297455       40.6764471270  TIP3      2913            0.0000000000
     31059      3105  TIP3      H2            -26.6500155974      -19.3158642195       40.0600603695  TIP3      2913            0.0000000000
     31060      3106  TIP3      OH2           -33.5559971641      -19.1210333529       39.4577868286  TIP3      2914            0.0000000000
     31061      3106  TIP3      H1            -33.7810689261      -18.8276755466       40.3577742928  TIP3      2914            0.0000000000
     31062      3106  TIP3      H2            -32.7527716612      -19.6510588744       39.6204335020  TIP3      2914            0.0000000000
     31063      3107  TIP3      OH2            -7.3429388237      -28.8679941599       40.0871469830  TIP3      2915            0.0000000000
     31064      3107  TIP3      H1             -6.6804344269      -28.8261866212       40.8165012126  TIP3      2915            0.0000000000
     31065      3107  TIP3      H2             -6.9683397643      -29.5954115114       39.5879070050  TIP3      2915            0.0000000000
     31066      3108  TIP3      OH2            -5.1063943897      -28.1623063213       41.6238544478  TIP3      2916            0.0000000000
     31067      3108  TIP3      H1             -4.7186419635      -27.8754153046       42.4834643298  TIP3      2916            0.0000000000
     31068      3108  TIP3      H2             -4.7455350159      -27.5330699691       40.9682268171  TIP3      2916            0.0000000000
     31069      3109  TIP3      OH2            -1.4093624654      -36.1827977980       41.6203806601  TIP3      2917            0.0000000000
     31070      3109  TIP3      H1             -2.3216368008      -36.0540309989       41.9004765946  TIP3      2917            0.0000000000
     31071      3109  TIP3      H2             -1.1451856181      -35.3327447000       41.2493142113  TIP3      2917            0.0000000000
     31072      3110  TIP3      OH2            -0.2062512016      -21.8834018900       39.8721037220  TIP3      2918            0.0000000000
     31073      3110  TIP3      H1             -0.0514904752      -20.9728925977       40.1897039888  TIP3      2918            0.0000000000
     31074      3110  TIP3      H2              0.7045530463      -22.2079995412       40.0142893307  TIP3      2918            0.0000000000
     31075      3111  TIP3      OH2            -4.7807392728      -19.1324939514       40.6811774252  TIP3      2919            0.0000000000
     31076      3111  TIP3      H1             -4.3711496141      -19.8854208929       40.2224661621  TIP3      2919            0.0000000000
     31077      3111  TIP3      H2             -4.7324820732      -19.4232046853       41.6079478371  TIP3      2919            0.0000000000
     31078      3112  TIP3      OH2            -3.5733322957      -26.9969052315       39.5775308086  TIP3      2920            0.0000000000
     31079      3112  TIP3      H1             -3.6466250552      -27.1836880757       38.6093131446  TIP3      2920            0.0000000000
     31080      3112  TIP3      H2             -2.7303583095      -26.5252278006       39.5768559942  TIP3      2920            0.0000000000
     31081      3113  TIP3      OH2            -7.9747672789      -33.0960600173       40.0664868289  TIP3      2921            0.0000000000
     31082      3113  TIP3      H1             -8.3047605310      -33.0473304165       40.9750634736  TIP3      2921            0.0000000000
     31083      3113  TIP3      H2             -8.3471264360      -33.9536280905       39.7885949432  TIP3      2921            0.0000000000
     31084      3114  TIP3      OH2           -11.1327933473      -32.6848219201       39.1720833624  TIP3      2922            0.0000000000
     31085      3114  TIP3      H1            -11.6556945024      -33.0682504667       39.9089043450  TIP3      2922            0.0000000000
     31086      3114  TIP3      H2            -11.9062997726      -32.2732000012       38.7420689567  TIP3      2922            0.0000000000
     31087      3115  TIP3      OH2           -16.6735299733      -32.2829749357       41.5667237900  TIP3      2923            0.0000000000
     31088      3115  TIP3      H1            -16.0983641353      -31.6516977410       41.0990044851  TIP3      2923            0.0000000000
     31089      3115  TIP3      H2            -17.3444425060      -31.6850698448       41.9501233889  TIP3      2923            0.0000000000
     31090      3116  TIP3      OH2           -12.4459536224      -29.7720794087       40.6726434410  TIP3      2924            0.0000000000
     31091      3116  TIP3      H1            -13.0443235246      -30.2991255984       40.0651320130  TIP3      2924            0.0000000000
     31092      3116  TIP3      H2            -11.6938611911      -29.6779318062       40.0919307221  TIP3      2924            0.0000000000
     31093      3117  TIP3      OH2            -5.3197034363      -32.4514497868       40.6435117448  TIP3      2925            0.0000000000
     31094      3117  TIP3      H1             -6.2932981266      -32.3956306432       40.6372829782  TIP3      2925            0.0000000000
     31095      3117  TIP3      H2             -5.0234886312      -31.6756159899       41.1521238008  TIP3      2925            0.0000000000
     31096      3118  TIP3      OH2            -4.6004847609      -30.6142105117       42.3466066557  TIP3      2926            0.0000000000
     31097      3118  TIP3      H1             -3.7011052242      -30.7392071614       42.6811230062  TIP3      2926            0.0000000000
     31098      3118  TIP3      H2             -4.5441997997      -29.7940386483       41.8210970898  TIP3      2926            0.0000000000
     31099      3119  TIP3      OH2            -7.0784131714      -23.8902418657       41.5573499119  TIP3      2927            0.0000000000
     31100      3119  TIP3      H1             -7.4370976710      -23.0552419056       41.8837027592  TIP3      2927            0.0000000000
     31101      3119  TIP3      H2             -7.7830955578      -24.5118110028       41.7841282458  TIP3      2927            0.0000000000
     31102      3120  TIP3      OH2             0.4468093669      -30.4090856392       41.9918469514  TIP3      2928            0.0000000000
     31103      3120  TIP3      H1             -0.2004180971      -30.7603365743       41.3384791202  TIP3      2928            0.0000000000
     31104      3120  TIP3      H2              0.4282933313      -29.4625326588       41.7383809715  TIP3      2928            0.0000000000
     31105      3121  TIP3      OH2           -15.6281854807      -27.0636603589       39.8820005137  TIP3      2929            0.0000000000
     31106      3121  TIP3      H1            -15.1564801635      -26.9529538820       40.7412657081  TIP3      2929            0.0000000000
     31107      3121  TIP3      H2            -16.4732032974      -27.3783452191       40.2866760590  TIP3      2929            0.0000000000
     31108      3122  TIP3      OH2            -3.9616068041      -23.6188027028       40.3356106295  TIP3      2930            0.0000000000
     31109      3122  TIP3      H1             -3.6672607554      -23.9468094517       41.1941200891  TIP3      2930            0.0000000000
     31110      3122  TIP3      H2             -4.9237674231      -23.7416100421       40.4634581524  TIP3      2930            0.0000000000
     31111      3123  TIP3      OH2             0.4375442585      -19.2153975282       40.5666849565  TIP3      2931            0.0000000000
     31112      3123  TIP3      H1              1.2087605379      -18.6197493311       40.5203361773  TIP3      2931            0.0000000000
     31113      3123  TIP3      H2             -0.2332131249      -18.5891722285       40.8993101401  TIP3      2931            0.0000000000
     31114      3124  TIP3      OH2            -9.8588111790      -22.5151581156       38.8224583290  TIP3      2932            0.0000000000
     31115      3124  TIP3      H1             -9.7577968558      -23.2955470479       38.2597751529  TIP3      2932            0.0000000000
     31116      3124  TIP3      H2            -10.2609946362      -22.9160622247       39.6297380811  TIP3      2932            0.0000000000
     31117      3125  TIP3      OH2           -11.0494870289      -23.0211797896       41.2613512756  TIP3      2933            0.0000000000
     31118      3125  TIP3      H1            -10.8567153223      -23.4691251594       42.0989623199  TIP3      2933            0.0000000000
     31119      3125  TIP3      H2            -10.9417288241      -22.0972683806       41.5676386674  TIP3      2933            0.0000000000
     31120      3126  TIP3      OH2           -14.6139937264      -25.7139013532       41.7651422990  TIP3      2934            0.0000000000
     31121      3126  TIP3      H1            -15.2551080010      -25.3731429656       42.3745571542  TIP3      2934            0.0000000000
     31122      3126  TIP3      H2            -14.0162676056      -24.9788218958       41.5362395151  TIP3      2934            0.0000000000
     31123      3127  TIP3      OH2            -8.6652256855      -21.5645841828       41.3040041771  TIP3      2935            0.0000000000
     31124      3127  TIP3      H1             -9.2763341577      -20.9705545538       41.7912295968  TIP3      2935            0.0000000000
     31125      3127  TIP3      H2             -7.9115464307      -20.9574423619       41.1964558570  TIP3      2935            0.0000000000
     31126      3128  TIP3      OH2           -10.8483326410      -20.2864595352       42.0849021873  TIP3      2936            0.0000000000
     31127      3128  TIP3      H1            -10.8090159481      -19.5232698605       41.4543872917  TIP3      2936            0.0000000000
     31128      3128  TIP3      H2            -11.1277842095      -19.8578050563       42.9010587272  TIP3      2936            0.0000000000
     31129      3129  TIP3      OH2           -12.2206272331      -33.9408144537       41.5810174395  TIP3      2937            0.0000000000
     31130      3129  TIP3      H1            -12.5659581513      -33.0190488492       41.6832159606  TIP3      2937            0.0000000000
     31131      3129  TIP3      H2            -11.3052300745      -33.7963890801       41.8082950653  TIP3      2937            0.0000000000
     31132      3130  TIP3      OH2           -13.9958034590      -23.1007450706       40.6589775953  TIP3      2938            0.0000000000
     31133      3130  TIP3      H1            -13.3280360713      -22.4738322555       40.9664152027  TIP3      2938            0.0000000000
     31134      3130  TIP3      H2            -13.4513900744      -23.5782072546       40.0053325734  TIP3      2938            0.0000000000
     31135      3131  TIP3      OH2           -15.7970721944      -30.1696627353       39.3683946862  TIP3      2939            0.0000000000
     31136      3131  TIP3      H1            -15.7606240522      -29.4623410475       40.0550003831  TIP3      2939            0.0000000000
     31137      3131  TIP3      H2            -16.6289937567      -30.5781570575       39.6031179095  TIP3      2939            0.0000000000
     31138      3132  TIP3      OH2            -7.8406035098      -20.6211149534       38.9422399734  TIP3      2940            0.0000000000
     31139      3132  TIP3      H1             -8.5382099568      -21.2758529859       39.2086271847  TIP3      2940            0.0000000000
     31140      3132  TIP3      H2             -7.1436487688      -21.2408306679       38.6901569647  TIP3      2940            0.0000000000
     31141      3133  TIP3      OH2            -3.3290104896      -20.9950515718       38.9527614323  TIP3      2941            0.0000000000
     31142      3133  TIP3      H1             -3.0315159381      -21.6022287956       39.6664327156  TIP3      2941            0.0000000000
     31143      3133  TIP3      H2             -2.4693123848      -20.6416146797       38.6552391789  TIP3      2941            0.0000000000
     31144      3134  TIP3      OH2           -12.3962935825      -24.9856222657       38.9938538809  TIP3      2942            0.0000000000
     31145      3134  TIP3      H1            -12.2363816034      -25.7415631631       39.5750871089  TIP3      2942            0.0000000000
     31146      3134  TIP3      H2            -11.6433944414      -25.0725408021       38.3753686279  TIP3      2942            0.0000000000
     31147      3135  TIP3      OH2            -6.8910447123      -23.9038538758       38.7878353093  TIP3      2943            0.0000000000
     31148      3135  TIP3      H1             -7.2247802007      -23.7932753303       39.6968685885  TIP3      2943            0.0000000000
     31149      3135  TIP3      H2             -7.1801887846      -24.8340140806       38.6079784774  TIP3      2943            0.0000000000
     31150      3136  TIP3      OH2           -11.2282949088      -26.9906861525       41.3442729149  TIP3      2944            0.0000000000
     31151      3136  TIP3      H1            -11.7077555138      -27.5311512270       41.9893305714  TIP3      2944            0.0000000000
     31152      3136  TIP3      H2            -10.9354954968      -27.6661515390       40.6931175738  TIP3      2944            0.0000000000
     31153      3137  TIP3      OH2           -10.1018409966      -28.7457677183       39.5767325734  TIP3      2945            0.0000000000
     31154      3137  TIP3      H1            -10.2972422450      -28.8296202462       38.6179963835  TIP3      2945            0.0000000000
     31155      3137  TIP3      H2             -9.1326636383      -28.6663100469       39.6551786341  TIP3      2945            0.0000000000
     31156      3138  TIP3      OH2            -0.7927910640      -26.3869598968       39.1003598519  TIP3      2946            0.0000000000
     31157      3138  TIP3      H1             -0.9597657536      -26.7777609858       38.2193830468  TIP3      2946            0.0000000000
     31158      3138  TIP3      H2             -0.6677419592      -25.4444704786       38.8397014960  TIP3      2946            0.0000000000
     31159      3139  TIP3      OH2           -10.2669259906      -18.0193732652       40.7084866034  TIP3      2947            0.0000000000
     31160      3139  TIP3      H1             -9.2914732134      -17.9528195886       40.7416932061  TIP3      2947            0.0000000000
     31161      3139  TIP3      H2            -10.4346697809      -17.4339147166       39.9553350378  TIP3      2947            0.0000000000
     31162      3140  TIP3      OH2           -16.7333163315      -23.4166449633       40.1205482681  TIP3      2948            0.0000000000
     31163      3140  TIP3      H1            -15.7801308799      -23.3689257822       40.3447817970  TIP3      2948            0.0000000000
     31164      3140  TIP3      H2            -16.6924813702      -24.1335220680       39.4484822449  TIP3      2948            0.0000000000
     31165      3141  TIP3      OH2             0.4575810051      -27.6326433788       41.1450865802  TIP3      2949            0.0000000000
     31166      3141  TIP3      H1             -0.0512387350      -27.2219397544       40.4036641673  TIP3      2949            0.0000000000
     31167      3141  TIP3      H2              0.4340737480      -26.9727386975       41.8672950108  TIP3      2949            0.0000000000
     31168      3142  TIP3      OH2            -1.2172004517      -30.3238644588       39.7871561981  TIP3      2950            0.0000000000
     31169      3142  TIP3      H1             -1.1581647600      -29.6987150376       39.0597110831  TIP3      2950            0.0000000000
     31170      3142  TIP3      H2             -1.4177162811      -31.1595834950       39.3099089149  TIP3      2950            0.0000000000
     31171      3143  TIP3      OH2            -1.9758557598      -32.8902453947       38.9558405826  TIP3      2951            0.0000000000
     31172      3143  TIP3      H1             -1.3712056470      -33.3356759725       39.5748116592  TIP3      2951            0.0000000000
     31173      3143  TIP3      H2             -2.8249627623      -33.3282363658       39.1366633399  TIP3      2951            0.0000000000
     31174      3144  TIP3      OH2             0.0956406650      -34.0208643275       40.4222180602  TIP3      2952            0.0000000000
     31175      3144  TIP3      H1              0.5116869332      -34.7948646947       39.9770341432  TIP3      2952            0.0000000000
     31176      3144  TIP3      H2              0.8291518263      -33.3917153185       40.5448219015  TIP3      2952            0.0000000000
     31177      3145  TIP3      OH2           -16.4524941794      -36.0409098710       41.5319030486  TIP3      2953            0.0000000000
     31178      3145  TIP3      H1            -15.8655097142      -35.4276186931       41.0322101870  TIP3      2953            0.0000000000
     31179      3145  TIP3      H2            -16.9367880182      -35.4281241470       42.0685457511  TIP3      2953            0.0000000000
     31180      3146  TIP3      OH2           -14.5064897065      -34.8863249710       40.2571039748  TIP3      2954            0.0000000000
     31181      3146  TIP3      H1            -14.0451723645      -34.7378477587       39.4260321303  TIP3      2954            0.0000000000
     31182      3146  TIP3      H2            -14.1954843119      -34.0211506191       40.6365294558  TIP3      2954            0.0000000000
     31183      3147  TIP3      OH2            -7.6104081811      -18.7931263069       40.8846412033  TIP3      2955            0.0000000000
     31184      3147  TIP3      H1             -6.6998571336      -18.5316917546       40.6768381913  TIP3      2955            0.0000000000
     31185      3147  TIP3      H2             -7.8109025391      -19.3062651213       40.0723338805  TIP3      2955            0.0000000000
     31186      3148  TIP3      OH2           -14.6578808656      -19.0861020502       39.4681168445  TIP3      2956            0.0000000000
     31187      3148  TIP3      H1            -14.9269284098      -18.8503602549       40.3714089054  TIP3      2956            0.0000000000
     31188      3148  TIP3      H2            -13.8924606970      -19.6775479251       39.6113755956  TIP3      2956            0.0000000000
     31189      3149  TIP3      OH2            11.6637805729      -28.8649765489       40.0110352171  TIP3      2957            0.0000000000
     31190      3149  TIP3      H1             12.3814506292      -28.8375238936       40.6925740618  TIP3      2957            0.0000000000
     31191      3149  TIP3      H2             11.9956752491      -29.6130199775       39.4773331112  TIP3      2957            0.0000000000
     31192      3150  TIP3      OH2            13.7141019181      -28.1546553272       41.6524478818  TIP3      2958            0.0000000000
     31193      3150  TIP3      H1             14.1364443326      -27.8632237090       42.5023654769  TIP3      2958            0.0000000000
     31194      3150  TIP3      H2             14.1370625964      -27.5571867835       40.9977811694  TIP3      2958            0.0000000000
     31195      3151  TIP3      OH2            17.4628579579      -36.1777627970       41.6603427550  TIP3      2959            0.0000000000
     31196      3151  TIP3      H1             16.5291478984      -36.0544689070       41.8757257412  TIP3      2959            0.0000000000
     31197      3151  TIP3      H2             17.7133862585      -35.3558738063       41.2190813905  TIP3      2959            0.0000000000
     31198      3152  TIP3      OH2            18.6527940079      -21.8917249260       39.9038469651  TIP3      2960            0.0000000000
     31199      3152  TIP3      H1             18.7928233916      -20.9665765561       40.1750211292  TIP3      2960            0.0000000000
     31200      3152  TIP3      H2             19.5677699042      -22.2010963440       40.0157051253  TIP3      2960            0.0000000000
     31201      3153  TIP3      OH2            14.0751954172      -19.1391115166       40.6864832163  TIP3      2961            0.0000000000
     31202      3153  TIP3      H1             14.4931470984      -19.8797783739       40.1990638129  TIP3      2961            0.0000000000
     31203      3153  TIP3      H2             14.1326888704      -19.4482163049       41.6042999156  TIP3      2961            0.0000000000
     31204      3154  TIP3      OH2            15.2637974776      -26.9953782889       39.5514902443  TIP3      2962            0.0000000000
     31205      3154  TIP3      H1             15.1943391069      -27.1548551875       38.5771926238  TIP3      2962            0.0000000000
     31206      3154  TIP3      H2             16.0985689092      -26.5086578021       39.5638696738  TIP3      2962            0.0000000000
     31207      3155  TIP3      OH2            10.7860352987      -33.0426825643       40.0911287226  TIP3      2963            0.0000000000
     31208      3155  TIP3      H1             10.5427414140      -33.1159342313       41.0167711181  TIP3      2963            0.0000000000
     31209      3155  TIP3      H2             10.5654547139      -33.9402914828       39.7729430281  TIP3      2963            0.0000000000
     31210      3156  TIP3      OH2             7.6492287315      -32.6234328382       39.2186845024  TIP3      2964            0.0000000000
     31211      3156  TIP3      H1              7.1717512670      -33.1116252322       39.9232913263  TIP3      2964            0.0000000000
     31212      3156  TIP3      H2              6.9284817048      -32.2843617606       38.6676024286  TIP3      2964            0.0000000000
     31213      3157  TIP3      OH2             2.1524144739      -32.2936910535       41.5847207035  TIP3      2965            0.0000000000
     31214      3157  TIP3      H1              2.7183631802      -31.6502294217       41.1099374759  TIP3      2965            0.0000000000
     31215      3157  TIP3      H2              1.5103790140      -31.6744181825       41.9701843473  TIP3      2965            0.0000000000
     31216      3158  TIP3      OH2             6.3676532982      -29.9649366578       40.6406974858  TIP3      2966            0.0000000000
     31217      3158  TIP3      H1              5.7552415526      -30.2661750987       39.9318344765  TIP3      2966            0.0000000000
     31218      3158  TIP3      H2              7.1062255690      -29.6811597657       40.0895672970  TIP3      2966            0.0000000000
     31219      3159  TIP3      OH2            13.4824755912      -32.4968614400       40.8261672136  TIP3      2967            0.0000000000
     31220      3159  TIP3      H1             12.5554228368      -32.3867266716       40.5652464656  TIP3      2967            0.0000000000
     31221      3159  TIP3      H2             13.8229957024      -31.6322090152       41.1006561068  TIP3      2967            0.0000000000
     31222      3160  TIP3      OH2            14.2385176153      -30.5860587399       42.3493554162  TIP3      2968            0.0000000000
     31223      3160  TIP3      H1             15.1389546976      -30.7291574009       42.6641476640  TIP3      2968            0.0000000000
     31224      3160  TIP3      H2             14.3209757490      -29.7713747888       41.8239231703  TIP3      2968            0.0000000000
     31225      3161  TIP3      OH2            11.7728028397      -23.8942805493       41.5192556499  TIP3      2969            0.0000000000
     31226      3161  TIP3      H1             11.4473148555      -23.0660409082       41.9031726875  TIP3      2969            0.0000000000
     31227      3161  TIP3      H2             11.0713916858      -24.4890191344       41.7927047723  TIP3      2969            0.0000000000
     31228      3162  TIP3      OH2            19.3005033778      -30.4108751032       42.0024952036  TIP3      2970            0.0000000000
     31229      3162  TIP3      H1             18.6798123446      -30.7573358144       41.3178392706  TIP3      2970            0.0000000000
     31230      3162  TIP3      H2             19.3099446335      -29.4683851888       41.7237633060  TIP3      2970            0.0000000000
     31231      3163  TIP3      OH2             2.9482746019      -27.6315084425       40.2295726289  TIP3      2971            0.0000000000
     31232      3163  TIP3      H1              3.5213015363      -27.0168504296       40.7411979633  TIP3      2971            0.0000000000
     31233      3163  TIP3      H2              2.0590857507      -27.3667804456       40.5363732420  TIP3      2971            0.0000000000
     31234      3164  TIP3      OH2            14.8985246848      -23.6427630514       40.3663195977  TIP3      2972            0.0000000000
     31235      3164  TIP3      H1             15.1722341192      -23.9594572528       41.2307899431  TIP3      2972            0.0000000000
     31236      3164  TIP3      H2             13.9310039612      -23.7431588001       40.4663164603  TIP3      2972            0.0000000000
     31237      3165  TIP3      OH2            19.2933958228      -19.2127069234       40.5604132383  TIP3      2973            0.0000000000
     31238      3165  TIP3      H1             20.0644444493      -18.6172573625       40.5239338210  TIP3      2973            0.0000000000
     31239      3165  TIP3      H2             18.6217886055      -18.5884710855       40.9010177235  TIP3      2973            0.0000000000
     31240      3166  TIP3      OH2             9.0350172375      -22.5188369558       38.8431986772  TIP3      2974            0.0000000000
     31241      3166  TIP3      H1              9.0791453595      -23.2853080551       38.2532115951  TIP3      2974            0.0000000000
     31242      3166  TIP3      H2              8.5806066701      -22.9177790672       39.6215537613  TIP3      2974            0.0000000000
     31243      3167  TIP3      OH2             7.8112843169      -23.0180552301       41.2753414435  TIP3      2975            0.0000000000
     31244      3167  TIP3      H1              7.9986203250      -23.4540175028       42.1180752770  TIP3      2975            0.0000000000
     31245      3167  TIP3      H2              7.9169422684      -22.0903235320       41.5722450240  TIP3      2975            0.0000000000
     31246      3168  TIP3      OH2             4.1589218979      -25.7116494493       41.6539161869  TIP3      2976            0.0000000000
     31247      3168  TIP3      H1              3.6258916126      -25.4027824385       42.3850482127  TIP3      2976            0.0000000000
     31248      3168  TIP3      H2              4.8411111621      -25.0210050193       41.5254249580  TIP3      2976            0.0000000000
     31249      3169  TIP3      OH2            10.1869493314      -21.5594299222       41.3018971708  TIP3      2977            0.0000000000
     31250      3169  TIP3      H1              9.5779185287      -20.9696455837       41.7919871092  TIP3      2977            0.0000000000
     31251      3169  TIP3      H2             10.9439035221      -20.9559282003       41.1996693593  TIP3      2977            0.0000000000
     31252      3170  TIP3      OH2             7.9871863110      -20.2794757976       42.0751937876  TIP3      2978            0.0000000000
     31253      3170  TIP3      H1              8.0481994499      -19.5088165859       41.4595859019  TIP3      2978            0.0000000000
     31254      3170  TIP3      H2              7.7388556967      -19.8638861572       42.9079198676  TIP3      2978            0.0000000000
     31255      3171  TIP3      OH2             6.5077550538      -33.7608375690       41.3987861927  TIP3      2979            0.0000000000
     31256      3171  TIP3      H1              6.2859420080      -32.9098354091       41.7983631803  TIP3      2979            0.0000000000
     31257      3171  TIP3      H2              7.4104754620      -33.8344368808       41.7456841577  TIP3      2979            0.0000000000
     31258      3172  TIP3      OH2             4.8684746949      -23.0998709401       40.6525283442  TIP3      2980            0.0000000000
     31259      3172  TIP3      H1              5.5330349579      -22.4745036855       40.9585363520  TIP3      2980            0.0000000000
     31260      3172  TIP3      H2              5.4019128859      -23.5678258988       39.9776928133  TIP3      2980            0.0000000000
     31261      3173  TIP3      OH2             3.1931317387      -30.4382124292       39.8402105165  TIP3      2981            0.0000000000
     31262      3173  TIP3      H1              3.1979159619      -29.4734077857       40.0151471431  TIP3      2981            0.0000000000
     31263      3173  TIP3      H2              2.3100570119      -30.6153597597       39.5148876360  TIP3      2981            0.0000000000
     31264      3174  TIP3      OH2            11.0200943765      -20.6299606544       38.9390586013  TIP3      2982            0.0000000000
     31265      3174  TIP3      H1             10.3247284705      -21.2919925492       39.1932050731  TIP3      2982            0.0000000000
     31266      3174  TIP3      H2             11.7267422999      -21.2414258788       38.6853831682  TIP3      2982            0.0000000000
     31267      3175  TIP3      OH2            15.5606387416      -20.9041544389       39.0839539549  TIP3      2983            0.0000000000
     31268      3175  TIP3      H1             15.8473006230      -21.6423424486       39.6478059970  TIP3      2983            0.0000000000
     31269      3175  TIP3      H2             16.3631748462      -20.6995274046       38.5787671327  TIP3      2983            0.0000000000
     31270      3176  TIP3      OH2             6.4494031154      -24.9705410695       39.0217001053  TIP3      2984            0.0000000000
     31271      3176  TIP3      H1              6.6134312178      -25.7490333862       39.5557291920  TIP3      2984            0.0000000000
     31272      3176  TIP3      H2              7.1468412250      -25.0421452933       38.3408051845  TIP3      2984            0.0000000000
     31273      3177  TIP3      OH2            11.9301092712      -23.8707273164       38.7895558602  TIP3      2985            0.0000000000
     31274      3177  TIP3      H1             11.6226773693      -23.7595312162       39.7044529862  TIP3      2985            0.0000000000
     31275      3177  TIP3      H2             11.7003670744      -24.8142861949       38.6057026403  TIP3      2985            0.0000000000
     31276      3178  TIP3      OH2             7.7858974205      -27.0511048907       41.4025792520  TIP3      2986            0.0000000000
     31277      3178  TIP3      H1              7.1319600265      -27.4769078170       41.9838753544  TIP3      2986            0.0000000000
     31278      3178  TIP3      H2              7.8612826632      -27.6619812284       40.6463174626  TIP3      2986            0.0000000000
     31279      3179  TIP3      OH2             8.8144407227      -28.7809773462       39.6162146423  TIP3      2987            0.0000000000
     31280      3179  TIP3      H1              8.5335571071      -28.8405310351       38.6624494497  TIP3      2987            0.0000000000
     31281      3179  TIP3      H2              9.7578511881      -28.6131367541       39.4579023101  TIP3      2987            0.0000000000
     31282      3180  TIP3      OH2            18.0689328954      -26.3654394112       39.0897971267  TIP3      2988            0.0000000000
     31283      3180  TIP3      H1             17.9012902734      -26.7702159550       38.2156628138  TIP3      2988            0.0000000000
     31284      3180  TIP3      H2             18.1512321075      -25.4158265692       38.8322438838  TIP3      2988            0.0000000000
     31285      3181  TIP3      OH2             8.6044587483      -17.9830927322       40.7425338365  TIP3      2989            0.0000000000
     31286      3181  TIP3      H1              9.5800843624      -17.9468840736       40.7423794640  TIP3      2989            0.0000000000
     31287      3181  TIP3      H2              8.4243673812      -17.4347280621       39.9626007510  TIP3      2989            0.0000000000
     31288      3182  TIP3      OH2             2.1179226198      -23.4466534534       40.1386843769  TIP3      2990            0.0000000000
     31289      3182  TIP3      H1              3.0739481142      -23.3395304250       40.3433550245  TIP3      2990            0.0000000000
     31290      3182  TIP3      H2              2.1881090316      -24.1094088067       39.4174838947  TIP3      2990            0.0000000000
     31291      3183  TIP3      OH2            19.3050797377      -27.6559440734       41.1509682730  TIP3      2991            0.0000000000
     31292      3183  TIP3      H1             18.7947162908      -27.2405490458       40.4146442872  TIP3      2991            0.0000000000
     31293      3183  TIP3      H2             19.3115381294      -26.9675272535       41.8501235224  TIP3      2991            0.0000000000
     31294      3184  TIP3      OH2            17.6558933116      -30.3135294430       39.8150275164  TIP3      2992            0.0000000000
     31295      3184  TIP3      H1             17.6940088621      -29.7114463931       39.0649828510  TIP3      2992            0.0000000000
     31296      3184  TIP3      H2             17.4340524743      -31.1632870799       39.3551058886  TIP3      2992            0.0000000000
     31297      3185  TIP3      OH2            16.8734130830      -32.7949666444       39.0893563865  TIP3      2993            0.0000000000
     31298      3185  TIP3      H1             17.4849233221      -33.3694197321       39.5772612585  TIP3      2993            0.0000000000
     31299      3185  TIP3      H2             16.0587186666      -33.3246184293       39.0298784512  TIP3      2993            0.0000000000
     31300      3186  TIP3      OH2            18.9613645210      -34.0246572354       40.4247652552  TIP3      2994            0.0000000000
     31301      3186  TIP3      H1             19.3627546024      -34.7991140281       39.9730874751  TIP3      2994            0.0000000000
     31302      3186  TIP3      H2             19.6957679784      -33.3911812982       40.5207308565  TIP3      2994            0.0000000000
     31303      3187  TIP3      OH2             2.5396631319      -36.0095642333       41.5363383493  TIP3      2995            0.0000000000
     31304      3187  TIP3      H1              2.9409234374      -35.3333460278       40.9824415303  TIP3      2995            0.0000000000
     31305      3187  TIP3      H2              1.9266419887      -35.4762687487       42.0410912575  TIP3      2995            0.0000000000
     31306      3188  TIP3      OH2             4.2825664081      -34.0457531371       39.9614975945  TIP3      2996            0.0000000000
     31307      3188  TIP3      H1              4.8231499425      -34.6763134722       39.4542318396  TIP3      2996            0.0000000000
     31308      3188  TIP3      H2              4.9153165467      -33.7846575067       40.6612848082  TIP3      2996            0.0000000000
     31309      3189  TIP3      OH2            11.2480217613      -18.7977305016       40.8731751608  TIP3      2997            0.0000000000
     31310      3189  TIP3      H1             12.1602493542      -18.5329210684       40.6767480329  TIP3      2997            0.0000000000
     31311      3189  TIP3      H2             11.0627981516      -19.3168456304       40.0596913246  TIP3      2997            0.0000000000
     31312      3190  TIP3      OH2             4.1932638468      -19.0476785253       39.4965484959  TIP3      2998            0.0000000000
     31313      3190  TIP3      H1              3.9299328157      -18.8433742169       40.4064031295  TIP3      2998            0.0000000000
     31314      3190  TIP3      H2              4.9434045022      -19.6752717878       39.5932035313  TIP3      2998            0.0000000000
     31315      3191  TIP3      OH2            30.3508414893      -28.8671086246       40.1073793086  TIP3      2999            0.0000000000
     31316      3191  TIP3      H1             31.0418064752      -28.8273854602       40.8032196079  TIP3      2999            0.0000000000
     31317      3191  TIP3      H2             30.7252102159      -29.5797992373       39.5765486073  TIP3      2999            0.0000000000
     31318      3192  TIP3      OH2            32.5936605431      -28.1475123557       41.6354135838  TIP3      3000            0.0000000000
     31319      3192  TIP3      H1             33.0075324560      -27.8705822046       42.4833133973  TIP3      3000            0.0000000000
     31320      3192  TIP3      H2             32.9718088571      -27.5495180895       40.9624955278  TIP3      3000            0.0000000000
     31321      3193  TIP3      OH2            36.0249731857      -36.2401184969       41.3956099886  TIP3      3001            0.0000000000
     31322      3193  TIP3      H1             35.2926880752      -36.0161480207       41.9873237027  TIP3      3001            0.0000000000
     31323      3193  TIP3      H2             36.4578079367      -35.4208850792       41.2169450670  TIP3      3001            0.0000000000
     31324      3194  TIP3      OH2            32.9194782921      -19.1280382115       40.6631240283  TIP3      3002            0.0000000000
     31325      3194  TIP3      H1             33.3411855349      -19.8858552057       40.1929452635  TIP3      3002            0.0000000000
     31326      3194  TIP3      H2             32.9456236800      -19.4256489367       41.5866369862  TIP3      3002            0.0000000000
     31327      3195  TIP3      OH2            34.1572361394      -27.0351729183       39.5607285779  TIP3      3003            0.0000000000
     31328      3195  TIP3      H1             34.0758488977      -27.2005689646       38.5876563406  TIP3      3003            0.0000000000
     31329      3195  TIP3      H2             34.9516720628      -26.5043173431       39.5823840791  TIP3      3003            0.0000000000
     31330      3196  TIP3      OH2            29.6884662167      -33.0874227969       40.0772224475  TIP3      3004            0.0000000000
     31331      3196  TIP3      H1             29.3996062641      -33.0682099279       40.9959769527  TIP3      3004            0.0000000000
     31332      3196  TIP3      H2             29.3759435357      -33.9619885649       39.7896966163  TIP3      3004            0.0000000000
     31333      3197  TIP3      OH2            26.4991329283      -32.6400505659       39.2000828325  TIP3      3005            0.0000000000
     31334      3197  TIP3      H1             26.0342380172      -33.0977295721       39.9327582271  TIP3      3005            0.0000000000
     31335      3197  TIP3      H2             25.7790948398      -32.2606416867       38.6786148696  TIP3      3005            0.0000000000
     31336      3198  TIP3      OH2            21.0098690887      -32.2898586073       41.5967982079  TIP3      3006            0.0000000000
     31337      3198  TIP3      H1             21.5780014937      -31.6592923901       41.1094507422  TIP3      3006            0.0000000000
     31338      3198  TIP3      H2             20.3679043675      -31.6640936319       41.9590242651  TIP3      3006            0.0000000000
     31339      3199  TIP3      OH2            25.2084013269      -29.9642070938       40.6306595024  TIP3      3007            0.0000000000
     31340      3199  TIP3      H1             24.6408606661      -30.2593061605       39.8930570616  TIP3      3007            0.0000000000
     31341      3199  TIP3      H2             25.9900666896      -29.6710293665       40.1351354028  TIP3      3007            0.0000000000
     31342      3200  TIP3      OH2            32.3605973905      -32.4950589213       40.6817594629  TIP3      3008            0.0000000000
     31343      3200  TIP3      H1             31.3955939373      -32.3968580811       40.5881674822  TIP3      3008            0.0000000000
     31344      3200  TIP3      H2             32.6438250652      -31.6793749039       41.1392030130  TIP3      3008            0.0000000000
     31345      3201  TIP3      OH2            33.1169845550      -30.5977047685       42.3403160008  TIP3      3009            0.0000000000
     31346      3201  TIP3      H1             34.0151220886      -30.7359799660       42.6442209264  TIP3      3009            0.0000000000
     31347      3201  TIP3      H2             33.1351924444      -29.7815196067       41.8100784453  TIP3      3009            0.0000000000
     31348      3202  TIP3      OH2            30.6217937095      -23.8919846434       41.5607245695  TIP3      3010            0.0000000000
     31349      3202  TIP3      H1             30.2629680746      -23.0527938122       41.8855086557  TIP3      3010            0.0000000000
     31350      3202  TIP3      H2             29.9202295479      -24.5150818152       41.7883760026  TIP3      3010            0.0000000000
     31351      3203  TIP3      OH2            21.7781938353      -27.6145559126       40.2238016512  TIP3      3011            0.0000000000
     31352      3203  TIP3      H1             22.3706005882      -27.0178092609       40.7395300594  TIP3      3011            0.0000000000
     31353      3203  TIP3      H2             20.8991825660      -27.3536958818       40.5438580088  TIP3      3011            0.0000000000
     31354      3204  TIP3      OH2            33.7304546906      -23.6436175819       40.3554024775  TIP3      3012            0.0000000000
     31355      3204  TIP3      H1             33.9947358803      -23.9590794050       41.2214545981  TIP3      3012            0.0000000000
     31356      3204  TIP3      H2             32.7654061079      -23.7454394457       40.4271180780  TIP3      3012            0.0000000000
     31357      3205  TIP3      OH2            27.8296925193      -22.5177847133       38.8066645501  TIP3      3013            0.0000000000
     31358      3205  TIP3      H1             27.9750372922      -23.3018351216       38.2668262005  TIP3      3013            0.0000000000
     31359      3205  TIP3      H2             27.4480343761      -22.9168266376       39.6237357500  TIP3      3013            0.0000000000
     31360      3206  TIP3      OH2            26.6530741104      -23.0235523040       41.2649104746  TIP3      3014            0.0000000000
     31361      3206  TIP3      H1             26.8567461290      -23.4681891805       42.1002334592  TIP3      3014            0.0000000000
     31362      3206  TIP3      H2             26.7696405052      -22.0981836309       41.5658921416  TIP3      3014            0.0000000000
     31363      3207  TIP3      OH2            23.0081358484      -25.7143487083       41.6589880100  TIP3      3015            0.0000000000
     31364      3207  TIP3      H1             22.4808339490      -25.4038034865       42.3901027618  TIP3      3015            0.0000000000
     31365      3207  TIP3      H2             23.6897968448      -25.0257082803       41.5428868990  TIP3      3015            0.0000000000
     31366      3208  TIP3      OH2            29.0437924195      -21.5639710584       41.2968692071  TIP3      3016            0.0000000000
     31367      3208  TIP3      H1             28.4390212164      -20.9716126677       41.7926018504  TIP3      3016            0.0000000000
     31368      3208  TIP3      H2             29.7971792315      -20.9561488596       41.2007777372  TIP3      3016            0.0000000000
     31369      3209  TIP3      OH2            26.8620868170      -20.2873337530       42.0848326797  TIP3      3017            0.0000000000
     31370      3209  TIP3      H1             26.9020231638      -19.5242373251       41.4544269378  TIP3      3017            0.0000000000
     31371      3209  TIP3      H2             26.5835523663      -19.8584575138       42.9011265583  TIP3      3017            0.0000000000
     31372      3210  TIP3      OH2            25.3746693677      -33.7540652779       41.3934624872  TIP3      3018            0.0000000000
     31373      3210  TIP3      H1             25.1605963240      -32.9002601825       41.7931299396  TIP3      3018            0.0000000000
     31374      3210  TIP3      H2             26.2786916685      -33.8182555373       41.7421705457  TIP3      3018            0.0000000000
     31375      3211  TIP3      OH2            23.7155116569      -23.0944592936       40.6654969932  TIP3      3019            0.0000000000
     31376      3211  TIP3      H1             24.3849107402      -22.4742579584       40.9794232019  TIP3      3019            0.0000000000
     31377      3211  TIP3      H2             24.2637119616      -23.5727306824       40.0205079109  TIP3      3019            0.0000000000
     31378      3212  TIP3      OH2            22.0666216577      -30.4191949286       39.8188090837  TIP3      3020            0.0000000000
     31379      3212  TIP3      H1             22.0478930113      -29.4617414803       40.0172418395  TIP3      3020            0.0000000000
     31380      3212  TIP3      H2             21.1787262951      -30.6239885125       39.5180212946  TIP3      3020            0.0000000000
     31381      3213  TIP3      OH2            29.8738863605      -20.6347649087       38.9247372210  TIP3      3021            0.0000000000
     31382      3213  TIP3      H1             29.1857625495      -21.2912926421       39.1994821019  TIP3      3021            0.0000000000
     31383      3213  TIP3      H2             30.5935960795      -21.2452478073       38.6900039546  TIP3      3021            0.0000000000
     31384      3214  TIP3      OH2            34.4130729316      -20.8772441359       39.1539358215  TIP3      3022            0.0000000000
     31385      3214  TIP3      H1             34.6917871186      -21.6578330292       39.6544546770  TIP3      3022            0.0000000000
     31386      3214  TIP3      H2             35.1796537481      -20.7065359584       38.5670202097  TIP3      3022            0.0000000000
     31387      3215  TIP3      OH2            25.2879855341      -25.0207850298       38.9404727028  TIP3      3023            0.0000000000
     31388      3215  TIP3      H1             25.4694700912      -25.7197464689       39.5868696623  TIP3      3023            0.0000000000
     31389      3215  TIP3      H2             26.1065061260      -25.0740294258       38.4094388705  TIP3      3023            0.0000000000
     31390      3216  TIP3      OH2            30.7995960709      -23.8655125714       38.7942372816  TIP3      3024            0.0000000000
     31391      3216  TIP3      H1             30.4857756203      -23.7760582306       39.7063871929  TIP3      3024            0.0000000000
     31392      3216  TIP3      H2             30.5516965002      -24.8085824013       38.6076400973  TIP3      3024            0.0000000000
     31393      3217  TIP3      OH2            26.4957400577      -26.9764538850       41.3301648184  TIP3      3025            0.0000000000
     31394      3217  TIP3      H1             26.0476623588      -27.5084320726       42.0046675634  TIP3      3025            0.0000000000
     31395      3217  TIP3      H2             26.8120853302      -27.6477927307       40.6863308680  TIP3      3025            0.0000000000
     31396      3218  TIP3      OH2            27.5934817179      -28.7619711216       39.5872742816  TIP3      3026            0.0000000000
     31397      3218  TIP3      H1             27.4649029154      -28.8679880528       38.6229944952  TIP3      3026            0.0000000000
     31398      3218  TIP3      H2             28.5682514218      -28.6742896906       39.6696133593  TIP3      3026            0.0000000000
     31399      3219  TIP3      OH2            27.4492815888      -18.0143742012       40.7093649314  TIP3      3027            0.0000000000
     31400      3219  TIP3      H1             28.4242853685      -17.9514450953       40.7388630813  TIP3      3027            0.0000000000
     31401      3219  TIP3      H2             27.2759401698      -17.4329074953       39.9543797194  TIP3      3027            0.0000000000
     31402      3220  TIP3      OH2            20.9674890652      -23.4640595527       40.1533882065  TIP3      3028            0.0000000000
     31403      3220  TIP3      H1             21.9262410848      -23.3515975748       40.3464487072  TIP3      3028            0.0000000000
     31404      3220  TIP3      H2             21.0384123778      -24.1156827166       39.4250760508  TIP3      3028            0.0000000000
     31405      3221  TIP3      OH2            36.3286691285      -30.3379382035       39.8060984338  TIP3      3029            0.0000000000
     31406      3221  TIP3      H1             36.5370855675      -29.7246298420       39.0935588082  TIP3      3029            0.0000000000
     31407      3221  TIP3      H2             36.2361267204      -31.1892828537       39.3206228034  TIP3      3029            0.0000000000
     31408      3222  TIP3      OH2            35.7539529772      -32.8876461664       38.9545201716  TIP3      3030            0.0000000000
     31409      3222  TIP3      H1             36.2945774215      -33.3320111116       39.6083719273  TIP3      3030            0.0000000000
     31410      3222  TIP3      H2             34.8770012176      -33.3106994428       39.0762666822  TIP3      3030            0.0000000000
     31411      3223  TIP3      OH2            21.3986701129      -36.0127329992       41.5447541667  TIP3      3031            0.0000000000
     31412      3223  TIP3      H1             21.7960278450      -35.3381073558       40.9846895297  TIP3      3031            0.0000000000
     31413      3223  TIP3      H2             20.7814811516      -35.4768682845       42.0419364029  TIP3      3031            0.0000000000
     31414      3224  TIP3      OH2            23.1408675192      -34.0458587402       39.9636624314  TIP3      3032            0.0000000000
     31415      3224  TIP3      H1             23.6787538676      -34.6769862042       39.4533653082  TIP3      3032            0.0000000000
     31416      3224  TIP3      H2             23.7787094446      -33.7821855457       40.6575096885  TIP3      3032            0.0000000000
     31417      3225  TIP3      OH2            30.1050193684      -18.7996934592       40.8726844936  TIP3      3033            0.0000000000
     31418      3225  TIP3      H1             31.0172615315      -18.5332106955       40.6748399982  TIP3      3033            0.0000000000
     31419      3225  TIP3      H2             29.9174012700      -19.3181890142       40.0594739536  TIP3      3033            0.0000000000
     31420      3226  TIP3      OH2            23.0526729898      -19.0884548471       39.4671602971  TIP3      3034            0.0000000000
     31421      3226  TIP3      H1             22.7851822905      -18.8498928961       40.3706498486  TIP3      3034            0.0000000000
     31422      3226  TIP3      H2             23.8203749459      -19.6769655241       39.6119505742  TIP3      3034            0.0000000000
     31423      3227  TIP3      OH2           -26.2110405081      -10.0170401423       40.1254647386  TIP3      3035            0.0000000000
     31424      3227  TIP3      H1            -25.5098816599       -9.9769859438       40.8097290823  TIP3      3035            0.0000000000
     31425      3227  TIP3      H2            -25.8453740510      -10.7199448325       39.5769143770  TIP3      3035            0.0000000000
     31426      3228  TIP3      OH2           -23.9676633276       -9.2983514076       41.6225501463  TIP3      3036            0.0000000000
     31427      3228  TIP3      H1            -23.5812061277       -9.0011155140       42.4770634340  TIP3      3036            0.0000000000
     31428      3228  TIP3      H2            -23.5976589199       -8.6795858179       40.9636968977  TIP3      3036            0.0000000000
     31429      3229  TIP3      OH2           -20.1898836730      -17.3507492223       41.7495279443  TIP3      3037            0.0000000000
     31430      3229  TIP3      H1            -21.1479902454      -17.3409354839       41.8379668398  TIP3      3037            0.0000000000
     31431      3229  TIP3      H2            -20.0017362288      -16.5624507946       41.2150538518  TIP3      3037            0.0000000000
     31432      3230  TIP3      OH2           -19.0591940951       -3.0433006488       39.9079632968  TIP3      3038            0.0000000000
     31433      3230  TIP3      H1            -18.9085744918       -2.1155292457       40.1713575919  TIP3      3038            0.0000000000
     31434      3230  TIP3      H2            -18.1429826212       -3.3584190107       40.0085067202  TIP3      3038            0.0000000000
     31435      3231  TIP3      OH2           -23.6970385428       -0.3225411766       40.6696084074  TIP3      3039            0.0000000000
     31436      3231  TIP3      H1            -23.1984525308       -1.0276296610       40.2121651853  TIP3      3039            0.0000000000
     31437      3231  TIP3      H2            -23.5687564382       -0.5435727660       41.6061278038  TIP3      3039            0.0000000000
     31438      3232  TIP3      OH2           -22.4287252340       -8.1426859250       39.5580694316  TIP3      3040            0.0000000000
     31439      3232  TIP3      H1            -22.5113208549       -8.3087145217       38.5821713510  TIP3      3040            0.0000000000
     31440      3232  TIP3      H2            -21.5978949287       -7.6469703033       39.5608251297  TIP3      3040            0.0000000000
     31441      3233  TIP3      OH2           -26.9032346563      -14.2417695117       40.0737301104  TIP3      3041            0.0000000000
     31442      3233  TIP3      H1            -27.1803921031      -14.2161738204       40.9972953030  TIP3      3041            0.0000000000
     31443      3233  TIP3      H2            -27.1886492340      -15.1239154193       39.7850297743  TIP3      3041            0.0000000000
     31444      3234  TIP3      OH2           -30.0521826854      -13.8349925766       39.1893113662  TIP3      3042            0.0000000000
     31445      3234  TIP3      H1            -30.5344759782      -14.2282655566       39.9493788402  TIP3      3042            0.0000000000
     31446      3234  TIP3      H2            -30.7621455473      -13.4109103638       38.6845920277  TIP3      3042            0.0000000000
     31447      3235  TIP3      OH2           -35.4714266062      -13.3642739143       41.5566047592  TIP3      3043            0.0000000000
     31448      3235  TIP3      H1            -34.9500832879      -12.7059207472       41.0609927698  TIP3      3043            0.0000000000
     31449      3235  TIP3      H2            -36.2208301977      -12.8820034837       41.9148584774  TIP3      3043            0.0000000000
     31450      3236  TIP3      OH2           -31.3637295996      -11.1036744151       40.6303069776  TIP3      3044            0.0000000000
     31451      3236  TIP3      H1            -31.9237621411      -11.4082202995       39.8887792062  TIP3      3044            0.0000000000
     31452      3236  TIP3      H2            -30.5750947656      -10.8178173574       40.1435873906  TIP3      3044            0.0000000000
     31453      3237  TIP3      OH2           -24.1854868644      -13.6694346581       40.6980960455  TIP3      3045            0.0000000000
     31454      3237  TIP3      H1            -25.1429288619      -13.5323080911       40.5874456514  TIP3      3045            0.0000000000
     31455      3237  TIP3      H2            -23.8757350464      -12.8329398412       41.0973914938  TIP3      3045            0.0000000000
     31456      3238  TIP3      OH2           -23.4499386488      -11.7523157367       42.3743377981  TIP3      3046            0.0000000000
     31457      3238  TIP3      H1            -22.5276080682      -11.8556706095       42.6385124454  TIP3      3046            0.0000000000
     31458      3238  TIP3      H2            -23.4251119995      -10.9539151566       41.8064684890  TIP3      3046            0.0000000000
     31459      3239  TIP3      OH2           -25.9174729238       -5.0598695379       41.5716245205  TIP3      3047            0.0000000000
     31460      3239  TIP3      H1            -26.2667024432       -4.2158188496       41.8827789151  TIP3      3047            0.0000000000
     31461      3239  TIP3      H2            -26.6330032647       -5.6687958924       41.7871374748  TIP3      3047            0.0000000000
     31462      3240  TIP3      OH2           -18.4271718407      -11.5688186460       41.9971642786  TIP3      3048            0.0000000000
     31463      3240  TIP3      H1            -19.0421859441      -11.9166371576       41.3120603325  TIP3      3048            0.0000000000
     31464      3240  TIP3      H2            -18.4285914862      -10.6236578212       41.7494497210  TIP3      3048            0.0000000000
     31465      3241  TIP3      OH2           -34.8737944050       -8.7936632633       40.2794571792  TIP3      3049            0.0000000000
     31466      3241  TIP3      H1            -34.2279092500       -8.1849920813       40.7260207417  TIP3      3049            0.0000000000
     31467      3241  TIP3      H2            -35.7018133615       -8.4264073623       40.5852359358  TIP3      3049            0.0000000000
     31468      3242  TIP3      OH2           -22.8098503961       -4.7878908172       40.3421815381  TIP3      3050            0.0000000000
     31469      3242  TIP3      H1            -22.5285319628       -5.0942009447       41.2069573034  TIP3      3050            0.0000000000
     31470      3242  TIP3      H2            -23.7772073723       -4.8779847718       40.4458262922  TIP3      3050            0.0000000000
     31471      3243  TIP3      OH2           -18.3248706563       -0.4430977384       40.4976321658  TIP3      3051            0.0000000000
     31472      3243  TIP3      H1            -17.6110601051        0.2156058735       40.5039901460  TIP3      3051            0.0000000000
     31473      3243  TIP3      H2            -19.0377255499        0.1594883984       40.8436355477  TIP3      3051            0.0000000000
     31474      3244  TIP3      OH2           -28.7385736879       -3.6482699425       38.8366551879  TIP3      3052            0.0000000000
     31475      3244  TIP3      H1            -28.6038621265       -4.4137287303       38.2507975425  TIP3      3052            0.0000000000
     31476      3244  TIP3      H2            -29.1083519271       -4.0935651918       39.6223125936  TIP3      3052            0.0000000000
     31477      3245  TIP3      OH2           -30.0234035494       -4.0908839025       41.3323346065  TIP3      3053            0.0000000000
     31478      3245  TIP3      H1            -29.6781142919       -4.6458358977       42.0588144128  TIP3      3053            0.0000000000
     31479      3245  TIP3      H2            -29.6053402009       -3.2474319595       41.5434219664  TIP3      3053            0.0000000000
     31480      3246  TIP3      OH2           -33.5719331972       -6.8978125958       41.6506973085  TIP3      3054            0.0000000000
     31481      3246  TIP3      H1            -34.0551959408       -6.5702609723       42.4018760741  TIP3      3054            0.0000000000
     31482      3246  TIP3      H2            -32.8991018696       -6.2041393702       41.5163959882  TIP3      3054            0.0000000000
     31483      3247  TIP3      OH2           -27.5180182538       -2.7476698345       41.2971508051  TIP3      3055            0.0000000000
     31484      3247  TIP3      H1            -28.0751602646       -2.1050520791       41.7820354001  TIP3      3055            0.0000000000
     31485      3247  TIP3      H2            -26.7506466135       -2.1467374934       41.1836188377  TIP3      3055            0.0000000000
     31486      3248  TIP3      OH2           -29.4911245348       -1.2872118832       42.0906008204  TIP3      3056            0.0000000000
     31487      3248  TIP3      H1            -29.4981422005       -0.5360586128       41.4222455216  TIP3      3056            0.0000000000
     31488      3248  TIP3      H2            -29.7303767135       -0.8311931158       42.9099338064  TIP3      3056            0.0000000000
     31489      3249  TIP3      OH2           -31.1840127728      -14.8498883962       41.4016698020  TIP3      3057            0.0000000000
     31490      3249  TIP3      H1            -31.4024003126      -14.0112765923       41.8192854727  TIP3      3057            0.0000000000
     31491      3249  TIP3      H2            -30.2936788958      -14.9823889113       41.7662031071  TIP3      3057            0.0000000000
     31492      3250  TIP3      OH2           -32.8293134267       -4.2546026536       40.6761113560  TIP3      3058            0.0000000000
     31493      3250  TIP3      H1            -32.1530007249       -3.6350191470       40.8949545414  TIP3      3058            0.0000000000
     31494      3250  TIP3      H2            -32.3280379016       -4.7528241602       39.9950553464  TIP3      3058            0.0000000000
     31495      3251  TIP3      OH2           -34.4054844175      -11.5728104455       39.7097175375  TIP3      3059            0.0000000000
     31496      3251  TIP3      H1            -34.4500180609      -10.6469657987       40.0044345428  TIP3      3059            0.0000000000
     31497      3251  TIP3      H2            -35.3375897027      -11.7860853418       39.5721382908  TIP3      3059            0.0000000000
     31498      3252  TIP3      OH2           -26.7135359267       -1.7737653341       38.9407299180  TIP3      3060            0.0000000000
     31499      3252  TIP3      H1            -27.3821961790       -2.4513661446       39.1918387219  TIP3      3060            0.0000000000
     31500      3252  TIP3      H2            -25.9886546456       -2.3699420493       38.6900246184  TIP3      3060            0.0000000000
     31501      3253  TIP3      OH2           -22.1579112675       -2.0725408164       39.0672093354  TIP3      3061            0.0000000000
     31502      3253  TIP3      H1            -21.8623821835       -2.7959209271       39.6462539516  TIP3      3061            0.0000000000
     31503      3253  TIP3      H2            -21.3493498093       -1.8450263782       38.5803607328  TIP3      3061            0.0000000000
     31504      3254  TIP3      OH2           -31.2507168537       -6.1061821174       39.0258613548  TIP3      3062            0.0000000000
     31505      3254  TIP3      H1            -31.0931984547       -6.8939986690       39.5671361938  TIP3      3062            0.0000000000
     31506      3254  TIP3      H2            -30.5282180233       -6.2194472357       38.3710586788  TIP3      3062            0.0000000000
     31507      3255  TIP3      OH2           -25.7805653998       -5.0154308536       38.7958036514  TIP3      3063            0.0000000000
     31508      3255  TIP3      H1            -26.0888582246       -4.9204733716       39.7090124119  TIP3      3063            0.0000000000
     31509      3255  TIP3      H2            -26.0187607443       -5.9590937534       38.6078473091  TIP3      3063            0.0000000000
     31510      3256  TIP3      OH2           -30.0621487200       -8.1236709741       41.3252314462  TIP3      3064            0.0000000000
     31511      3256  TIP3      H1            -30.5150805177       -8.6528855991       41.9983750178  TIP3      3064            0.0000000000
     31512      3256  TIP3      H2            -29.7467268839       -8.7955125200       40.6821262608  TIP3      3064            0.0000000000
     31513      3257  TIP3      OH2           -28.9945331356       -9.9006520222       39.5767976159  TIP3      3065            0.0000000000
     31514      3257  TIP3      H1            -29.1128328969       -9.9820438141       38.6052114637  TIP3      3065            0.0000000000
     31515      3257  TIP3      H2            -28.0178328921       -9.8187421554       39.6687474008  TIP3      3065            0.0000000000
     31516      3258  TIP3      OH2           -19.6548824697       -7.5218412737       39.0887952835  TIP3      3066            0.0000000000
     31517      3258  TIP3      H1            -19.8097367439       -7.9215051805       38.2075149717  TIP3      3066            0.0000000000
     31518      3258  TIP3      H2            -19.5585225027       -6.5700827211       38.8336844483  TIP3      3066            0.0000000000
     31519      3259  TIP3      OH2           -29.1180490028        0.8620267787       40.6778608990  TIP3      3067            0.0000000000
     31520      3259  TIP3      H1            -28.1404673380        0.9256841428       40.7194028382  TIP3      3067            0.0000000000
     31521      3259  TIP3      H2            -29.2877852512        1.4650633181       39.9378311333  TIP3      3067            0.0000000000
     31522      3260  TIP3      OH2           -35.4748202764       -4.5378276042       40.2096215035  TIP3      3068            0.0000000000
     31523      3260  TIP3      H1            -34.5109387017       -4.4900386283       40.3467277513  TIP3      3068            0.0000000000
     31524      3260  TIP3      H2            -35.4895433688       -5.1942524406       39.4876044615  TIP3      3068            0.0000000000
     31525      3261  TIP3      OH2           -18.4009821264       -8.7774971691       41.1438829946  TIP3      3069            0.0000000000
     31526      3261  TIP3      H1            -18.9240830194       -8.3677819406       40.4140184777  TIP3      3069            0.0000000000
     31527      3261  TIP3      H2            -18.4206921755       -8.1191496166       41.8673016066  TIP3      3069            0.0000000000
     31528      3262  TIP3      OH2           -20.0685970165      -11.4757901630       39.7812544281  TIP3      3070            0.0000000000
     31529      3262  TIP3      H1            -20.0115399054      -10.8410285457       39.0600016065  TIP3      3070            0.0000000000
     31530      3262  TIP3      H2            -20.2660799199      -12.3151278657       39.3107515762  TIP3      3070            0.0000000000
     31531      3263  TIP3      OH2           -20.8383135698      -14.0441779603       38.9162626905  TIP3      3071            0.0000000000
     31532      3263  TIP3      H1            -20.2392723601      -14.4715404301       39.5554525943  TIP3      3071            0.0000000000
     31533      3263  TIP3      H2            -21.6955462447      -14.4475720503       39.1214859295  TIP3      3071            0.0000000000
     31534      3264  TIP3      OH2           -18.7877717882      -15.1756381192       40.4399902946  TIP3      3072            0.0000000000
     31535      3264  TIP3      H1            -18.3514310539      -15.9223499840       39.9706382045  TIP3      3072            0.0000000000
     31536      3264  TIP3      H2            -18.0527463817      -14.5493994895       40.5588029686  TIP3      3072            0.0000000000
     31537      3265  TIP3      OH2           -34.7968806461      -17.0127006965       41.5921923698  TIP3      3073            0.0000000000
     31538      3265  TIP3      H1            -34.6244965056      -16.3631741660       40.9084108388  TIP3      3073            0.0000000000
     31539      3265  TIP3      H2            -35.6025436918      -16.7126526672       42.0352053074  TIP3      3073            0.0000000000
     31540      3266  TIP3      OH2           -33.3874624925      -15.1724625785       39.9530859655  TIP3      3074            0.0000000000
     31541      3266  TIP3      H1            -32.8702997722      -15.8416420703       39.4673578235  TIP3      3074            0.0000000000
     31542      3266  TIP3      H2            -32.7719168407      -14.9553104623       40.6817633925  TIP3      3074            0.0000000000
     31543      3267  TIP3      OH2           -26.4962823754        0.0500008112       40.8613975842  TIP3      3075            0.0000000000
     31544      3267  TIP3      H1            -25.5684628383        0.3246503706       40.7084152133  TIP3      3075            0.0000000000
     31545      3267  TIP3      H2            -26.6351343479       -0.4683668818       40.0403949279  TIP3      3075            0.0000000000
     31546      3268  TIP3      OH2           -33.5675434942       -0.2760399013       39.4735089576  TIP3      3076            0.0000000000
     31547      3268  TIP3      H1            -33.8111099680        0.0308350861       40.3662355707  TIP3      3076            0.0000000000
     31548      3268  TIP3      H2            -32.7491026032       -0.7841488748       39.5964521255  TIP3      3076            0.0000000000
     31549      3269  TIP3      OH2            -7.3549160391      -10.0099455265       40.1206429766  TIP3      3077            0.0000000000
     31550      3269  TIP3      H1             -6.6551852036       -9.9778911979       40.8105149912  TIP3      3077            0.0000000000
     31551      3269  TIP3      H2             -6.9901828553      -10.7206302766       39.5782911859  TIP3      3077            0.0000000000
     31552      3270  TIP3      OH2            -5.1056728819       -9.3070798695       41.6298936955  TIP3      3078            0.0000000000
     31553      3270  TIP3      H1             -4.7176433738       -9.0222338495       42.4887931848  TIP3      3078            0.0000000000
     31554      3270  TIP3      H2             -4.7605294658       -8.6684990299       40.9791571993  TIP3      3078            0.0000000000
     31555      3271  TIP3      OH2            -1.3419316353      -17.3769685610       41.7140828575  TIP3      3079            0.0000000000
     31556      3271  TIP3      H1             -2.2906590294      -17.3217421556       41.8678125109  TIP3      3079            0.0000000000
     31557      3271  TIP3      H2             -1.1483595814      -16.5485794234       41.2438116713  TIP3      3079            0.0000000000
     31558      3272  TIP3      OH2            -0.2027981110       -3.0366219138       39.9035666420  TIP3      3080            0.0000000000
     31559      3272  TIP3      H1             -0.0633879778       -2.1119338619       40.1764830440  TIP3      3080            0.0000000000
     31560      3272  TIP3      H2              0.7123275673       -3.3456048071       40.0152487909  TIP3      3080            0.0000000000
     31561      3273  TIP3      OH2            -4.7802373877       -0.2826706183       40.6854586873  TIP3      3081            0.0000000000
     31562      3273  TIP3      H1             -4.3627835497       -1.0240862392       40.1989306597  TIP3      3081            0.0000000000
     31563      3273  TIP3      H2             -4.7220047077       -0.5907595934       41.6036364097  TIP3      3081            0.0000000000
     31564      3274  TIP3      OH2            -3.5678973659       -8.1515211722       39.5490272044  TIP3      3082            0.0000000000
     31565      3274  TIP3      H1             -3.6602133596       -8.3160722352       38.5823261158  TIP3      3082            0.0000000000
     31566      3274  TIP3      H2             -2.7470857597       -7.6408069511       39.5754933889  TIP3      3082            0.0000000000
     31567      3275  TIP3      OH2            -8.0502349255      -14.2414750381       40.0723754315  TIP3      3083            0.0000000000
     31568      3275  TIP3      H1             -8.3224442113      -14.2178087890       40.9986209984  TIP3      3083            0.0000000000
     31569      3275  TIP3      H2             -8.3331199468      -15.1240223818       39.7824292095  TIP3      3083            0.0000000000
     31570      3276  TIP3      OH2           -11.2096668031      -13.8354741571       39.1969187471  TIP3      3084            0.0000000000
     31571      3276  TIP3      H1            -11.6838156718      -14.2356870683       39.9576235230  TIP3      3084            0.0000000000
     31572      3276  TIP3      H2            -11.9192941629      -13.4079141042       38.7079387158  TIP3      3084            0.0000000000
     31573      3277  TIP3      OH2           -16.7154344560      -13.4734562175       41.5567733065  TIP3      3085            0.0000000000
     31574      3277  TIP3      H1            -16.1419500546      -12.8109881495       41.1195326015  TIP3      3085            0.0000000000
     31575      3277  TIP3      H2            -17.3388123546      -12.8426058242       41.9701712299  TIP3      3085            0.0000000000
     31576      3278  TIP3      OH2           -12.5019054744      -11.1115445529       40.6321853668  TIP3      3086            0.0000000000
     31577      3278  TIP3      H1            -13.0710914951      -11.4045153743       39.8964439607  TIP3      3086            0.0000000000
     31578      3278  TIP3      H2            -11.7212543628      -10.8197480702       40.1376290932  TIP3      3086            0.0000000000
     31579      3279  TIP3      OH2            -5.3320814721      -13.6537231902       40.6785833683  TIP3      3087            0.0000000000
     31580      3279  TIP3      H1             -6.2909803525      -13.5235600010       40.6122672456  TIP3      3087            0.0000000000
     31581      3279  TIP3      H2             -5.0179922499      -12.8417338580       41.1307785485  TIP3      3087            0.0000000000
     31582      3280  TIP3      OH2            -4.6091493135      -11.7527771337       42.3509785118  TIP3      3088            0.0000000000
     31583      3280  TIP3      H1             -3.7072295009      -11.8809419547       42.6799411909  TIP3      3088            0.0000000000
     31584      3280  TIP3      H2             -4.5481498146      -10.9424924261       41.8126867578  TIP3      3088            0.0000000000
     31585      3281  TIP3      OH2            -7.0809407803       -5.0370364719       41.5580572900  TIP3      3089            0.0000000000
     31586      3281  TIP3      H1             -7.4428107340       -4.2006282990       41.8848834864  TIP3      3089            0.0000000000
     31587      3281  TIP3      H2             -7.7825544037       -5.6597833475       41.7822377448  TIP3      3089            0.0000000000
     31588      3282  TIP3      OH2             0.4436801974      -11.5528168649       41.9859489850  TIP3      3090            0.0000000000
     31589      3282  TIP3      H1             -0.1987085138      -11.9143775257       41.3336027914  TIP3      3090            0.0000000000
     31590      3282  TIP3      H2              0.4270811116      -10.6071488966       41.7386291170  TIP3      3090            0.0000000000
     31591      3283  TIP3      OH2           -15.9315026463       -8.7663750096       40.2255081234  TIP3      3091            0.0000000000
     31592      3283  TIP3      H1            -15.3424627425       -8.1706449501       40.7457718697  TIP3      3091            0.0000000000
     31593      3283  TIP3      H2            -16.8128328560       -8.5035919095       40.5455301432  TIP3      3091            0.0000000000
     31594      3284  TIP3      OH2            -3.9507404201       -4.7845127524       40.3399934816  TIP3      3092            0.0000000000
     31595      3284  TIP3      H1             -3.6683062372       -5.0941783093       41.2040321640  TIP3      3092            0.0000000000
     31596      3284  TIP3      H2             -4.9157373024       -4.8769178251       40.4409271276  TIP3      3092            0.0000000000
     31597      3285  TIP3      OH2             0.4388240120       -0.3586084327       40.5602708864  TIP3      3093            0.0000000000
     31598      3285  TIP3      H1              1.2090813064        0.2378528557       40.5232732587  TIP3      3093            0.0000000000
     31599      3285  TIP3      H2             -0.2334083080        0.2655227517       40.8990690022  TIP3      3093            0.0000000000
     31600      3286  TIP3      OH2            -9.8578144857       -3.6595488269       38.8220196118  TIP3      3094            0.0000000000
     31601      3286  TIP3      H1             -9.7582710887       -4.4405089948       38.2605304871  TIP3      3094            0.0000000000
     31602      3286  TIP3      H2            -10.2602489876       -4.0593424439       39.6286330360  TIP3      3094            0.0000000000
     31603      3287  TIP3      OH2           -11.0554862567       -4.1666961819       41.2643935087  TIP3      3095            0.0000000000
     31604      3287  TIP3      H1            -10.8550704818       -4.6125188627       42.0995572393  TIP3      3095            0.0000000000
     31605      3287  TIP3      H2            -10.9418411124       -3.2415937764       41.5665371153  TIP3      3095            0.0000000000
     31606      3288  TIP3      OH2           -14.7046115381       -6.8596718311       41.6564546670  TIP3      3096            0.0000000000
     31607      3288  TIP3      H1            -15.2281296700       -6.5456339972       42.3895668499  TIP3      3096            0.0000000000
     31608      3288  TIP3      H2            -14.0136412105       -6.1732228450       41.5411413110  TIP3      3096            0.0000000000
     31609      3289  TIP3      OH2            -8.6679989352       -2.7074070875       41.3006210883  TIP3      3097            0.0000000000
     31610      3289  TIP3      H1             -9.2788567046       -2.1151807486       41.7898563023  TIP3      3097            0.0000000000
     31611      3289  TIP3      H2             -7.9132187886       -2.1000415419       41.1990486457  TIP3      3097            0.0000000000
     31612      3290  TIP3      OH2           -10.8503572746       -1.4304974530       42.0846223466  TIP3      3098            0.0000000000
     31613      3290  TIP3      H1            -10.8137846072       -0.6659657852       41.4546803074  TIP3      3098            0.0000000000
     31614      3290  TIP3      H2            -11.1286407587       -1.0020740466       42.9012006786  TIP3      3098            0.0000000000
     31615      3291  TIP3      OH2           -12.3496804944      -14.8477889013       41.4068196362  TIP3      3099            0.0000000000
     31616      3291  TIP3      H1            -12.5270579869      -13.9910295152       41.8053971641  TIP3      3099            0.0000000000
     31617      3291  TIP3      H2            -11.4535287286      -14.9903046189       41.7602345646  TIP3      3099            0.0000000000
     31618      3292  TIP3      OH2           -13.9952638178       -4.2419057401       40.6547436798  TIP3      3100            0.0000000000
     31619      3292  TIP3      H1            -13.3405863521       -3.6084381757       40.9717924478  TIP3      3100            0.0000000000
     31620      3292  TIP3      H2            -13.4432804525       -4.7199729467       40.0082312674  TIP3      3100            0.0000000000
     31621      3293  TIP3      OH2           -15.6560175518      -11.5769117098       39.8090861696  TIP3      3101            0.0000000000
     31622      3293  TIP3      H1            -15.6560531932      -10.6154474726       40.0044822098  TIP3      3101            0.0000000000
     31623      3293  TIP3      H2            -16.5468764290      -11.7705448040       39.5155495770  TIP3      3101            0.0000000000
     31624      3294  TIP3      OH2            -7.8380584122       -1.7720882707       38.9372696851  TIP3      3102            0.0000000000
     31625      3294  TIP3      H1             -8.5260787133       -2.4340403889       39.1996229600  TIP3      3102            0.0000000000
     31626      3294  TIP3      H2             -7.1281832948       -2.3842613390       38.6862269565  TIP3      3102            0.0000000000
     31627      3295  TIP3      OH2            -3.2950576689       -2.0543049943       39.0854371761  TIP3      3103            0.0000000000
     31628      3295  TIP3      H1             -3.0050944553       -2.7917718015       39.6493015536  TIP3      3103            0.0000000000
     31629      3295  TIP3      H2             -2.4936613945       -1.8446637895       38.5806468285  TIP3      3103            0.0000000000
     31630      3296  TIP3      OH2           -12.4054442747       -6.1432635069       38.9841864683  TIP3      3104            0.0000000000
     31631      3296  TIP3      H1            -12.2321627122       -6.8872119112       39.5761082626  TIP3      3104            0.0000000000
     31632      3296  TIP3      H2            -11.6468920791       -6.2209454544       38.3747291775  TIP3      3104            0.0000000000
     31633      3297  TIP3      OH2            -6.9191955845       -5.0187281568       38.7950135155  TIP3      3105            0.0000000000
     31634      3297  TIP3      H1             -7.2167603389       -4.9298252635       39.7135553791  TIP3      3105            0.0000000000
     31635      3297  TIP3      H2             -7.1642467778       -5.9594810469       38.6058979658  TIP3      3105            0.0000000000
     31636      3298  TIP3      OH2           -11.2069049033       -8.1265321752       41.3264310336  TIP3      3106            0.0000000000
     31637      3298  TIP3      H1            -11.6619533959       -8.6500173646       42.0021686637  TIP3      3106            0.0000000000
     31638      3298  TIP3      H2            -10.9052512276       -8.8020798566       40.6849394238  TIP3      3106            0.0000000000
     31639      3299  TIP3      OH2           -10.1206702501       -9.9061657600       39.5739067709  TIP3      3107            0.0000000000
     31640      3299  TIP3      H1            -10.2530384803       -9.9769140108       38.6028197734  TIP3      3107            0.0000000000
     31641      3299  TIP3      H2             -9.1464598505       -9.8188332212       39.6641859040  TIP3      3107            0.0000000000
     31642      3300  TIP3      OH2            -0.7935286110       -7.5168811524       39.0756730527  TIP3      3108            0.0000000000
     31643      3300  TIP3      H1             -0.9535173697       -7.9156524398       38.2069409869  TIP3      3108            0.0000000000
     31644      3300  TIP3      H2             -0.6985973404       -6.5586723716       38.8463720984  TIP3      3108            0.0000000000
     31645      3301  TIP3      OH2           -10.2669023004        0.8363661249       40.7074292467  TIP3      3109            0.0000000000
     31646      3301  TIP3      H1             -9.2911763676        0.9027150185       40.7402813269  TIP3      3109            0.0000000000
     31647      3301  TIP3      H2            -10.4359521146        1.4225418183       39.9546504736  TIP3      3109            0.0000000000
     31648      3302  TIP3      OH2           -16.7417433740       -4.6007492941       40.1480525020  TIP3      3110            0.0000000000
     31649      3302  TIP3      H1            -15.7838755593       -4.4957700701       40.3459529419  TIP3      3110            0.0000000000
     31650      3302  TIP3      H2            -16.6774824294       -5.2622759689       39.4274465983  TIP3      3110            0.0000000000
     31651      3303  TIP3      OH2             0.4552121588       -8.7821689839       41.1453076531  TIP3      3111            0.0000000000
     31652      3303  TIP3      H1             -0.0615640851       -8.3710796659       40.4095301532  TIP3      3111            0.0000000000
     31653      3303  TIP3      H2              0.4350016740       -8.1197403684       41.8664894157  TIP3      3111            0.0000000000
     31654      3304  TIP3      OH2            -1.2214086162      -11.4828308901       39.7958433636  TIP3      3112            0.0000000000
     31655      3304  TIP3      H1             -1.1482653438      -10.8437083858       39.0829265052  TIP3      3112            0.0000000000
     31656      3304  TIP3      H2             -1.4101029884      -12.3187499959       39.3124928707  TIP3      3112            0.0000000000
     31657      3305  TIP3      OH2            -1.9821723589      -14.0412001400       38.9202895243  TIP3      3113            0.0000000000
     31658      3305  TIP3      H1             -1.3835797226      -14.4717183593       39.5583524837  TIP3      3113            0.0000000000
     31659      3305  TIP3      H2             -2.8378778530      -14.4487562355       39.1241805180  TIP3      3113            0.0000000000
     31660      3306  TIP3      OH2             0.0704789026      -15.1874371442       40.4616658702  TIP3      3114            0.0000000000
     31661      3306  TIP3      H1              0.5016122545      -15.9237237406       39.9715394592  TIP3      3114            0.0000000000
     31662      3306  TIP3      H2              0.7998051735      -14.5497203640       40.5549257725  TIP3      3114            0.0000000000
     31663      3307  TIP3      OH2           -16.3300125708      -17.1351616889       41.4894183805  TIP3      3115            0.0000000000
     31664      3307  TIP3      H1            -15.8519916588      -16.4761542677       40.9691639183  TIP3      3115            0.0000000000
     31665      3307  TIP3      H2            -16.9099929737      -16.5639724863       41.9926491132  TIP3      3115            0.0000000000
     31666      3308  TIP3      OH2           -14.5360069803      -15.1955847352       39.9779086480  TIP3      3116            0.0000000000
     31667      3308  TIP3      H1            -14.0281752626      -15.8407568335       39.4534775947  TIP3      3116            0.0000000000
     31668      3308  TIP3      H2            -13.8835296776      -14.9469484675       40.6645711258  TIP3      3116            0.0000000000
     31669      3309  TIP3      OH2            -7.6082094587        0.0585648708       40.8740151301  TIP3      3117            0.0000000000
     31670      3309  TIP3      H1             -6.6960620938        0.3231857748       40.6768560871  TIP3      3117            0.0000000000
     31671      3309  TIP3      H2             -7.7939786656       -0.4589275466       40.0597282776  TIP3      3117            0.0000000000
     31672      3310  TIP3      OH2           -14.6290140998       -0.2280812545       39.4574622707  TIP3      3118            0.0000000000
     31673      3310  TIP3      H1            -14.9199055460        0.0074441895       40.3554461620  TIP3      3118            0.0000000000
     31674      3310  TIP3      H2            -13.8773013683       -0.8294950813       39.6145707931  TIP3      3118            0.0000000000
     31675      3311  TIP3      OH2            11.4896642361      -10.0112716047       40.1195931855  TIP3      3119            0.0000000000
     31676      3311  TIP3      H1             12.1775117455       -9.9939342978       40.8194887368  TIP3      3119            0.0000000000
     31677      3311  TIP3      H2             11.8663289184      -10.7103436239       39.5762445891  TIP3      3119            0.0000000000
     31678      3312  TIP3      OH2            13.7703249309       -9.3017084264       41.6143171513  TIP3      3120            0.0000000000
     31679      3312  TIP3      H1             14.1221539194       -9.0366940999       42.4970930359  TIP3      3120            0.0000000000
     31680      3312  TIP3      H2             14.0623236605       -8.6331845418       40.9713813176  TIP3      3120            0.0000000000
     31681      3313  TIP3      OH2            17.5204357313      -17.3813632023       41.7027925050  TIP3      3121            0.0000000000
     31682      3313  TIP3      H1             16.5709893316      -17.3226082676       41.8711096303  TIP3      3121            0.0000000000
     31683      3313  TIP3      H2             17.7079353491      -16.5478128616       41.2420804324  TIP3      3121            0.0000000000
     31684      3314  TIP3      OH2            18.6770244714       -3.0684342958       39.9228618174  TIP3      3122            0.0000000000
     31685      3314  TIP3      H1             18.7681584231       -2.1268641197       40.1700246502  TIP3      3122            0.0000000000
     31686      3314  TIP3      H2             19.6091010541       -3.3208587326       40.0151938235  TIP3      3122            0.0000000000
     31687      3315  TIP3      OH2            14.1284795758       -0.2414599034       40.6864169192  TIP3      3123            0.0000000000
     31688      3315  TIP3      H1             14.4139175902       -1.0523197505       40.1948023829  TIP3      3123            0.0000000000
     31689      3315  TIP3      H2             14.1230989071       -0.6018492666       41.5876433775  TIP3      3123            0.0000000000
     31690      3316  TIP3      OH2            15.3343013128       -8.1661400651       39.5574313740  TIP3      3124            0.0000000000
     31691      3316  TIP3      H1             15.1231212535       -8.3533035741       38.5964276363  TIP3      3124            0.0000000000
     31692      3316  TIP3      H2             16.0593422675       -7.5936849759       39.3705612752  TIP3      3124            0.0000000000
     31693      3317  TIP3      OH2            10.8071946981      -14.2415252898       40.0741290432  TIP3      3125            0.0000000000
     31694      3317  TIP3      H1             10.5301992249      -14.2163527587       40.9981416990  TIP3      3125            0.0000000000
     31695      3317  TIP3      H2             10.5231075028      -15.1234477852       39.7838174009  TIP3      3125            0.0000000000
     31696      3318  TIP3      OH2             7.6450790421      -13.8332429245       39.1985837945  TIP3      3126            0.0000000000
     31697      3318  TIP3      H1              7.1660224345      -14.2316464127       39.9546241873  TIP3      3126            0.0000000000
     31698      3318  TIP3      H2              6.9422657148      -13.4080024976       38.6865287403  TIP3      3126            0.0000000000
     31699      3319  TIP3      OH2             2.1350783052      -13.4729183623       41.5476697921  TIP3      3127            0.0000000000
     31700      3319  TIP3      H1              2.7148304843      -12.8089767840       41.1173807443  TIP3      3127            0.0000000000
     31701      3319  TIP3      H2              1.5173595723      -12.8424645016       41.9675240714  TIP3      3127            0.0000000000
     31702      3320  TIP3      OH2             6.3546587186      -11.1092030864       40.6338055641  TIP3      3128            0.0000000000
     31703      3320  TIP3      H1              5.7873743351      -11.4053434526       39.8977767234  TIP3      3128            0.0000000000
     31704      3320  TIP3      H2              7.1363438365      -10.8207015646       40.1379938250  TIP3      3128            0.0000000000
     31705      3321  TIP3      OH2            13.5243672465      -13.6532327405       40.6731935183  TIP3      3129            0.0000000000
     31706      3321  TIP3      H1             12.5630455127      -13.5303790831       40.6120754621  TIP3      3129            0.0000000000
     31707      3321  TIP3      H2             13.8402018068      -12.8441529667       41.1277458547  TIP3      3129            0.0000000000
     31708      3322  TIP3      OH2            14.2396293423      -11.7450343982       42.3569921372  TIP3      3130            0.0000000000
     31709      3322  TIP3      H1             15.1416596980      -11.8962469418       42.6809797454  TIP3      3130            0.0000000000
     31710      3322  TIP3      H2             14.3048060062      -10.9483095134       41.8036725630  TIP3      3130            0.0000000000
     31711      3323  TIP3      OH2            11.7822628282       -5.1756599990       41.7480020093  TIP3      3131            0.0000000000
     31712      3323  TIP3      H1             11.4714915335       -4.2497103536       41.8016530122  TIP3      3131            0.0000000000
     31713      3323  TIP3      H2             10.9868167796       -5.6871154929       41.7811640962  TIP3      3131            0.0000000000
     31714      3324  TIP3      OH2            19.3040376167      -11.5592480671       41.9937964522  TIP3      3132            0.0000000000
     31715      3324  TIP3      H1             18.6736113381      -11.9395954125       41.3377224567  TIP3      3132            0.0000000000
     31716      3324  TIP3      H2             19.2934417696      -10.6218671004       41.7325080986  TIP3      3132            0.0000000000
     31717      3325  TIP3      OH2             2.9268344002       -8.7640780323       40.2267710170  TIP3      3133            0.0000000000
     31718      3325  TIP3      H1              3.5176612504       -8.1732349699       40.7524412787  TIP3      3133            0.0000000000
     31719      3325  TIP3      H2              2.0448233661       -8.5030347457       40.5458644563  TIP3      3133            0.0000000000
     31720      3326  TIP3      OH2            15.0632390381       -5.2143040810       40.4333376892  TIP3      3134            0.0000000000
     31721      3326  TIP3      H1             15.1207465467       -5.0655281486       41.3835712022  TIP3      3134            0.0000000000
     31722      3326  TIP3      H2             14.1443539139       -4.7970592342       40.3546247704  TIP3      3134            0.0000000000
     31723      3327  TIP3      OH2            19.2891199268       -0.3529888746       40.5605586492  TIP3      3135            0.0000000000
     31724      3327  TIP3      H1             20.0585395651        0.2404091186       40.5238171318  TIP3      3135            0.0000000000
     31725      3327  TIP3      H2             18.6197947331        0.2686395202       40.8992755816  TIP3      3135            0.0000000000
     31726      3328  TIP3      OH2             8.9059802834       -3.6375973608       38.7796928590  TIP3      3136            0.0000000000
     31727      3328  TIP3      H1              9.1716284136       -4.4286199549       38.2812242328  TIP3      3136            0.0000000000
     31728      3328  TIP3      H2              8.6268185166       -4.0577011017       39.6231410192  TIP3      3136            0.0000000000
     31729      3329  TIP3      OH2             7.7454517181       -4.1626633793       41.2859261674  TIP3      3137            0.0000000000
     31730      3329  TIP3      H1              8.0263706441       -4.6088772087       42.0916340015  TIP3      3137            0.0000000000
     31731      3329  TIP3      H2              7.9344292331       -3.2412569626       41.5536232311  TIP3      3137            0.0000000000
     31732      3330  TIP3      OH2             4.1544722658       -6.8562960404       41.6550478515  TIP3      3138            0.0000000000
     31733      3330  TIP3      H1              3.6265913275       -6.5493533947       42.3886626531  TIP3      3138            0.0000000000
     31734      3330  TIP3      H2              4.8430051295       -6.1707619094       41.5424036416  TIP3      3138            0.0000000000
     31735      3331  TIP3      OH2            10.1372935867       -2.6988668438       41.2998364068  TIP3      3139            0.0000000000
     31736      3331  TIP3      H1              9.5857884858       -2.0771720474       41.8132910716  TIP3      3139            0.0000000000
     31737      3331  TIP3      H2             10.9560562736       -2.1756165320       41.1713185031  TIP3      3139            0.0000000000
     31738      3332  TIP3      OH2             7.9572053693       -1.4261911452       42.0885447433  TIP3      3140            0.0000000000
     31739      3332  TIP3      H1              8.0587134677       -0.6730182684       41.4532407967  TIP3      3140            0.0000000000
     31740      3332  TIP3      H2              7.7212347690       -0.9871160621       42.9100201828  TIP3      3140            0.0000000000
     31741      3333  TIP3      OH2             6.5065163469      -14.8481915121       41.4065461445  TIP3      3141            0.0000000000
     31742      3333  TIP3      H1              6.3269547161      -13.9929728771       41.8037239838  TIP3      3141            0.0000000000
     31743      3333  TIP3      H2              7.4024349836      -14.9905986111       41.7596789950  TIP3      3141            0.0000000000
     31744      3334  TIP3      OH2             4.8605789425       -4.2370821815       40.6542685636  TIP3      3142            0.0000000000
     31745      3334  TIP3      H1              5.5370709521       -3.6258243171       40.9747548276  TIP3      3142            0.0000000000
     31746      3334  TIP3      H2              5.4023803526       -4.7197340266       40.0033540310  TIP3      3142            0.0000000000
     31747      3335  TIP3      OH2             3.2078278389      -11.5690558440       39.8103478428  TIP3      3143            0.0000000000
     31748      3335  TIP3      H1              3.1917533708      -10.6120156545       40.0140604413  TIP3      3143            0.0000000000
     31749      3335  TIP3      H2              2.3151787740      -11.7680988259       39.5240697134  TIP3      3143            0.0000000000
     31750      3336  TIP3      OH2            10.8414115101       -1.6870953644       38.8240317833  TIP3      3144            0.0000000000
     31751      3336  TIP3      H1             10.2924778965       -2.4111498812       39.2086602284  TIP3      3144            0.0000000000
     31752      3336  TIP3      H2             11.6565079112       -2.2448108080       38.7993004523  TIP3      3144            0.0000000000
     31753      3337  TIP3      OH2            15.6933815422       -1.9229224018       39.1275836235  TIP3      3145            0.0000000000
     31754      3337  TIP3      H1             15.8025706998       -2.7525099037       39.6199860980  TIP3      3145            0.0000000000
     31755      3337  TIP3      H2             16.4473497661       -1.8501685882       38.5350406731  TIP3      3145            0.0000000000
     31756      3338  TIP3      OH2             6.4500059017       -6.1375925663       38.9927964692  TIP3      3146            0.0000000000
     31757      3338  TIP3      H1              6.6273571897       -6.8860655501       39.5772713457  TIP3      3146            0.0000000000
     31758      3338  TIP3      H2              7.2108719361       -6.2143922199       38.3800614057  TIP3      3146            0.0000000000
     31759      3339  TIP3      OH2            11.3161345640       -5.2613455107       38.6645895793  TIP3      3147            0.0000000000
     31760      3339  TIP3      H1             11.6667642066       -4.9290345192       39.5164921150  TIP3      3147            0.0000000000
     31761      3339  TIP3      H2             11.6307487464       -6.1876610441       38.6413525617  TIP3      3147            0.0000000000
     31762      3340  TIP3      OH2             7.6505930416       -8.1285469859       41.3293300540  TIP3      3148            0.0000000000
     31763      3340  TIP3      H1              7.1926669213       -8.6524118977       42.0028067669  TIP3      3148            0.0000000000
     31764      3340  TIP3      H2              7.9500985894       -8.8015167366       40.6843668283  TIP3      3148            0.0000000000
     31765      3341  TIP3      OH2             8.7342455219       -9.9128378302       39.5786732035  TIP3      3149            0.0000000000
     31766      3341  TIP3      H1              8.6022125721       -9.9775928494       38.6068159649  TIP3      3149            0.0000000000
     31767      3341  TIP3      H2              9.7079500012       -9.8164577755       39.6652049012  TIP3      3149            0.0000000000
     31768      3342  TIP3      OH2            18.1314919238       -7.5294058817       38.9844750547  TIP3      3150            0.0000000000
     31769      3342  TIP3      H1             17.9332337157       -7.9410716825       38.1036048899  TIP3      3150            0.0000000000
     31770      3342  TIP3      H2             18.2170758905       -6.5842210281       38.6842411650  TIP3      3150            0.0000000000
     31771      3343  TIP3      OH2             8.5954977425        0.8335893310       40.7107737331  TIP3      3151            0.0000000000
     31772      3343  TIP3      H1              9.5760608119        0.8783946771       40.7294427801  TIP3      3151            0.0000000000
     31773      3343  TIP3      H2              8.4244804528        1.4198961288       39.9572599201  TIP3      3151            0.0000000000
     31774      3344  TIP3      OH2             2.1190547446       -4.5981255012       40.1497248281  TIP3      3152            0.0000000000
     31775      3344  TIP3      H1              3.0759974534       -4.4898329003       40.3495930666  TIP3      3152            0.0000000000
     31776      3344  TIP3      H2              2.1933550992       -5.2606836678       39.4314134689  TIP3      3152            0.0000000000
     31777      3345  TIP3      OH2            19.2372507155       -8.7914247395       41.1877669255  TIP3      3153            0.0000000000
     31778      3345  TIP3      H1             18.9349583768       -8.3822226537       40.3439941122  TIP3      3153            0.0000000000
     31779      3345  TIP3      H2             19.4041820531       -8.1021012160       41.8586810018  TIP3      3153            0.0000000000
     31780      3346  TIP3      OH2            17.6192774863      -11.4466265889       39.7665665846  TIP3      3154            0.0000000000
     31781      3346  TIP3      H1             17.7114801515      -10.8622264482       39.0133033924  TIP3      3154            0.0000000000
     31782      3346  TIP3      H2             17.4490991654      -12.3145995594       39.3281754741  TIP3      3154            0.0000000000
     31783      3347  TIP3      OH2            16.8756923809      -14.0389484291       38.9234392143  TIP3      3155            0.0000000000
     31784      3347  TIP3      H1             17.4728061044      -14.4733969344       39.5592215600  TIP3      3155            0.0000000000
     31785      3347  TIP3      H2             16.0188627707      -14.4475435716       39.1226312342  TIP3      3155            0.0000000000
     31786      3348  TIP3      OH2            18.9285625461      -15.1853494161       40.4553162601  TIP3      3156            0.0000000000
     31787      3348  TIP3      H1             19.3587847372      -15.9236514927       39.9708737615  TIP3      3156            0.0000000000
     31788      3348  TIP3      H2             19.6584625194      -14.5494508865       40.5540772855  TIP3      3156            0.0000000000
     31789      3349  TIP3      OH2             2.5232065135      -17.1331169653       41.4960663423  TIP3      3157            0.0000000000
     31790      3349  TIP3      H1              3.0029294364      -16.4787649987       40.9717150485  TIP3      3157            0.0000000000
     31791      3349  TIP3      H2              1.9429019190      -16.5569401823       41.9922604312  TIP3      3157            0.0000000000
     31792      3350  TIP3      OH2             4.3237884051      -15.2006208435       39.9724509512  TIP3      3158            0.0000000000
     31793      3350  TIP3      H1              4.8286235393      -15.8541232564       39.4520729195  TIP3      3158            0.0000000000
     31794      3350  TIP3      H2              4.9734309940      -14.9500577460       40.6616267599  TIP3      3158            0.0000000000
     31795      3351  TIP3      OH2            11.2290513832        0.1068083589       40.8577236260  TIP3      3159            0.0000000000
     31796      3351  TIP3      H1             12.1576955444        0.3282932591       40.6834622468  TIP3      3159            0.0000000000
     31797      3351  TIP3      H2             11.0633221008       -0.4614967816       40.0712294443  TIP3      3159            0.0000000000
     31798      3352  TIP3      OH2             4.2031399625       -0.2349479824       39.4662989088  TIP3      3160            0.0000000000
     31799      3352  TIP3      H1              3.9342619387        0.0099573595       40.3670659593  TIP3      3160            0.0000000000
     31800      3352  TIP3      H2              4.9770671851       -0.8194414982       39.6099148518  TIP3      3160            0.0000000000
     31801      3353  TIP3      OH2            30.3490726934      -10.0123964433       40.1143206335  TIP3      3161            0.0000000000
     31802      3353  TIP3      H1             31.0436434909       -9.9720709343       40.8064763211  TIP3      3161            0.0000000000
     31803      3353  TIP3      H2             30.7256072560      -10.7204709701       39.5765952645  TIP3      3161            0.0000000000
     31804      3354  TIP3      OH2            32.5968330636       -9.2935087464       41.6351462437  TIP3      3162            0.0000000000
     31805      3354  TIP3      H1             33.0074902879       -9.0142575642       42.4824864948  TIP3      3162            0.0000000000
     31806      3354  TIP3      H2             32.9735349451       -8.6946553455       40.9619237077  TIP3      3162            0.0000000000
     31807      3355  TIP3      OH2            36.0434940745      -17.4452201390       41.5272870335  TIP3      3163            0.0000000000
     31808      3355  TIP3      H1             35.2348459477      -17.1981859549       41.9670828012  TIP3      3163            0.0000000000
     31809      3355  TIP3      H2             36.4106519634      -16.6286389117       41.1886488436  TIP3      3163            0.0000000000
     31810      3356  TIP3      OH2            33.7472666572       -0.1063684885       40.3840097760  TIP3      3164            0.0000000000
     31811      3356  TIP3      H1             33.4529097918       -0.9851954713       40.0518437110  TIP3      3164            0.0000000000
     31812      3356  TIP3      H2             33.3035361928       -0.2760369866       41.2592341591  TIP3      3164            0.0000000000
     31813      3357  TIP3      OH2            34.1615794732       -8.1929548385       39.5594045866  TIP3      3165            0.0000000000
     31814      3357  TIP3      H1             34.0741192916       -8.3393674587       38.5837498392  TIP3      3165            0.0000000000
     31815      3357  TIP3      H2             34.9478629820       -7.6461402701       39.5843180610  TIP3      3165            0.0000000000
     31816      3358  TIP3      OH2            29.6625437841      -14.2424603060       40.0736374059  TIP3      3166            0.0000000000
     31817      3358  TIP3      H1             29.3863856721      -14.2159092805       40.9981244324  TIP3      3166            0.0000000000
     31818      3358  TIP3      H2             29.3784545806      -15.1246768205       39.7848857668  TIP3      3166            0.0000000000
     31819      3359  TIP3      OH2            26.5017642212      -13.8342774515       39.1987958459  TIP3      3167            0.0000000000
     31820      3359  TIP3      H1             26.0216688108      -14.2317465231       39.9545582467  TIP3      3167            0.0000000000
     31821      3359  TIP3      H2             25.7991578701      -13.4079601335       38.6867412335  TIP3      3167            0.0000000000
     31822      3360  TIP3      OH2            21.0047768105      -13.4786698785       41.5692236859  TIP3      3168            0.0000000000
     31823      3360  TIP3      H1             21.5686959230      -12.8141468440       41.1237120855  TIP3      3168            0.0000000000
     31824      3360  TIP3      H2             20.3748067070      -12.8490779647       41.9712873753  TIP3      3168            0.0000000000
     31825      3361  TIP3      OH2            25.2102918735      -11.1077641230       40.6338498770  TIP3      3169            0.0000000000
     31826      3361  TIP3      H1             24.6430709203      -11.4055937815       39.8980974810  TIP3      3169            0.0000000000
     31827      3361  TIP3      H2             25.9917626844      -10.8199192609       40.1372748542  TIP3      3169            0.0000000000
     31828      3362  TIP3      OH2            32.3620793450      -13.6568521981       40.6674057512  TIP3      3170            0.0000000000
     31829      3362  TIP3      H1             31.4000897899      -13.5425585443       40.5881417482  TIP3      3170            0.0000000000
     31830      3362  TIP3      H2             32.6495585946      -12.8405419383       41.1287495758  TIP3      3170            0.0000000000
     31831      3363  TIP3      OH2            33.1140400321      -11.7469271689       42.3381353227  TIP3      3171            0.0000000000
     31832      3363  TIP3      H1             34.0126022674      -11.8784665234       42.6438485970  TIP3      3171            0.0000000000
     31833      3363  TIP3      H2             33.1328439640      -10.9338378991       41.8038714247  TIP3      3171            0.0000000000
     31834      3364  TIP3      OH2            30.6314608422       -5.0361829862       41.5685584966  TIP3      3172            0.0000000000
     31835      3364  TIP3      H1             30.2970343852       -4.1774436065       41.8766875682  TIP3      3172            0.0000000000
     31836      3364  TIP3      H2             29.9209557473       -5.6418657771       41.8005593534  TIP3      3172            0.0000000000
     31837      3365  TIP3      OH2            21.7675211176       -8.7769446446       40.2322084727  TIP3      3173            0.0000000000
     31838      3365  TIP3      H1             22.3777797422       -8.1810832912       40.7287942265  TIP3      3173            0.0000000000
     31839      3365  TIP3      H2             20.9071415781       -8.4956132758       40.5551655064  TIP3      3173            0.0000000000
     31840      3366  TIP3      OH2            33.7440138619       -4.8704621730       40.3325188623  TIP3      3174            0.0000000000
     31841      3366  TIP3      H1             33.9864594545       -5.0737803098       41.2360914999  TIP3      3174            0.0000000000
     31842      3366  TIP3      H2             32.7749655663       -4.8983218549       40.4153235599  TIP3      3174            0.0000000000
     31843      3367  TIP3      OH2            27.8216418762       -3.6614316189       38.8000804399  TIP3      3175            0.0000000000
     31844      3367  TIP3      H1             27.9475281566       -4.4504166910       38.2554387065  TIP3      3175            0.0000000000
     31845      3367  TIP3      H2             27.4644682245       -4.0513925959       39.6307561772  TIP3      3175            0.0000000000
     31846      3368  TIP3      OH2            26.6477059953       -4.1686398738       41.2706768922  TIP3      3176            0.0000000000
     31847      3368  TIP3      H1             26.8362211652       -4.6245076745       42.1043366572  TIP3      3176            0.0000000000
     31848      3368  TIP3      H2             26.7832246647       -3.2416783500       41.5651612263  TIP3      3176            0.0000000000
     31849      3369  TIP3      OH2            22.9990929661       -6.8523849716       41.6525071578  TIP3      3177            0.0000000000
     31850      3369  TIP3      H1             22.5049634040       -6.5441108493       42.4075199440  TIP3      3177            0.0000000000
     31851      3369  TIP3      H2             23.6985942382       -6.1788962129       41.5377956250  TIP3      3177            0.0000000000
     31852      3370  TIP3      OH2            29.0792326228       -2.6737128160       41.2541595052  TIP3      3178            0.0000000000
     31853      3370  TIP3      H1             28.5059416424       -2.0776204135       41.7766761744  TIP3      3178            0.0000000000
     31854      3370  TIP3      H2             29.8918734775       -2.1091482115       41.2284184057  TIP3      3178            0.0000000000
     31855      3371  TIP3      OH2            26.8212387451       -1.4252786052       42.0484739262  TIP3      3179            0.0000000000
     31856      3371  TIP3      H1             26.9145131271       -0.6442817153       41.4448903056  TIP3      3179            0.0000000000
     31857      3371  TIP3      H2             26.6149015833       -1.0023342964       42.8900667753  TIP3      3179            0.0000000000
     31858      3372  TIP3      OH2            25.3633629683      -14.8472399067       41.4111912170  TIP3      3180            0.0000000000
     31859      3372  TIP3      H1             25.1848353810      -13.9895599968       41.8076342219  TIP3      3180            0.0000000000
     31860      3372  TIP3      H2             26.2605705724      -14.9892856479       41.7615349514  TIP3      3180            0.0000000000
     31861      3373  TIP3      OH2            23.7144329220       -4.2448609259       40.6546381316  TIP3      3181            0.0000000000
     31862      3373  TIP3      H1             24.3830312465       -3.6253270471       40.9760722561  TIP3      3181            0.0000000000
     31863      3373  TIP3      H2             24.2648220003       -4.7229253680       40.0068747519  TIP3      3181            0.0000000000
     31864      3374  TIP3      OH2            22.0628778997      -11.5757577559       39.8164529728  TIP3      3182            0.0000000000
     31865      3374  TIP3      H1             22.0514876112      -10.6173681500       40.0142315575  TIP3      3182            0.0000000000
     31866      3374  TIP3      H2             21.1718668290      -11.7674357975       39.5219385983  TIP3      3182            0.0000000000
     31867      3375  TIP3      OH2            29.8690118140       -1.7845856014       38.8631649199  TIP3      3183            0.0000000000
     31868      3375  TIP3      H1             29.2065279655       -2.4228755172       39.2208487360  TIP3      3183            0.0000000000
     31869      3375  TIP3      H2             30.6194227639       -2.3853360934       38.7412579625  TIP3      3183            0.0000000000
     31870      3376  TIP3      OH2            34.3811494360       -2.2220028062       38.9969591925  TIP3      3184            0.0000000000
     31871      3376  TIP3      H1             34.7239669771       -2.8124044179       39.6783574258  TIP3      3184            0.0000000000
     31872      3376  TIP3      H2             35.1933113225       -1.8597901571       38.5882920355  TIP3      3184            0.0000000000
     31873      3377  TIP3      OH2            25.3072725192       -6.1361641873       38.9922610876  TIP3      3185            0.0000000000
     31874      3377  TIP3      H1             25.4802433817       -6.8854564378       39.5793304418  TIP3      3185            0.0000000000
     31875      3377  TIP3      H2             26.0636397820       -6.2184799786       38.3779533692  TIP3      3185            0.0000000000
     31876      3378  TIP3      OH2            30.7840149633       -5.0281181992       38.7807733086  TIP3      3186            0.0000000000
     31877      3378  TIP3      H1             30.4943902071       -4.9084693871       39.6994742161  TIP3      3186            0.0000000000
     31878      3378  TIP3      H2             30.5422537268       -5.9740237570       38.6125958217  TIP3      3186            0.0000000000
     31879      3379  TIP3      OH2            26.5196628290       -8.1123970360       41.3309724579  TIP3      3187            0.0000000000
     31880      3379  TIP3      H1             26.0531905134       -8.6396449523       41.9973665803  TIP3      3187            0.0000000000
     31881      3379  TIP3      H2             26.8095926478       -8.7913992204       40.6859955911  TIP3      3187            0.0000000000
     31882      3380  TIP3      OH2            27.5912532277       -9.9072124477       39.5776030401  TIP3      3188            0.0000000000
     31883      3380  TIP3      H1             27.4602635093       -9.9750642380       38.6070126083  TIP3      3188            0.0000000000
     31884      3380  TIP3      H2             28.5665253393       -9.8198733086       39.6616994831  TIP3      3188            0.0000000000
     31885      3381  TIP3      OH2            27.3247321299        0.8827988029       40.7352373021  TIP3      3189            0.0000000000
     31886      3381  TIP3      H1             28.3146843175        0.8759463943       40.7016789101  TIP3      3189            0.0000000000
     31887      3381  TIP3      H2             27.2334389134        1.4429913334       39.9495246786  TIP3      3189            0.0000000000
     31888      3382  TIP3      OH2            20.9759592616       -4.6418678042       40.1747920514  TIP3      3190            0.0000000000
     31889      3382  TIP3      H1             21.9333193211       -4.4800701957       40.3491351445  TIP3      3190            0.0000000000
     31890      3382  TIP3      H2             21.0695251280       -5.2557203597       39.4173547693  TIP3      3190            0.0000000000
     31891      3383  TIP3      OH2            36.3290319243      -11.4866231219       39.8078222500  TIP3      3191            0.0000000000
     31892      3383  TIP3      H1             36.5411028166      -10.8739653315       39.0961236870  TIP3      3191            0.0000000000
     31893      3383  TIP3      H2             36.2319273752      -12.3376178108       39.3213969714  TIP3      3191            0.0000000000
     31894      3384  TIP3      OH2            35.7443941206      -14.0287558590       38.9337333414  TIP3      3192            0.0000000000
     31895      3384  TIP3      H1             36.2879839941      -14.4784388024       39.5816547456  TIP3      3192            0.0000000000
     31896      3384  TIP3      H2             34.8774540967      -14.4496398094       39.0737807024  TIP3      3192            0.0000000000
     31897      3385  TIP3      OH2            21.3777137905      -17.1327087322       41.4949422637  TIP3      3193            0.0000000000
     31898      3385  TIP3      H1             21.8594478941      -16.4776760998       40.9722647954  TIP3      3193            0.0000000000
     31899      3385  TIP3      H2             20.7999635062      -16.5583569746       41.9920642105  TIP3      3193            0.0000000000
     31900      3386  TIP3      OH2            23.1773550074      -15.1953947073       39.9774607747  TIP3      3194            0.0000000000
     31901      3386  TIP3      H1             23.6844841262      -15.8414460510       39.4537327164  TIP3      3194            0.0000000000
     31902      3386  TIP3      H2             23.8284557007      -14.9468433456       40.6655164817  TIP3      3194            0.0000000000
     31903      3387  TIP3      OH2            29.8101537182        0.5424863117       40.2081448203  TIP3      3195            0.0000000000
     31904      3387  TIP3      H1             30.6744981870        0.4846910450       40.6665145954  TIP3      3195            0.0000000000
     31905      3387  TIP3      H2             29.8105308332       -0.4046182731       39.9426185239  TIP3      3195            0.0000000000
     31906      3388  TIP3      OH2            23.0617238018       -0.2235202241       39.4657369328  TIP3      3196            0.0000000000
     31907      3388  TIP3      H1             22.7898521712        0.0194165960       40.3665880869  TIP3      3196            0.0000000000
     31908      3388  TIP3      H2             23.8212090790       -0.8206550439       39.6137241053  TIP3      3196            0.0000000000
     31909      3389  TIP3      OH2           -26.2391431165        8.8172937156       40.1166301931  TIP3      3197            0.0000000000
     31910      3389  TIP3      H1            -25.5394548457        8.8858677192       40.8078680574  TIP3      3197            0.0000000000
     31911      3389  TIP3      H2            -25.8187256913        8.1348342439       39.5792903632  TIP3      3197            0.0000000000
     31912      3390  TIP3      OH2           -23.9733613061        9.5625214544       41.6180370979  TIP3      3198            0.0000000000
     31913      3390  TIP3      H1            -23.5815480283        9.8303073416       42.4807596069  TIP3      3198            0.0000000000
     31914      3390  TIP3      H2            -23.6055549777       10.1852365992       40.9640853530  TIP3      3198            0.0000000000
     31915      3391  TIP3      OH2           -20.0324486193        1.2531014623       41.3597824918  TIP3      3199            0.0000000000
     31916      3391  TIP3      H1            -20.9402348433        1.2613894413       41.7386005171  TIP3      3199            0.0000000000
     31917      3391  TIP3      H2            -19.9683165134        2.2146180148       41.2550108565  TIP3      3199            0.0000000000
     31918      3392  TIP3      OH2           -19.0357820173       15.7779165640       39.9135603333  TIP3      3200            0.0000000000
     31919      3392  TIP3      H1            -18.9573962408       16.7194504083       40.1773560027  TIP3      3200            0.0000000000
     31920      3392  TIP3      H2            -18.1075190286       15.5429742119       40.0278915558  TIP3      3200            0.0000000000
     31921      3393  TIP3      OH2           -23.6362130250       18.5735453119       40.6852703827  TIP3      3201            0.0000000000
     31922      3393  TIP3      H1            -23.2191393987       17.8319501074       40.1989560896  TIP3      3201            0.0000000000
     31923      3393  TIP3      H2            -23.5785202544       18.2655471238       41.6034472046  TIP3      3201            0.0000000000
     31924      3394  TIP3      OH2           -22.4001740950       10.6986251148       39.5705191003  TIP3      3202            0.0000000000
     31925      3394  TIP3      H1            -22.5242653177       10.5368951209       38.5997713259  TIP3      3202            0.0000000000
     31926      3394  TIP3      H2            -21.6013717749       11.2288910735       39.5406994060  TIP3      3202            0.0000000000
     31927      3395  TIP3      OH2           -26.9695529329        4.6194900096       40.0571189108  TIP3      3203            0.0000000000
     31928      3395  TIP3      H1            -27.1342160706        4.6180322393       41.0117495246  TIP3      3203            0.0000000000
     31929      3395  TIP3      H2            -27.1827117861        3.7055118231       39.8002102650  TIP3      3203            0.0000000000
     31930      3396  TIP3      OH2           -30.0806483470        5.1094584542       39.1715865659  TIP3      3204            0.0000000000
     31931      3396  TIP3      H1            -30.4623364686        4.6391068235       39.9515231481  TIP3      3204            0.0000000000
     31932      3396  TIP3      H2            -30.8949612120        5.3236291798       38.7129278930  TIP3      3204            0.0000000000
     31933      3397  TIP3      OH2           -35.4714338352        5.4884387080       41.5478103737  TIP3      3205            0.0000000000
     31934      3397  TIP3      H1            -34.9422635074        6.1479415377       41.0588881575  TIP3      3205            0.0000000000
     31935      3397  TIP3      H2            -36.2116708617        5.9823935009       41.9061434256  TIP3      3205            0.0000000000
     31936      3398  TIP3      OH2           -31.3525497406        7.7311640321       40.6228057626  TIP3      3206            0.0000000000
     31937      3398  TIP3      H1            -31.9602659562        7.4599099503       39.9095260585  TIP3      3206            0.0000000000
     31938      3398  TIP3      H2            -30.5700007005        8.0665912477       40.1719223407  TIP3      3206            0.0000000000
     31939      3399  TIP3      OH2           -24.1940500185        5.2525390770       40.6197164838  TIP3      3207            0.0000000000
     31940      3399  TIP3      H1            -25.1569511157        5.3195350194       40.6319053956  TIP3      3207            0.0000000000
     31941      3399  TIP3      H2            -23.8815691782        6.0158279643       41.1458326926  TIP3      3207            0.0000000000
     31942      3400  TIP3      OH2           -23.4751288937        7.1294282878       42.3683567221  TIP3      3208            0.0000000000
     31943      3400  TIP3      H1            -22.5714810190        6.9326088521       42.6669225564  TIP3      3208            0.0000000000
     31944      3400  TIP3      H2            -23.3831704380        7.9086712365       41.7973965305  TIP3      3208            0.0000000000
     31945      3401  TIP3      OH2           -25.9393255263       13.8234238520       41.5528460427  TIP3      3209            0.0000000000
     31946      3401  TIP3      H1            -26.3004793967       14.6574411113       41.8863401060  TIP3      3209            0.0000000000
     31947      3401  TIP3      H2            -26.6351934866       13.1967283233       41.7836769289  TIP3      3209            0.0000000000
     31948      3402  TIP3      OH2           -18.4075438904        7.2901005608       41.9864210620  TIP3      3210            0.0000000000
     31949      3402  TIP3      H1            -19.0567417378        6.8882160499       41.3646841877  TIP3      3210            0.0000000000
     31950      3402  TIP3      H2            -18.4565457573        8.2175321408       41.7031958621  TIP3      3210            0.0000000000
     31951      3403  TIP3      OH2           -34.8757190523       10.0587596035       40.2828752957  TIP3      3211            0.0000000000
     31952      3403  TIP3      H1            -34.2270453121       10.6690659923       40.7250611872  TIP3      3211            0.0000000000
     31953      3403  TIP3      H2            -35.7013211141       10.4321483755       40.5856861933  TIP3      3211            0.0000000000
     31954      3404  TIP3      OH2           -22.8104273107       14.0763248421       40.3547430606  TIP3      3212            0.0000000000
     31955      3404  TIP3      H1            -22.5527395252       13.7635318482       41.2233294550  TIP3      3212            0.0000000000
     31956      3404  TIP3      H2            -23.7773581459       13.9830348673       40.4389421644  TIP3      3212            0.0000000000
     31957      3405  TIP3      OH2           -18.4144582386       18.4887899705       40.5631647791  TIP3      3213            0.0000000000
     31958      3405  TIP3      H1            -17.6457566622       19.0872459758       40.5177754136  TIP3      3213            0.0000000000
     31959      3405  TIP3      H2            -19.0847277045       19.1175586431       40.8933476925  TIP3      3213            0.0000000000
     31960      3406  TIP3      OH2           -28.7137162883       15.1988961441       38.8212654965  TIP3      3214            0.0000000000
     31961      3406  TIP3      H1            -28.6164962631       14.4171992224       38.2605683435  TIP3      3214            0.0000000000
     31962      3406  TIP3      H2            -29.1157919862       14.8053270310       39.6306869371  TIP3      3214            0.0000000000
     31963      3407  TIP3      OH2           -29.9219700935       14.6835809189       41.2662211291  TIP3      3215            0.0000000000
     31964      3407  TIP3      H1            -29.7101333636       14.2437921276       42.0996963288  TIP3      3215            0.0000000000
     31965      3407  TIP3      H2            -29.8215988179       15.6112583900       41.5620080132  TIP3      3215            0.0000000000
     31966      3408  TIP3      OH2           -33.5779958067       11.9528771583       41.6442396647  TIP3      3216            0.0000000000
     31967      3408  TIP3      H1            -34.0440621835       12.2930091989       42.4011598010  TIP3      3216            0.0000000000
     31968      3408  TIP3      H2            -32.8988688774       12.6535447006       41.5173450349  TIP3      3216            0.0000000000
     31969      3409  TIP3      OH2           -27.5265469453       16.1491442201       41.3010026410  TIP3      3217            0.0000000000
     31970      3409  TIP3      H1            -28.1355006040       16.7419858301       41.7906591107  TIP3      3217            0.0000000000
     31971      3409  TIP3      H2            -26.7704810266       16.7554132194       41.1991095072  TIP3      3217            0.0000000000
     31972      3410  TIP3      OH2           -29.7233383552       17.4275698051       42.0799798244  TIP3      3218            0.0000000000
     31973      3410  TIP3      H1            -29.6843867123       18.1942163447       41.4528071442  TIP3      3218            0.0000000000
     31974      3410  TIP3      H2            -30.0028032614       17.8598451702       42.8938843927  TIP3      3218            0.0000000000
     31975      3411  TIP3      OH2           -31.1646898104        4.0181812639       41.3636960174  TIP3      3219            0.0000000000
     31976      3411  TIP3      H1            -31.4108970693        4.8230481038       41.8382821226  TIP3      3219            0.0000000000
     31977      3411  TIP3      H2            -30.2998186478        3.8617781346       41.7757663054  TIP3      3219            0.0000000000
     31978      3412  TIP3      OH2           -32.8373655927       14.5942085752       40.6625275082  TIP3      3220            0.0000000000
     31979      3412  TIP3      H1            -32.1997771466       15.2470970006       40.9741914254  TIP3      3220            0.0000000000
     31980      3412  TIP3      H2            -32.2876101408       14.1327392091       40.0026241367  TIP3      3220            0.0000000000
     31981      3413  TIP3      OH2           -34.4079264683        7.2912971610       39.7120163156  TIP3      3221            0.0000000000
     31982      3413  TIP3      H1            -34.4700844251        8.2105212621       40.0188815429  TIP3      3221            0.0000000000
     31983      3413  TIP3      H2            -35.3431848265        7.0686444206       39.5867456111  TIP3      3221            0.0000000000
     31984      3414  TIP3      OH2           -26.6940614508       17.0840731971       38.9373303875  TIP3      3222            0.0000000000
     31985      3414  TIP3      H1            -27.3822221901       16.4222851806       39.1996341457  TIP3      3222            0.0000000000
     31986      3414  TIP3      H2            -25.9842506493       16.4719890840       38.6863135556  TIP3      3222            0.0000000000
     31987      3415  TIP3      OH2           -22.1528672027       16.8069739042       39.0836286171  TIP3      3223            0.0000000000
     31988      3415  TIP3      H1            -21.8664219288       16.0703221247       39.6505797750  TIP3      3223            0.0000000000
     31989      3415  TIP3      H2            -21.3509636003       17.0149885537       38.5820550974  TIP3      3223            0.0000000000
     31990      3416  TIP3      OH2           -31.2770268514       12.7019528251       38.9796189071  TIP3      3224            0.0000000000
     31991      3416  TIP3      H1            -31.0894189096       11.9792662482       39.5902006223  TIP3      3224            0.0000000000
     31992      3416  TIP3      H2            -30.5081366843       12.6453493230       38.3788763790  TIP3      3224            0.0000000000
     31993      3417  TIP3      OH2           -25.7761485876       13.8373077861       38.7928444732  TIP3      3225            0.0000000000
     31994      3417  TIP3      H1            -26.0694461761       13.9321799057       39.7127506586  TIP3      3225            0.0000000000
     31995      3417  TIP3      H2            -26.0207960576       12.8959877942       38.6081609192  TIP3      3225            0.0000000000
     31996      3418  TIP3      OH2           -30.0722071795       10.7333354767       41.3087619990  TIP3      3226            0.0000000000
     31997      3418  TIP3      H1            -30.5133330199       10.2195537723       42.0059595920  TIP3      3226            0.0000000000
     31998      3418  TIP3      H2            -29.7384345053       10.0547502822       40.6974316382  TIP3      3226            0.0000000000
     31999      3419  TIP3      OH2           -28.9941077803        8.8682880405       39.5562199358  TIP3      3227            0.0000000000
     32000      3419  TIP3      H1            -29.0285251618        9.0146552625       38.5960573997  TIP3      3227            0.0000000000
     32001      3419  TIP3      H2            -28.0318641236        9.0479152701       39.7281876968  TIP3      3227            0.0000000000
     32002      3420  TIP3      OH2           -19.5616126623       11.3653414938       39.0814997857  TIP3      3228            0.0000000000
     32003      3420  TIP3      H1            -19.8297736493       10.9297786244       38.2414014354  TIP3      3228            0.0000000000
     32004      3420  TIP3      H2            -19.6033193057       12.3140650571       38.8059421327  TIP3      3228            0.0000000000
     32005      3421  TIP3      OH2           -29.1048539064       19.6868293907       40.7077951495  TIP3      3229            0.0000000000
     32006      3421  TIP3      H1            -28.1328183524       19.7640945153       40.7354537008  TIP3      3229            0.0000000000
     32007      3421  TIP3      H2            -29.3002630540       20.2781379464       39.9652545987  TIP3      3229            0.0000000000
     32008      3422  TIP3      OH2           -35.4719974694       14.3101270384       40.2116786822  TIP3      3230            0.0000000000
     32009      3422  TIP3      H1            -34.5033802467       14.3933197368       40.3578933226  TIP3      3230            0.0000000000
     32010      3422  TIP3      H2            -35.4676390083       13.6589701318       39.4873324544  TIP3      3230            0.0000000000
     32011      3423  TIP3      OH2           -18.5028465268        9.9057077136       41.0653301784  TIP3      3231            0.0000000000
     32012      3423  TIP3      H1            -19.0152502983       10.3661227210       40.3442394401  TIP3      3231            0.0000000000
     32013      3423  TIP3      H2            -18.8260547680       10.2949710765       41.9056002495  TIP3      3231            0.0000000000
     32014      3424  TIP3      OH2           -20.0674661004        7.3996196230       39.7836580285  TIP3      3232            0.0000000000
     32015      3424  TIP3      H1            -20.0219883374        7.9991940732       39.0315486663  TIP3      3232            0.0000000000
     32016      3424  TIP3      H2            -20.2649158733        6.5435104910       39.3430840301  TIP3      3232            0.0000000000
     32017      3425  TIP3      OH2           -20.8307290776        4.7821146743       38.8997674606  TIP3      3233            0.0000000000
     32018      3425  TIP3      H1            -20.2457972659        4.3959168234       39.5784035794  TIP3      3233            0.0000000000
     32019      3425  TIP3      H2            -21.6931679662        4.4111935088       39.1484296640  TIP3      3233            0.0000000000
     32020      3426  TIP3      OH2           -18.7784413507        3.6979154135       40.4431780443  TIP3      3234            0.0000000000
     32021      3426  TIP3      H1            -18.3685688504        2.9288226460       39.9892647320  TIP3      3234            0.0000000000
     32022      3426  TIP3      H2            -18.0380529139        4.3125852971       40.5771711385  TIP3      3234            0.0000000000
     32023      3427  TIP3      OH2           -34.7432171357        1.8486503595       41.6176369470  TIP3      3235            0.0000000000
     32024      3427  TIP3      H1            -34.6529823562        2.4806894389       40.9034365181  TIP3      3235            0.0000000000
     32025      3427  TIP3      H2            -35.5889938939        2.1095622360       42.0320242842  TIP3      3235            0.0000000000
     32026      3428  TIP3      OH2           -33.3573254737        3.7287880677       39.9189952872  TIP3      3236            0.0000000000
     32027      3428  TIP3      H1            -32.8825358933        3.0028637665       39.4699154052  TIP3      3236            0.0000000000
     32028      3428  TIP3      H2            -32.7804514037        3.8809547261       40.6951114258  TIP3      3236            0.0000000000
     32029      3429  TIP3      OH2           -26.4619151950       18.9139032959       40.8744696911  TIP3      3237            0.0000000000
     32030      3429  TIP3      H1            -25.5505986825       19.1788947390       40.6762189506  TIP3      3237            0.0000000000
     32031      3429  TIP3      H2            -26.6501006950       18.3972634162       40.0601318791  TIP3      3237            0.0000000000
     32032      3430  TIP3      OH2           -33.5558271959       18.5910118732       39.4577383512  TIP3      3238            0.0000000000
     32033      3430  TIP3      H1            -33.7811351407       18.8844285999       40.3576823295  TIP3      3238            0.0000000000
     32034      3430  TIP3      H2            -32.7528454095       18.0611390403       39.6206163146  TIP3      3238            0.0000000000
     32035      3431  TIP3      OH2            -7.3560345223        8.8457202431       40.1205668293  TIP3      3239            0.0000000000
     32036      3431  TIP3      H1             -6.6556870243        8.8790028049       40.8096285431  TIP3      3239            0.0000000000
     32037      3431  TIP3      H2             -6.9899087631        8.1359815480       39.5780814212  TIP3      3239            0.0000000000
     32038      3432  TIP3      OH2            -5.1013462531        9.5521861732       41.6246314449  TIP3      3240            0.0000000000
     32039      3432  TIP3      H1             -4.7168325349        9.8364872044       42.4849338820  TIP3      3240            0.0000000000
     32040      3432  TIP3      H2             -4.7469775998       10.1817971543       40.9675127724  TIP3      3240            0.0000000000
     32041      3433  TIP3      OH2            -1.3361191931        1.4747842070       41.7025588592  TIP3      3241            0.0000000000
     32042      3433  TIP3      H1             -2.2853973698        1.5350697926       41.8712848833  TIP3      3241            0.0000000000
     32043      3433  TIP3      H2             -1.1476124191        2.3084365165       41.2422401498  TIP3      3241            0.0000000000
     32044      3434  TIP3      OH2            -0.1800720284       15.7970957484       40.0500542173  TIP3      3242            0.0000000000
     32045      3434  TIP3      H1             -0.0832042723       16.7692078504       40.1242716450  TIP3      3242            0.0000000000
     32046      3434  TIP3      H2              0.7418857088       15.5368698620       39.9222618568  TIP3      3242            0.0000000000
     32047      3435  TIP3      OH2            -4.7775523012       18.5752060293       40.6892855504  TIP3      3243            0.0000000000
     32048      3435  TIP3      H1             -4.3625748995       17.8325253277       40.1994911095  TIP3      3243            0.0000000000
     32049      3435  TIP3      H2             -4.7213724885       18.2655472967       41.6044387316  TIP3      3243            0.0000000000
     32050      3436  TIP3      OH2            -3.5731209219       10.7146989735       39.5582964510  TIP3      3244            0.0000000000
     32051      3436  TIP3      H1             -3.6574137831       10.5358026984       38.5850822791  TIP3      3244            0.0000000000
     32052      3436  TIP3      H2             -2.7414759002       11.2089438102       39.5605820760  TIP3      3244            0.0000000000
     32053      3437  TIP3      OH2            -8.0499783122        4.6137872269       40.0736407039  TIP3      3245            0.0000000000
     32054      3437  TIP3      H1             -8.3254111637        4.6394933000       40.9980320962  TIP3      3245            0.0000000000
     32055      3437  TIP3      H2             -8.3330357642        3.7314993587       39.7836498042  TIP3      3245            0.0000000000
     32056      3438  TIP3      OH2           -11.2074437768        5.0220945206       39.1973815214  TIP3      3246            0.0000000000
     32057      3438  TIP3      H1            -11.6899325145        4.6235797710       39.9537830926  TIP3      3246            0.0000000000
     32058      3438  TIP3      H2            -11.9125696278        5.4477594925       38.6865496496  TIP3      3246            0.0000000000
     32059      3439  TIP3      OH2           -16.7072240350        5.3626432020       41.5780658214  TIP3      3247            0.0000000000
     32060      3439  TIP3      H1            -16.1363957097        6.0193376621       41.1217799885  TIP3      3247            0.0000000000
     32061      3439  TIP3      H2            -17.3522812610        5.9816421866       41.9706018877  TIP3      3247            0.0000000000
     32062      3440  TIP3      OH2           -12.4988365439        7.7451815572       40.6379443175  TIP3      3248            0.0000000000
     32063      3440  TIP3      H1            -13.0624074727        7.4250583157       39.9099587866  TIP3      3248            0.0000000000
     32064      3440  TIP3      H2            -11.7223532857        8.0376931968       40.1360185142  TIP3      3248            0.0000000000
     32065      3441  TIP3      OH2            -5.3316721861        5.2020685555       40.6737246264  TIP3      3249            0.0000000000
     32066      3441  TIP3      H1             -6.2911935589        5.3308562643       40.6114587122  TIP3      3249            0.0000000000
     32067      3441  TIP3      H2             -5.0159951167        6.0117823482       41.1263083582  TIP3      3249            0.0000000000
     32068      3442  TIP3      OH2            -4.6095472831        7.1038273617       42.3500146856  TIP3      3250            0.0000000000
     32069      3442  TIP3      H1             -3.7079904734        6.9749665704       42.6796100630  TIP3      3250            0.0000000000
     32070      3442  TIP3      H2             -4.5477054472        7.9134560582       41.8109621375  TIP3      3250            0.0000000000
     32071      3443  TIP3      OH2            -7.0818338169       13.8191565942       41.5518661179  TIP3      3251            0.0000000000
     32072      3443  TIP3      H1             -7.4405623616       14.6529743648       41.8840340421  TIP3      3251            0.0000000000
     32073      3443  TIP3      H2             -7.7757069382       13.1925618505       41.7868140347  TIP3      3251            0.0000000000
     32074      3444  TIP3      OH2             0.4459344886        7.3030711648       41.9926811607  TIP3      3252            0.0000000000
     32075      3444  TIP3      H1             -0.1919259144        6.9400794160       41.3368613496  TIP3      3252            0.0000000000
     32076      3444  TIP3      H2              0.4283841212        8.2467815764       41.7378613933  TIP3      3252            0.0000000000
     32077      3445  TIP3      OH2           -15.9424733788       10.1163471892       40.2143657833  TIP3      3253            0.0000000000
     32078      3445  TIP3      H1            -15.3114456849       10.6541861443       40.7545638338  TIP3      3253            0.0000000000
     32079      3445  TIP3      H2            -16.8394156338       10.2886315757       40.5071054806  TIP3      3253            0.0000000000
     32080      3446  TIP3      OH2            -3.9606729876       14.0783754860       40.3516409749  TIP3      3254            0.0000000000
     32081      3446  TIP3      H1             -3.6965214328       13.7388480696       41.2102531945  TIP3      3254            0.0000000000
     32082      3446  TIP3      H2             -4.9273726733       13.9824035996       40.4413517383  TIP3      3254            0.0000000000
     32083      3447  TIP3      OH2             0.4486084642       18.4847229519       40.5710362235  TIP3      3255            0.0000000000
     32084      3447  TIP3      H1              1.1802153964       19.1268799504       40.4753541828  TIP3      3255            0.0000000000
     32085      3447  TIP3      H2             -0.2397407044       19.1162036833       40.8800415101  TIP3      3255            0.0000000000
     32086      3448  TIP3      OH2            -9.8521460130       15.1948680404       38.8236052334  TIP3      3256            0.0000000000
     32087      3448  TIP3      H1             -9.7470584117       14.4143628494       38.2617252602  TIP3      3256            0.0000000000
     32088      3448  TIP3      H2            -10.2613991773       14.7971588175       39.6264407998  TIP3      3256            0.0000000000
     32089      3449  TIP3      OH2           -11.0635453977       14.6861374345       41.2832352606  TIP3      3257            0.0000000000
     32090      3449  TIP3      H1            -10.8472240741       14.2452701471       42.1101626204  TIP3      3257            0.0000000000
     32091      3449  TIP3      H2            -10.9430550875       15.6153579766       41.5680512203  TIP3      3257            0.0000000000
     32092      3450  TIP3      OH2           -14.8146488152       12.0785673629       41.6109549517  TIP3      3258            0.0000000000
     32093      3450  TIP3      H1            -15.1106585922       12.3508836852       42.4728014601  TIP3      3258            0.0000000000
     32094      3450  TIP3      H2            -13.9902171571       12.6239521005       41.5471788611  TIP3      3258            0.0000000000
     32095      3451  TIP3      OH2            -8.6695627056       16.1474377183       41.3013855224  TIP3      3259            0.0000000000
     32096      3451  TIP3      H1             -9.2781403353       16.7415010993       41.7906207449  TIP3      3259            0.0000000000
     32097      3451  TIP3      H2             -7.9138979157       16.7538801706       41.1982681335  TIP3      3259            0.0000000000
     32098      3452  TIP3      OH2           -10.8525292484       17.4234899170       42.0841233759  TIP3      3260            0.0000000000
     32099      3452  TIP3      H1            -10.8089690032       18.1873263095       41.4548565368  TIP3      3260            0.0000000000
     32100      3452  TIP3      H2            -11.1287394766       17.8530154245       42.9008197324  TIP3      3260            0.0000000000
     32101      3453  TIP3      OH2           -12.3469286995        4.0063651923       41.4051212072  TIP3      3261            0.0000000000
     32102      3453  TIP3      H1            -12.5281284016        4.8622596760       41.8049153112  TIP3      3261            0.0000000000
     32103      3453  TIP3      H2            -11.4529054722        3.8649178097       41.7603650739  TIP3      3261            0.0000000000
     32104      3454  TIP3      OH2           -14.0151796905       14.6159094328       40.6088307332  TIP3      3262            0.0000000000
     32105      3454  TIP3      H1            -13.3505679097       15.2220746885       40.9784014546  TIP3      3262            0.0000000000
     32106      3454  TIP3      H2            -13.4131743655       14.1382731536       40.0113150177  TIP3      3262            0.0000000000
     32107      3455  TIP3      OH2           -15.6497104129        7.2829702721       39.8289745994  TIP3      3263            0.0000000000
     32108      3455  TIP3      H1            -15.6581833098        8.2384728849       40.0060175258  TIP3      3263            0.0000000000
     32109      3455  TIP3      H2            -16.5295674006        7.0635306113       39.5163294544  TIP3      3263            0.0000000000
     32110      3456  TIP3      OH2            -7.8321429324       17.0822166669       38.9394725515  TIP3      3264            0.0000000000
     32111      3456  TIP3      H1             -8.5237425225       16.4218785711       39.1999107625  TIP3      3264            0.0000000000
     32112      3456  TIP3      H2             -7.1259467257       16.4703240618       38.6864976037  TIP3      3264            0.0000000000
     32113      3457  TIP3      OH2            -3.3095633625       16.8142056269       39.0821647392  TIP3      3265            0.0000000000
     32114      3457  TIP3      H1             -3.0332732725       16.0654008979       39.6369488280  TIP3      3265            0.0000000000
     32115      3457  TIP3      H2             -2.5161838339       17.0174440213       38.5636508387  TIP3      3265            0.0000000000
     32116      3458  TIP3      OH2           -12.4461042767       12.6872516739       38.9640725205  TIP3      3266            0.0000000000
     32117      3458  TIP3      H1            -12.2155243126       11.9819425490       39.5896273313  TIP3      3266            0.0000000000
     32118      3458  TIP3      H2            -11.6436359347       12.6431220406       38.3965670864  TIP3      3266            0.0000000000
     32119      3459  TIP3      OH2            -6.9199205675       13.8383743381       38.7944494352  TIP3      3267            0.0000000000
     32120      3459  TIP3      H1             -7.2161050004       13.9261909556       39.7137977600  TIP3      3267            0.0000000000
     32121      3459  TIP3      H2             -7.1633325141       12.8963969539       38.6059057026  TIP3      3267            0.0000000000
     32122      3460  TIP3      OH2           -11.2040163519       10.7305579033       41.3256747380  TIP3      3268            0.0000000000
     32123      3460  TIP3      H1            -11.6484409395       10.2015740408       42.0032127237  TIP3      3268            0.0000000000
     32124      3460  TIP3      H2            -10.9040231059       10.0548914869       40.6837725094  TIP3      3268            0.0000000000
     32125      3461  TIP3      OH2           -10.1211729725        8.9487010667       39.5786151923  TIP3      3269            0.0000000000
     32126      3461  TIP3      H1            -10.2527767657        8.8795454499       38.6072651643  TIP3      3269            0.0000000000
     32127      3461  TIP3      H2             -9.1469077673        9.0376183434       39.6665766842  TIP3      3269            0.0000000000
     32128      3462  TIP3      OH2            -0.7823935127       11.3593484560       39.1018128904  TIP3      3270            0.0000000000
     32129      3462  TIP3      H1             -0.9464892456       10.9419923429       38.2313751680  TIP3      3270            0.0000000000
     32130      3462  TIP3      H2             -0.7100858877       12.3037261547       38.8226007199  TIP3      3270            0.0000000000
     32131      3463  TIP3      OH2           -10.2671893764       19.6918341538       40.7073187975  TIP3      3271            0.0000000000
     32132      3463  TIP3      H1             -9.2914182414       19.7585242262       40.7411095273  TIP3      3271            0.0000000000
     32133      3463  TIP3      H2            -10.4349677876       20.2794347182       39.9555063513  TIP3      3271            0.0000000000
     32134      3464  TIP3      OH2           -16.7363174882       14.1820518189       40.1833425708  TIP3      3272            0.0000000000
     32135      3464  TIP3      H1            -15.7806204643       14.3850797795       40.3646293295  TIP3      3272            0.0000000000
     32136      3464  TIP3      H2            -16.6418234687       13.5826372607       39.4241349057  TIP3      3272            0.0000000000
     32137      3465  TIP3      OH2             0.4443862592       10.0684600115       41.1256449444  TIP3      3273            0.0000000000
     32138      3465  TIP3      H1             -0.0802979448       10.4822138059       40.4009137305  TIP3      3273            0.0000000000
     32139      3465  TIP3      H2              0.4213731985       10.7117289818       41.8634499143  TIP3      3273            0.0000000000
     32140      3466  TIP3      OH2            -1.2139477684        7.3874187701       39.7923494213  TIP3      3274            0.0000000000
     32141      3466  TIP3      H1             -1.1505045752        8.0133491997       39.0631302948  TIP3      3274            0.0000000000
     32142      3466  TIP3      H2             -1.4086313690        6.5474951082       39.3232047229  TIP3      3274            0.0000000000
     32143      3467  TIP3      OH2            -1.9813813182        4.8160586813       38.9221974580  TIP3      3275            0.0000000000
     32144      3467  TIP3      H1             -1.3831969652        4.3838680188       39.5588944508  TIP3      3275            0.0000000000
     32145      3467  TIP3      H2             -2.8374653587        4.4072355051       39.1229890376  TIP3      3275            0.0000000000
     32146      3468  TIP3      OH2             0.0726289278        3.6696709389       40.4549054918  TIP3      3276            0.0000000000
     32147      3468  TIP3      H1              0.5036093605        2.9321967475       39.9706501722  TIP3      3276            0.0000000000
     32148      3468  TIP3      H2              0.8014357030        4.3071966630       40.5536713639  TIP3      3276            0.0000000000
     32149      3469  TIP3      OH2           -16.3042675167        1.7260402336       41.5119097302  TIP3      3277            0.0000000000
     32150      3469  TIP3      H1            -15.8502496836        2.3851893969       40.9720719558  TIP3      3277            0.0000000000
     32151      3469  TIP3      H2            -16.9283337005        2.2851581931       41.9793282108  TIP3      3277            0.0000000000
     32152      3470  TIP3      OH2           -14.5350106877        3.6595937207       39.9753755455  TIP3      3278            0.0000000000
     32153      3470  TIP3      H1            -14.0262956183        3.0125572413       39.4532878565  TIP3      3278            0.0000000000
     32154      3470  TIP3      H2            -13.8854730244        3.9077254626       40.6653791132  TIP3      3278            0.0000000000
     32155      3471  TIP3      OH2            -7.6084221144       18.9150800636       40.8740791109  TIP3      3279            0.0000000000
     32156      3471  TIP3      H1             -6.6960533753       19.1791520709       40.6770871591  TIP3      3279            0.0000000000
     32157      3471  TIP3      H2             -7.7934072935       18.3967793681       40.0601323742  TIP3      3279            0.0000000000
     32158      3472  TIP3      OH2           -14.6719566898       18.5919363884       39.4533680906  TIP3      3280            0.0000000000
     32159      3472  TIP3      H1            -14.9328535836       18.8670043443       40.3467457238  TIP3      3280            0.0000000000
     32160      3472  TIP3      H2            -13.8777132962       18.0471465209       39.6194252026  TIP3      3280            0.0000000000
     32161      3473  TIP3      OH2            11.5189288590        8.8692996568       40.0930897115  TIP3      3281            0.0000000000
     32162      3473  TIP3      H1             12.1869889933        8.8675588719       40.8154116636  TIP3      3281            0.0000000000
     32163      3473  TIP3      H2             11.8520106541        8.1160502370       39.5861926871  TIP3      3281            0.0000000000
     32164      3474  TIP3      OH2            13.7508727372        9.5709923213       41.6215235013  TIP3      3282            0.0000000000
     32165      3474  TIP3      H1             14.1467986608        9.8457396507       42.4738236276  TIP3      3282            0.0000000000
     32166      3474  TIP3      H2             14.1296804220       10.1764163562       40.9573833838  TIP3      3282            0.0000000000
     32167      3475  TIP3      OH2            17.5196534730        1.4778890851       41.7058871858  TIP3      3283            0.0000000000
     32168      3475  TIP3      H1             16.5707113497        1.5301248436       41.8694730467  TIP3      3283            0.0000000000
     32169      3475  TIP3      H2             17.7076422221        2.3074468132       41.2407638132  TIP3      3283            0.0000000000
     32170      3476  TIP3      OH2            18.6512731465       15.8197159913       39.9036761606  TIP3      3284            0.0000000000
     32171      3476  TIP3      H1             18.7941524848       16.7459170651       40.1705949227  TIP3      3284            0.0000000000
     32172      3476  TIP3      H2             19.5662158497       15.5098458941       40.0146927154  TIP3      3284            0.0000000000
     32173      3477  TIP3      OH2            14.0700588445       18.5781763887       40.6883110115  TIP3      3285            0.0000000000
     32174      3477  TIP3      H1             14.4865466112       17.8367075843       40.2002990614  TIP3      3285            0.0000000000
     32175      3477  TIP3      H2             14.1318835573       18.2673615839       41.6053620866  TIP3      3285            0.0000000000
     32176      3478  TIP3      OH2            15.2495094199       10.7580489335       39.5394846278  TIP3      3286            0.0000000000
     32177      3478  TIP3      H1             15.2287975108       10.5074730289       38.5830757398  TIP3      3286            0.0000000000
     32178      3478  TIP3      H2             16.1189106400       11.1890508785       39.5766513351  TIP3      3286            0.0000000000
     32179      3479  TIP3      OH2            10.8066947238        4.6148565324       40.0736397049  TIP3      3287            0.0000000000
     32180      3479  TIP3      H1             10.5307449473        4.6381217845       40.9980915934  TIP3      3287            0.0000000000
     32181      3479  TIP3      H2             10.5238223916        3.7319974893       39.7836171623  TIP3      3287            0.0000000000
     32182      3480  TIP3      OH2             7.6450937213        5.0223938945       39.1989220446  TIP3      3288            0.0000000000
     32183      3480  TIP3      H1              7.1637084330        4.6215631116       39.9525842799  TIP3      3288            0.0000000000
     32184      3480  TIP3      H2              6.9423166287        5.4475285939       38.6863423399  TIP3      3288            0.0000000000
     32185      3481  TIP3      OH2             2.1441138851        5.3806504899       41.5656269164  TIP3      3289            0.0000000000
     32186      3481  TIP3      H1              2.7133198291        6.0420397450       41.1218870709  TIP3      3289            0.0000000000
     32187      3481  TIP3      H2              1.5168087953        6.0138561532       41.9700459703  TIP3      3289            0.0000000000
     32188      3482  TIP3      OH2             6.3542404962        7.7464133249       40.6336700962  TIP3      3290            0.0000000000
     32189      3482  TIP3      H1              5.7864428632        7.4506098291       39.8977632532  TIP3      3290            0.0000000000
     32190      3482  TIP3      H2              7.1347138573        8.0345155798       40.1388884843  TIP3      3290            0.0000000000
     32191      3483  TIP3      OH2            13.5290357593        5.2108181066       40.6782489469  TIP3      3291            0.0000000000
     32192      3483  TIP3      H1             12.5686258708        5.3310485403       40.6132989175  TIP3      3291            0.0000000000
     32193      3483  TIP3      H2             13.8414797701        6.0164588716       41.1309877316  TIP3      3291            0.0000000000
     32194      3484  TIP3      OH2            14.2454728375        7.1430258298       42.3929592857  TIP3      3292            0.0000000000
     32195      3484  TIP3      H1             15.1648555866        6.9538961195       42.6287168328  TIP3      3292            0.0000000000
     32196      3484  TIP3      H2             14.3088400416        7.9017421151       41.7824688734  TIP3      3292            0.0000000000
     32197      3485  TIP3      OH2            11.7640931840       13.8258316814       41.5002164410  TIP3      3293            0.0000000000
     32198      3485  TIP3      H1             11.4350005808       14.6497117917       41.8926856837  TIP3      3293            0.0000000000
     32199      3485  TIP3      H2             11.0844996822       13.2044099505       41.8036339943  TIP3      3293            0.0000000000
     32200      3486  TIP3      OH2            19.2922088575        7.3063704883       41.9952724474  TIP3      3294            0.0000000000
     32201      3486  TIP3      H1             18.6668273603        6.9417386990       41.3283117507  TIP3      3294            0.0000000000
     32202      3486  TIP3      H2             19.3013330201        8.2477399658       41.7330743070  TIP3      3294            0.0000000000
     32203      3487  TIP3      OH2             2.9213249955       10.1031324905       40.2141052796  TIP3      3295            0.0000000000
     32204      3487  TIP3      H1              3.5160336340       10.6788219636       40.7461439385  TIP3      3295            0.0000000000
     32205      3487  TIP3      H2              2.0387373493       10.3392823212       40.5475126679  TIP3      3295            0.0000000000
     32206      3488  TIP3      OH2            14.8840087317       14.0486654826       40.3415255361  TIP3      3296            0.0000000000
     32207      3488  TIP3      H1             15.1883300960       13.7658520524       41.2126018511  TIP3      3296            0.0000000000
     32208      3488  TIP3      H2             13.9231210648       13.9881504302       40.4817739058  TIP3      3296            0.0000000000
     32209      3489  TIP3      OH2            19.2992942118       18.5043580432       40.5352119869  TIP3      3297            0.0000000000
     32210      3489  TIP3      H1             20.0679586474       19.0957655489       40.5377941002  TIP3      3297            0.0000000000
     32211      3489  TIP3      H2             18.6217702701       19.1075642655       40.9041435183  TIP3      3297            0.0000000000
     32212      3490  TIP3      OH2             9.0347109863       15.1796267848       38.8265781096  TIP3      3298            0.0000000000
     32213      3490  TIP3      H1              9.0688840226       14.4038782396       38.2565963561  TIP3      3298            0.0000000000
     32214      3490  TIP3      H2              8.5875858809       14.8139976975       39.6302987503  TIP3      3298            0.0000000000
     32215      3491  TIP3      OH2             7.8123416591       14.6887482462       41.2558106568  TIP3      3299            0.0000000000
     32216      3491  TIP3      H1              7.9864363385       14.2434214986       42.1003298460  TIP3      3299            0.0000000000
     32217      3491  TIP3      H2              7.9050052858       15.6085359273       41.5808358468  TIP3      3299            0.0000000000
     32218      3492  TIP3      OH2             4.1024831523       12.0453558738       41.6193368793  TIP3      3300            0.0000000000
     32219      3492  TIP3      H1              3.6810737974       12.2636765097       42.4481771828  TIP3      3300            0.0000000000
     32220      3492  TIP3      H2              4.8805982177       12.6431491065       41.5804955191  TIP3      3300            0.0000000000
     32221      3493  TIP3      OH2            10.1863960977       16.1499167569       41.2948021744  TIP3      3301            0.0000000000
     32222      3493  TIP3      H1              9.5728896470       16.7325232118       41.7901089266  TIP3      3301            0.0000000000
     32223      3493  TIP3      H2             10.9416683344       16.7565437544       41.2017064257  TIP3      3301            0.0000000000
     32224      3494  TIP3      OH2             8.0054220011       17.4335994842       42.0834854270  TIP3      3302            0.0000000000
     32225      3494  TIP3      H1              8.0579707309       18.2050396587       41.4634949669  TIP3      3302            0.0000000000
     32226      3494  TIP3      H2              7.7349044341       17.8604627266       42.9037072485  TIP3      3302            0.0000000000
     32227      3495  TIP3      OH2             6.5077629431        4.0056027709       41.4065397875  TIP3      3303            0.0000000000
     32228      3495  TIP3      H1              6.3289906506        4.8642680285       41.8046507536  TIP3      3303            0.0000000000
     32229      3495  TIP3      H2              7.4023852320        3.8645603952       41.7606453662  TIP3      3303            0.0000000000
     32230      3496  TIP3      OH2             4.8482961079       14.6445175692       40.6491029818  TIP3      3304            0.0000000000
     32231      3496  TIP3      H1              5.5496731328       15.2221528739       40.9756327736  TIP3      3304            0.0000000000
     32232      3496  TIP3      H2              5.3948501156       14.1332144044       40.0174397267  TIP3      3304            0.0000000000
     32233      3497  TIP3      OH2             3.2083335894        7.2869296821       39.8156432697  TIP3      3305            0.0000000000
     32234      3497  TIP3      H1              3.1961844464        8.2452357793       40.0184472175  TIP3      3305            0.0000000000
     32235      3497  TIP3      H2              2.3166296537        7.0889124220       39.5246517422  TIP3      3305            0.0000000000
     32236      3498  TIP3      OH2            11.0189133949       17.0884680074       38.9388615339  TIP3      3306            0.0000000000
     32237      3498  TIP3      H1             10.3242389665       16.4354843626       39.2117893202  TIP3      3306            0.0000000000
     32238      3498  TIP3      H2             11.7320288209       16.4870356265       38.7010206509  TIP3      3306            0.0000000000
     32239      3499  TIP3      OH2            15.5339466750       16.7740799299       39.0640943511  TIP3      3307            0.0000000000
     32240      3499  TIP3      H1             15.8584541159       16.0778719891       39.6645774973  TIP3      3307            0.0000000000
     32241      3499  TIP3      H2             16.3439351527       17.0090955108       38.5814409312  TIP3      3307            0.0000000000
     32242      3500  TIP3      OH2             6.4296987204       12.7129915370       38.9859253361  TIP3      3308            0.0000000000
     32243      3500  TIP3      H1              6.6184749097       11.9729668665       39.5796500403  TIP3      3308            0.0000000000
     32244      3500  TIP3      H2              7.1846136713       12.6381789572       38.3778294988  TIP3      3308            0.0000000000
     32245      3501  TIP3      OH2            11.9526621736       13.7699593809       38.7504941771  TIP3      3309            0.0000000000
     32246      3501  TIP3      H1             11.6516612323       13.9870824264       39.6607872418  TIP3      3309            0.0000000000
     32247      3501  TIP3      H2             11.6060950529       12.8514669435       38.7158271955  TIP3      3309            0.0000000000
     32248      3502  TIP3      OH2             7.6506902131       10.7291482631       41.3220892831  TIP3      3310            0.0000000000
     32249      3502  TIP3      H1              7.1972187245       10.2214912555       42.0112028439  TIP3      3310            0.0000000000
     32250      3502  TIP3      H2              7.9497566502       10.0455137417       40.6840320084  TIP3      3310            0.0000000000
     32251      3503  TIP3      OH2             8.7390989451        8.9713484444       39.5752714672  TIP3      3311            0.0000000000
     32252      3503  TIP3      H1              8.5995165202        8.8634093857       38.6109797816  TIP3      3311            0.0000000000
     32253      3503  TIP3      H2              9.7117399062        9.0251173129       39.6757342026  TIP3      3311            0.0000000000
     32254      3504  TIP3      OH2            18.0682417135       11.3422690925       39.0969786987  TIP3      3312            0.0000000000
     32255      3504  TIP3      H1             17.9312679951       10.9349183425       38.2201576406  TIP3      3312            0.0000000000
     32256      3504  TIP3      H2             18.1681010266       12.2916380248       38.8356568014  TIP3      3312            0.0000000000
     32257      3505  TIP3      OH2             8.5936543855       19.6905121025       40.7038859276  TIP3      3313            0.0000000000
     32258      3505  TIP3      H1              9.5703142666       19.7669024752       40.7360050435  TIP3      3313            0.0000000000
     32259      3505  TIP3      H2              8.4176870764       20.2747488808       39.9510215148  TIP3      3313            0.0000000000
     32260      3506  TIP3      OH2             2.1301057476       14.2715458160       40.2158009327  TIP3      3314            0.0000000000
     32261      3506  TIP3      H1              3.1159989118       14.3272910181       40.3042395163  TIP3      3314            0.0000000000
     32262      3506  TIP3      H2              2.1406197559       13.6249902121       39.4588960479  TIP3      3314            0.0000000000
     32263      3507  TIP3      OH2            19.3093272233       10.0813095598       41.1487973963  TIP3      3315            0.0000000000
     32264      3507  TIP3      H1             18.7931723012       10.4869892232       40.4111212773  TIP3      3315            0.0000000000
     32265      3507  TIP3      H2             19.2832683816       10.7401915831       41.8727995700  TIP3      3315            0.0000000000
     32266      3508  TIP3      OH2            17.6260114235        7.3853450985       39.7830862358  TIP3      3316            0.0000000000
     32267      3508  TIP3      H1             17.7109674554        8.0093248214       39.0555213506  TIP3      3316            0.0000000000
     32268      3508  TIP3      H2             17.4414515371        6.5460846377       39.3080499699  TIP3      3316            0.0000000000
     32269      3509  TIP3      OH2            16.8625295220        4.8167759891       38.9274658784  TIP3      3317            0.0000000000
     32270      3509  TIP3      H1             17.4706389511        4.3846813223       39.5565732930  TIP3      3317            0.0000000000
     32271      3509  TIP3      H2             16.0117739463        4.4020463063       39.1252749443  TIP3      3317            0.0000000000
     32272      3510  TIP3      OH2            18.9403997478        3.6815397866       40.4538580437  TIP3      3318            0.0000000000
     32273      3510  TIP3      H1             19.3609360819        2.9348202235       39.9731718652  TIP3      3318            0.0000000000
     32274      3510  TIP3      H2             19.6836823514        4.3104945784       40.5517618049  TIP3      3318            0.0000000000
     32275      3511  TIP3      OH2             2.5245043801        1.7216966290       41.4930955452  TIP3      3319            0.0000000000
     32276      3511  TIP3      H1              3.0040154592        2.3784408838       40.9716961362  TIP3      3319            0.0000000000
     32277      3511  TIP3      H2              1.9445404711        2.2965853042       41.9918412311  TIP3      3319            0.0000000000
     32278      3512  TIP3      OH2             4.3212237201        3.6600848411       39.9771549098  TIP3      3320            0.0000000000
     32279      3512  TIP3      H1              4.8291558850        3.0126299481       39.4570045906  TIP3      3320            0.0000000000
     32280      3512  TIP3      H2              4.9719994158        3.9093895987       40.6653616130  TIP3      3320            0.0000000000
     32281      3513  TIP3      OH2            11.2547679984       18.9209683336       40.8778702802  TIP3      3321            0.0000000000
     32282      3513  TIP3      H1             12.1676924048       19.1749323698       40.6691204608  TIP3      3321            0.0000000000
     32283      3513  TIP3      H2             11.0537890118       18.4084466549       40.0666666968  TIP3      3321            0.0000000000
     32284      3514  TIP3      OH2             4.1628288064       18.5734872756       39.4776812461  TIP3      3322            0.0000000000
     32285      3514  TIP3      H1              3.9604805506       18.9073231660       40.3649429649  TIP3      3322            0.0000000000
     32286      3514  TIP3      H2              4.9831353203       18.0532669950       39.6030435709  TIP3      3322            0.0000000000
     32287      3515  TIP3      OH2            30.3467852659        8.8351312682       40.1174634406  TIP3      3323            0.0000000000
     32288      3515  TIP3      H1             31.0467682963        8.8842697398       40.8047633116  TIP3      3323            0.0000000000
     32289      3515  TIP3      H2             30.7266332155        8.1335134068       39.5761585322  TIP3      3323            0.0000000000
     32290      3516  TIP3      OH2            32.5964709228        9.5634369805       41.6358528521  TIP3      3324            0.0000000000
     32291      3516  TIP3      H1             33.0077224037        9.8413971562       42.4834718380  TIP3      3324            0.0000000000
     32292      3516  TIP3      H2             32.9733294364       10.1614594240       40.9624790096  TIP3      3324            0.0000000000
     32293      3517  TIP3      OH2            36.1064610935        1.4460420453       41.6015783734  TIP3      3325            0.0000000000
     32294      3517  TIP3      H1             35.2184781652        1.6067731107       41.9219306139  TIP3      3325            0.0000000000
     32295      3517  TIP3      H2             36.3695463376        2.2510450305       41.1704081243  TIP3      3325            0.0000000000
     32296      3518  TIP3      OH2            32.9192125839       18.5838431132       40.6632066602  TIP3      3326            0.0000000000
     32297      3518  TIP3      H1             33.3410685456       17.8261534471       40.1930271357  TIP3      3326            0.0000000000
     32298      3518  TIP3      H2             32.9454384201       18.2863232999       41.5867059310  TIP3      3326            0.0000000000
     32299      3519  TIP3      OH2            34.1604428104       10.6736806224       39.5585286780  TIP3      3327            0.0000000000
     32300      3519  TIP3      H1             34.0768844794       10.5117782386       38.5844677838  TIP3      3327            0.0000000000
     32301      3519  TIP3      H2             34.9526117811       11.2086497418       39.5828343449  TIP3      3327            0.0000000000
     32302      3520  TIP3      OH2            29.7250594750        4.5829701446       40.0847620470  TIP3      3328            0.0000000000
     32303      3520  TIP3      H1             29.3730968821        4.6217922007       40.9836408169  TIP3      3328            0.0000000000
     32304      3520  TIP3      H2             29.4001937384        3.7174541042       39.7712082394  TIP3      3328            0.0000000000
     32305      3521  TIP3      OH2            26.8986898683        4.5358283131       39.1171442577  TIP3      3329            0.0000000000
     32306      3521  TIP3      H1             26.2817771006        4.5602455051       39.8807618012  TIP3      3329            0.0000000000
     32307      3521  TIP3      H2             26.2704977364        5.0713169431       38.5813367624  TIP3      3329            0.0000000000
     32308      3522  TIP3      OH2            20.9803722675        5.3745853126       41.5885158227  TIP3      3330            0.0000000000
     32309      3522  TIP3      H1             21.5791470379        6.0069954720       41.1157917999  TIP3      3330            0.0000000000
     32310      3522  TIP3      H2             20.3750055986        6.0373145947       41.9668931188  TIP3      3330            0.0000000000
     32311      3523  TIP3      OH2            25.1103620990        8.5675662572       40.8862125396  TIP3      3331            0.0000000000
     32312      3523  TIP3      H1             24.5019363123        7.9471800368       40.3976846719  TIP3      3331            0.0000000000
     32313      3523  TIP3      H2             25.8599990954        8.2059642735       40.3896435375  TIP3      3331            0.0000000000
     32314      3524  TIP3      OH2            32.3905761503        5.2017359794       40.6785983653  TIP3      3332            0.0000000000
     32315      3524  TIP3      H1             31.4273464783        5.3133872308       40.5821279832  TIP3      3332            0.0000000000
     32316      3524  TIP3      H2             32.6585805320        6.0238924034       41.1355063345  TIP3      3332            0.0000000000
     32317      3525  TIP3      OH2            33.1169916444        7.1087330916       42.3394055570  TIP3      3333            0.0000000000
     32318      3525  TIP3      H1             34.0154488116        6.9767621001       42.6438340618  TIP3      3333            0.0000000000
     32319      3525  TIP3      H2             33.1339158041        7.9216751456       41.8045779913  TIP3      3333            0.0000000000
     32320      3526  TIP3      OH2            30.6266567920       13.8231645641       41.5640226790  TIP3      3334            0.0000000000
     32321      3526  TIP3      H1             30.2627582943       14.6609482428       41.8862386776  TIP3      3334            0.0000000000
     32322      3526  TIP3      H2             29.9244563553       13.1985568918       41.7859258579  TIP3      3334            0.0000000000
     32323      3527  TIP3      OH2            21.7709747420       10.1163192854       40.2049405305  TIP3      3335            0.0000000000
     32324      3527  TIP3      H1             22.3832152024       10.6672940554       40.7459798182  TIP3      3335            0.0000000000
     32325      3527  TIP3      H2             20.8990811627       10.3572531527       40.5553139761  TIP3      3335            0.0000000000
     32326      3528  TIP3      OH2            33.7304673143       14.0681099045       40.3553067380  TIP3      3336            0.0000000000
     32327      3528  TIP3      H1             33.9946289629       13.7530328487       41.2215226326  TIP3      3336            0.0000000000
     32328      3528  TIP3      H2             32.7652908623       13.9667982737       40.4271366966  TIP3      3336            0.0000000000
     32329      3529  TIP3      OH2            27.8405316358       15.2046603168       38.8188753495  TIP3      3337            0.0000000000
     32330      3529  TIP3      H1             27.9538260666       14.4212484259       38.2610092136  TIP3      3337            0.0000000000
     32331      3529  TIP3      H2             27.4511424213       14.7988985116       39.6287319462  TIP3      3337            0.0000000000
     32332      3530  TIP3      OH2            26.6522224124       14.6892935571       41.2655690395  TIP3      3338            0.0000000000
     32333      3530  TIP3      H1             26.8584020099       14.2405212244       42.0980452298  TIP3      3338            0.0000000000
     32334      3530  TIP3      H2             26.7705729617       15.6141017870       41.5669542509  TIP3      3338            0.0000000000
     32335      3531  TIP3      OH2            23.0062746370       12.0026261105       41.6533076857  TIP3      3339            0.0000000000
     32336      3531  TIP3      H1             22.4843311338       12.3095198524       42.3899824280  TIP3      3339            0.0000000000
     32337      3531  TIP3      H2             23.7019678415       12.6814897547       41.5434522546  TIP3      3339            0.0000000000
     32338      3532  TIP3      OH2            29.0442438462       16.1475738003       41.2988919694  TIP3      3340            0.0000000000
     32339      3532  TIP3      H1             28.4378640883       16.7398145434       41.7918748712  TIP3      3340            0.0000000000
     32340      3532  TIP3      H2             29.7970397319       16.7560459705       41.2009958041  TIP3      3340            0.0000000000
     32341      3533  TIP3      OH2            26.8588572978       17.4285259919       42.0804168974  TIP3      3341            0.0000000000
     32342      3533  TIP3      H1             26.8991884148       18.1934675373       41.4538746746  TIP3      3341            0.0000000000
     32343      3533  TIP3      H2             26.5893403784       17.8482202774       42.9046692414  TIP3      3341            0.0000000000
     32344      3534  TIP3      OH2            25.3590640768        3.8745052617       41.5203405003  TIP3      3342            0.0000000000
     32345      3534  TIP3      H1             25.1702369553        4.8177942455       41.6763527224  TIP3      3342            0.0000000000
     32346      3534  TIP3      H2             26.2882360373        3.8639355093       41.7778097649  TIP3      3342            0.0000000000
     32347      3535  TIP3      OH2            23.7199739650       14.6139433716       40.6507515819  TIP3      3343            0.0000000000
     32348      3535  TIP3      H1             24.3884263502       15.2317212114       40.9713939883  TIP3      3343            0.0000000000
     32349      3535  TIP3      H2             24.2661042344       14.1165611133       40.0124948340  TIP3      3343            0.0000000000
     32350      3536  TIP3      OH2            21.9709205152        7.3071381100       39.8680991810  TIP3      3344            0.0000000000
     32351      3536  TIP3      H1             22.0279297069        8.2735895328       39.9902097306  TIP3      3344            0.0000000000
     32352      3536  TIP3      H2             21.1216180106        7.1078665624       39.4949383151  TIP3      3344            0.0000000000
     32353      3537  TIP3      OH2            29.8753270750       17.0810293307       38.9300836294  TIP3      3345            0.0000000000
     32354      3537  TIP3      H1             29.1860262627       16.4222582846       39.1982311681  TIP3      3345            0.0000000000
     32355      3537  TIP3      H2             30.5920578786       16.4693920751       38.6899915412  TIP3      3345            0.0000000000
     32356      3538  TIP3      OH2            34.4130665193       16.8347402686       39.1538941332  TIP3      3346            0.0000000000
     32357      3538  TIP3      H1             34.6917905124       16.0542096030       39.6545161058  TIP3      3346            0.0000000000
     32358      3538  TIP3      H2             35.1796804214       17.0054345288       38.5669983740  TIP3      3346            0.0000000000
     32359      3539  TIP3      OH2            25.3110145200       12.7116795447       39.0002210498  TIP3      3347            0.0000000000
     32360      3539  TIP3      H1             25.4781073298       11.9490455864       39.5735668222  TIP3      3347            0.0000000000
     32361      3539  TIP3      H2             26.0614604476       12.6356499103       38.3787227765  TIP3      3347            0.0000000000
     32362      3540  TIP3      OH2            30.8038670425       13.8466350950       38.7963674198  TIP3      3348            0.0000000000
     32363      3540  TIP3      H1             30.4857411793       13.9354194686       39.7066200731  TIP3      3348            0.0000000000
     32364      3540  TIP3      H2             30.5505539087       12.9055745990       38.6051252138  TIP3      3348            0.0000000000
     32365      3541  TIP3      OH2            26.5552633858       10.7694036561       41.3846204456  TIP3      3349            0.0000000000
     32366      3541  TIP3      H1             26.0148571468       10.2093894864       41.9688269761  TIP3      3349            0.0000000000
     32367      3541  TIP3      H2             26.7718188683       10.0936051253       40.6992306816  TIP3      3349            0.0000000000
     32368      3542  TIP3      OH2            27.6104792723        8.9917063499       39.5779262273  TIP3      3350            0.0000000000
     32369      3542  TIP3      H1             27.4382306210        8.8520892031       38.6217910332  TIP3      3350            0.0000000000
     32370      3542  TIP3      H2             28.5842131562        9.0297866781       39.6482192134  TIP3      3350            0.0000000000
     32371      3543  TIP3      OH2            27.4359932694       19.7074911688       40.6982180492  TIP3      3351            0.0000000000
     32372      3543  TIP3      H1             28.4102831104       19.7573294976       40.7409461756  TIP3      3351            0.0000000000
     32373      3543  TIP3      H2             27.2876271722       20.2906917765       39.9417182524  TIP3      3351            0.0000000000
     32374      3544  TIP3      OH2            20.9666113991       14.2455791959       40.1585888241  TIP3      3352            0.0000000000
     32375      3544  TIP3      H1             21.9257458748       14.3582599284       40.3474097494  TIP3      3352            0.0000000000
     32376      3544  TIP3      H2             21.0325892534       13.5927928769       39.4293312387  TIP3      3352            0.0000000000
     32377      3545  TIP3      OH2            36.3294099659        7.3701062239       39.8119216202  TIP3      3353            0.0000000000
     32378      3545  TIP3      H1             36.5294210862        7.9848178756       39.0992055831  TIP3      3353            0.0000000000
     32379      3545  TIP3      H2             36.2213280389        6.5198562231       39.3244832921  TIP3      3353            0.0000000000
     32380      3546  TIP3      OH2            35.7524608990        4.8562497895       38.9287700648  TIP3      3354            0.0000000000
     32381      3546  TIP3      H1             36.3101912536        4.3947555567       39.5577327482  TIP3      3354            0.0000000000
     32382      3546  TIP3      H2             34.8911679618        4.4176386604       39.0698099635  TIP3      3354            0.0000000000
     32383      3547  TIP3      OH2            21.3734612581        1.7198850651       41.4823550343  TIP3      3355            0.0000000000
     32384      3547  TIP3      H1             21.8826534855        2.3896450696       40.9825102701  TIP3      3355            0.0000000000
     32385      3547  TIP3      H2             20.8062360475        2.2993320783       41.9886250092  TIP3      3355            0.0000000000
     32386      3548  TIP3      OH2            23.1223757689        3.5201349457       40.0615064607  TIP3      3356            0.0000000000
     32387      3548  TIP3      H1             23.6991507394        3.0464627903       39.4429645612  TIP3      3356            0.0000000000
     32388      3548  TIP3      H2             23.8093490745        3.9732556017       40.6040649087  TIP3      3356            0.0000000000
     32389      3549  TIP3      OH2            30.1026154170       18.9140995500       40.8725989299  TIP3      3357            0.0000000000
     32390      3549  TIP3      H1             31.0158339973       19.1785612873       40.6755715802  TIP3      3357            0.0000000000
     32391      3549  TIP3      H2             29.9170597998       18.3935845434       40.0597061738  TIP3      3357            0.0000000000
     32392      3550  TIP3      OH2            23.0927417865       18.7132738075       39.4740233543  TIP3      3358            0.0000000000
     32393      3550  TIP3      H1             22.7759303017       18.8116695800       40.3905119241  TIP3      3358            0.0000000000
     32394      3550  TIP3      H2             23.8012662925       18.0413979529       39.5919851728  TIP3      3358            0.0000000000
     32395      3551  TIP3      OH2           -26.2121394700       27.6975679430       40.1221031748  TIP3      3359            0.0000000000
     32396      3551  TIP3      H1            -25.5103441773       27.7343026106       40.8071639215  TIP3      3359            0.0000000000
     32397      3551  TIP3      H2            -25.8454867334       26.9911873863       39.5773843853  TIP3      3359            0.0000000000
     32398      3552  TIP3      OH2           -23.9583882807       28.4075970040       41.6241940859  TIP3      3360            0.0000000000
     32399      3552  TIP3      H1            -23.5732125771       28.6918447127       42.4850236620  TIP3      3360            0.0000000000
     32400      3552  TIP3      H2            -23.6022511851       29.0390920399       40.9697634734  TIP3      3360            0.0000000000
     32401      3553  TIP3      OH2           -20.1927400525       20.3306520008       41.7022628854  TIP3      3361            0.0000000000
     32402      3553  TIP3      H1            -21.1420437172       20.3931830858       41.8722956274  TIP3      3361            0.0000000000
     32403      3553  TIP3      H2            -20.0031861350       21.1643657455       41.2423596539  TIP3      3361            0.0000000000
     32404      3554  TIP3      OH2           -19.0378451728       34.6744778534       39.9380312070  TIP3      3362            0.0000000000
     32405      3554  TIP3      H1            -18.9385472382       35.6069874819       40.1789213464  TIP3      3362            0.0000000000
     32406      3554  TIP3      H2            -18.1204230818       34.3575005749       40.0230706527  TIP3      3362            0.0000000000
     32407      3555  TIP3      OH2           -22.4290878139       29.5672682331       39.5582760456  TIP3      3363            0.0000000000
     32408      3555  TIP3      H1            -22.5137036672       29.3916576400       38.5848568434  TIP3      3363            0.0000000000
     32409      3555  TIP3      H2            -21.5995891174       30.0648808556       39.5602592423  TIP3      3363            0.0000000000
     32410      3556  TIP3      OH2           -26.9050775980       23.4696723457       40.0738611621  TIP3      3364            0.0000000000
     32411      3556  TIP3      H1            -27.1816733508       23.4953895274       40.9978478217  TIP3      3364            0.0000000000
     32412      3556  TIP3      H2            -27.1892907373       22.5877656359       39.7838830541  TIP3      3364            0.0000000000
     32413      3557  TIP3      OH2           -30.0523827595       23.8759562006       39.1881724704  TIP3      3365            0.0000000000
     32414      3557  TIP3      H1            -30.5341726441       23.4841517688       39.9494013111  TIP3      3365            0.0000000000
     32415      3557  TIP3      H2            -30.7628940007       24.3020926341       38.6852749877  TIP3      3365            0.0000000000
     32416      3558  TIP3      OH2           -35.4713490390       24.3480310614       41.5564237820  TIP3      3366            0.0000000000
     32417      3558  TIP3      H1            -34.9499502806       25.0058567064       41.0609402913  TIP3      3366            0.0000000000
     32418      3558  TIP3      H2            -36.2208459405       24.8300396468       41.9149406182  TIP3      3366            0.0000000000
     32419      3559  TIP3      OH2           -31.3640755216       26.6076766020       40.6312390074  TIP3      3367            0.0000000000
     32420      3559  TIP3      H1            -31.9231967287       26.3032927348       39.8880730153  TIP3      3367            0.0000000000
     32421      3559  TIP3      H2            -30.5754927630       26.8922163922       40.1449557750  TIP3      3367            0.0000000000
     32422      3560  TIP3      OH2           -24.1883679312       24.0585444641       40.6774601318  TIP3      3368            0.0000000000
     32423      3560  TIP3      H1            -25.1485862488       24.1842634154       40.6116870733  TIP3      3368            0.0000000000
     32424      3560  TIP3      H2            -23.8733987794       24.8707469951       41.1286322788  TIP3      3368            0.0000000000
     32425      3561  TIP3      OH2           -23.4647475323       25.9601358186       42.3500704015  TIP3      3369            0.0000000000
     32426      3561  TIP3      H1            -22.5630591197       25.8316579323       42.6798160760  TIP3      3369            0.0000000000
     32427      3561  TIP3      H2            -23.4030860193       26.7698173693       41.8110476813  TIP3      3369            0.0000000000
     32428      3562  TIP3      OH2           -25.9217218772       32.6599557667       41.5678539183  TIP3      3370            0.0000000000
     32429      3562  TIP3      H1            -26.2935197902       33.5049492795       41.8610273451  TIP3      3370            0.0000000000
     32430      3562  TIP3      H2            -26.6359940474       32.0554753990       41.7913914687  TIP3      3370            0.0000000000
     32431      3563  TIP3      OH2           -18.4074011112       26.1607426439       41.9915395600  TIP3      3371            0.0000000000
     32432      3563  TIP3      H1            -19.0482417509       25.7961407745       41.3371715751  TIP3      3371            0.0000000000
     32433      3563  TIP3      H2            -18.4276673597       27.1033993627       41.7396903335  TIP3      3371            0.0000000000
     32434      3564  TIP3      OH2           -34.8735698732       28.9168423893       40.2804402511  TIP3      3372            0.0000000000
     32435      3564  TIP3      H1            -34.2271255415       29.5223372354       40.7313941592  TIP3      3372            0.0000000000
     32436      3564  TIP3      H2            -35.7006958476       29.2865550399       40.5853291456  TIP3      3372            0.0000000000
     32437      3565  TIP3      OH2           -22.8121716658       32.8626977834       40.3082908264  TIP3      3373            0.0000000000
     32438      3565  TIP3      H1            -22.5272149185       32.6204286823       41.1949789654  TIP3      3373            0.0000000000
     32439      3565  TIP3      H2            -23.7811863333       32.8434823897       40.4249200161  TIP3      3373            0.0000000000
     32440      3566  TIP3      OH2           -28.7134369755       34.0407560991       38.8142660140  TIP3      3374            0.0000000000
     32441      3566  TIP3      H1            -28.6412527560       33.2461864364       38.2648740968  TIP3      3374            0.0000000000
     32442      3566  TIP3      H2            -29.1077140590       33.6550111667       39.6301511461  TIP3      3374            0.0000000000
     32443      3567  TIP3      OH2           -29.9529838186       33.5330070624       41.2874514488  TIP3      3375            0.0000000000
     32444      3567  TIP3      H1            -29.7052471369       33.0801059226       42.1059150908  TIP3      3375            0.0000000000
     32445      3567  TIP3      H2            -29.8349564596       34.4604098748       41.5545585257  TIP3      3375            0.0000000000
     32446      3568  TIP3      OH2           -33.5795735150       30.8220184154       41.6435722720  TIP3      3376            0.0000000000
     32447      3568  TIP3      H1            -34.0401763943       31.1578996639       42.4060975330  TIP3      3376            0.0000000000
     32448      3568  TIP3      H2            -32.9010389106       31.5243810584       41.5169383383  TIP3      3376            0.0000000000
     32449      3569  TIP3      OH2           -27.4877597642       34.9325547405       41.4205955099  TIP3      3377            0.0000000000
     32450      3569  TIP3      H1            -28.0994915691       35.5726310139       41.8381995208  TIP3      3377            0.0000000000
     32451      3569  TIP3      H2            -26.7617336283       35.5336372169       41.1632913817  TIP3      3377            0.0000000000
     32452      3570  TIP3      OH2           -29.6106492832      -37.0642668422       42.1061280993  TIP3      3378            0.0000000000
     32453      3570  TIP3      H1            -29.7405017307      -36.3483084481       41.4606147568  TIP3      3378            0.0000000000
     32454      3570  TIP3      H2            -30.0841858838      -36.7611517058       42.8848993951  TIP3      3378            0.0000000000
     32455      3571  TIP3      OH2           -31.1835470227       22.8621341916       41.4020830410  TIP3      3379            0.0000000000
     32456      3571  TIP3      H1            -31.4018311438       23.7009848596       41.8194321748  TIP3      3379            0.0000000000
     32457      3571  TIP3      H2            -30.2929319328       22.7297918840       41.7664559768  TIP3      3379            0.0000000000
     32458      3572  TIP3      OH2           -32.8358548373       33.4415874362       40.6626868724  TIP3      3380            0.0000000000
     32459      3572  TIP3      H1            -32.2418645704       34.1312345037       40.9926413910  TIP3      3380            0.0000000000
     32460      3572  TIP3      H2            -32.2764162803       33.0047314980       39.9938908127  TIP3      3380            0.0000000000
     32461      3573  TIP3      OH2           -34.4042307801       26.1393577683       39.6954703225  TIP3      3381            0.0000000000
     32462      3573  TIP3      H1            -34.4494010663       27.0617305529       40.0030965012  TIP3      3381            0.0000000000
     32463      3573  TIP3      H2            -35.3385003630       25.9250698642       39.5717064777  TIP3      3381            0.0000000000
     32464      3574  TIP3      OH2           -26.6824218041       35.8875563674       39.0660894407  TIP3      3382            0.0000000000
     32465      3574  TIP3      H1            -27.3957459184       35.2233748294       39.1893130354  TIP3      3382            0.0000000000
     32466      3574  TIP3      H2            -25.9873287031       35.3447098310       38.6780015033  TIP3      3382            0.0000000000
     32467      3575  TIP3      OH2           -22.0881903787       35.6113447787       39.2171920985  TIP3      3383            0.0000000000
     32468      3575  TIP3      H1            -21.7832902724       34.8357490944       39.6910597289  TIP3      3383            0.0000000000
     32469      3575  TIP3      H2            -21.3231332368       35.8235324404       38.6431086224  TIP3      3383            0.0000000000
     32470      3576  TIP3      OH2           -31.2588245259       31.6068230505       38.9798392660  TIP3      3384            0.0000000000
     32471      3576  TIP3      H1            -31.0998726261       30.8503372185       39.5637682350  TIP3      3384            0.0000000000
     32472      3576  TIP3      H2            -30.5038606843       31.5054672537       38.3698342344  TIP3      3384            0.0000000000
     32473      3577  TIP3      OH2           -25.7618432166       32.6858703337       38.7892304174  TIP3      3385            0.0000000000
     32474      3577  TIP3      H1            -26.0902147463       32.8014903953       39.6952965024  TIP3      3385            0.0000000000
     32475      3577  TIP3      H2            -26.0092229398       31.7472373184       38.6183213839  TIP3      3385            0.0000000000
     32476      3578  TIP3      OH2           -30.0611093528       29.5865917261       41.3214107002  TIP3      3386            0.0000000000
     32477      3578  TIP3      H1            -30.5129740293       29.0601826858       41.9978170561  TIP3      3386            0.0000000000
     32478      3578  TIP3      H2            -29.7459567728       28.9140178572       40.6799792003  TIP3      3386            0.0000000000
     32479      3579  TIP3      OH2           -28.9938134581       27.8106428253       39.5777957187  TIP3      3387            0.0000000000
     32480      3579  TIP3      H1            -29.1120788910       27.7379404701       38.6053684828  TIP3      3387            0.0000000000
     32481      3579  TIP3      H2            -28.0171844779       27.8938199083       39.6696000690  TIP3      3387            0.0000000000
     32482      3580  TIP3      OH2           -19.6362956721       30.1831086992       39.0889522509  TIP3      3388            0.0000000000
     32483      3580  TIP3      H1            -19.8087481953       29.7917732498       38.2118682053  TIP3      3388            0.0000000000
     32484      3580  TIP3      H2            -19.5610811680       31.1371137987       38.8386950040  TIP3      3388            0.0000000000
     32485      3581  TIP3      OH2           -35.4685272446       33.1685756766       40.2106477356  TIP3      3389            0.0000000000
     32486      3581  TIP3      H1            -34.5052859093       33.2322095470       40.3652313870  TIP3      3389            0.0000000000
     32487      3581  TIP3      H2            -35.4730646738       32.5035451052       39.5000499982  TIP3      3389            0.0000000000
     32488      3582  TIP3      OH2           -18.3931423484       28.9234972555       41.1521646195  TIP3      3390            0.0000000000
     32489      3582  TIP3      H1            -18.9141795392       29.3331296719       40.4171304200  TIP3      3390            0.0000000000
     32490      3582  TIP3      H2            -18.4203330525       29.5880018794       41.8704439076  TIP3      3390            0.0000000000
     32491      3583  TIP3      OH2           -20.0749427025       26.2389278927       39.7853201116  TIP3      3391            0.0000000000
     32492      3583  TIP3      H1            -20.0086629099       26.8675381104       39.0586481734  TIP3      3391            0.0000000000
     32493      3583  TIP3      H2            -20.2674598519       25.3972610195       39.3136558782  TIP3      3391            0.0000000000
     32494      3584  TIP3      OH2           -20.8374103768       23.6710848885       38.9215252618  TIP3      3392            0.0000000000
     32495      3584  TIP3      H1            -20.2396359631       23.2392976260       39.5590043777  TIP3      3392            0.0000000000
     32496      3584  TIP3      H2            -21.6938743161       23.2631698697       39.1230607785  TIP3      3392            0.0000000000
     32497      3585  TIP3      OH2           -18.7834266150       22.5258864058       40.4550179604  TIP3      3393            0.0000000000
     32498      3585  TIP3      H1            -18.3526285695       21.7882282728       39.9708145482  TIP3      3393            0.0000000000
     32499      3585  TIP3      H2            -18.0542719316       23.1628757448       40.5551065878  TIP3      3393            0.0000000000
     32500      3586  TIP3      OH2           -34.7968587978       20.6993060561       41.5922238888  TIP3      3394            0.0000000000
     32501      3586  TIP3      H1            -34.6244628189       21.3487926703       40.9083599261  TIP3      3394            0.0000000000
     32502      3586  TIP3      H2            -35.6025446490       20.9993235442       42.0351975103  TIP3      3394            0.0000000000
     32503      3587  TIP3      OH2           -33.3865170155       22.5382143195       39.9521287347  TIP3      3395            0.0000000000
     32504      3587  TIP3      H1            -32.8673221778       21.8702675951       39.4650035880  TIP3      3395            0.0000000000
     32505      3587  TIP3      H2            -32.7718905569       22.7566844743       40.6812838357  TIP3      3395            0.0000000000
     32506      3588  TIP3      OH2            -7.3555077573       27.7008769463       40.1209905209  TIP3      3396            0.0000000000
     32507      3588  TIP3      H1             -6.6547573499       27.7352609249       40.8098496326  TIP3      3396            0.0000000000
     32508      3588  TIP3      H2             -6.9893747699       26.9915159265       39.5779634795  TIP3      3396            0.0000000000
     32509      3589  TIP3      OH2            -5.1024974344       28.4079716372       41.6241913924  TIP3      3397            0.0000000000
     32510      3589  TIP3      H1             -4.7171282153       28.6917903507       42.4850229351  TIP3      3397            0.0000000000
     32511      3589  TIP3      H2             -4.7460835336       29.0391037969       40.9695258473  TIP3      3397            0.0000000000
     32512      3590  TIP3      OH2            -1.3343078628       20.3101467961       41.6931648189  TIP3      3398            0.0000000000
     32513      3590  TIP3      H1             -2.2798142709       20.3771862021       41.8719158670  TIP3      3398            0.0000000000
     32514      3590  TIP3      H2             -1.1472731990       21.1529089891       41.2470353388  TIP3      3398            0.0000000000
     32515      3591  TIP3      OH2            -0.1810525265       34.6792867125       39.9380634898  TIP3      3399            0.0000000000
     32516      3591  TIP3      H1             -0.0783790838       35.6092744746       40.1787650162  TIP3      3399            0.0000000000
     32517      3591  TIP3      H2              0.7312508785       34.3446545933       40.0163612130  TIP3      3399            0.0000000000
     32518      3592  TIP3      OH2            -3.5730850444       29.5672817026       39.5582171112  TIP3      3400            0.0000000000
     32519      3592  TIP3      H1             -3.6576707180       29.3915989442       38.5848383300  TIP3      3400            0.0000000000
     32520      3592  TIP3      H2             -2.7436082049       30.0648531867       39.5601996738  TIP3      3400            0.0000000000
     32521      3593  TIP3      OH2            -8.0498058609       23.4696834172       40.0735713173  TIP3      3401            0.0000000000
     32522      3593  TIP3      H1             -8.3253690993       23.4955913490       40.9979691416  TIP3      3401            0.0000000000
     32523      3593  TIP3      H2             -8.3330404105       22.5874104110       39.7837612822  TIP3      3401            0.0000000000
     32524      3594  TIP3      OH2           -11.2100486189       23.8784023218       39.1985733178  TIP3      3402            0.0000000000
     32525      3594  TIP3      H1            -11.6900374075       23.4794960963       39.9537196105  TIP3      3402            0.0000000000
     32526      3594  TIP3      H2            -11.9129457692       24.3040661424       38.6864854287  TIP3      3402            0.0000000000
     32527      3595  TIP3      OH2           -16.7123953408       24.2350066504       41.5632988001  TIP3      3403            0.0000000000
     32528      3595  TIP3      H1            -16.1425881818       24.8972199571       41.1211635969  TIP3      3403            0.0000000000
     32529      3595  TIP3      H2            -17.3379678119       24.8666384069       41.9695417776  TIP3      3403            0.0000000000
     32530      3596  TIP3      OH2           -12.5020504952       26.6019355200       40.6359882845  TIP3      3404            0.0000000000
     32531      3596  TIP3      H1            -13.0666652829       26.2936571758       39.9036139891  TIP3      3404            0.0000000000
     32532      3596  TIP3      H2            -11.7217414927       26.8902268508       40.1389626590  TIP3      3404            0.0000000000
     32533      3597  TIP3      OH2            -5.3295388704       24.0576107449       40.6778561636  TIP3      3405            0.0000000000
     32534      3597  TIP3      H1             -6.2881391814       24.1844805440       40.6123233890  TIP3      3405            0.0000000000
     32535      3597  TIP3      H2             -5.0165619162       24.8698936973       41.1293182905  TIP3      3405            0.0000000000
     32536      3598  TIP3      OH2            -4.6087935779       25.9609769660       42.3502752158  TIP3      3406            0.0000000000
     32537      3598  TIP3      H1             -3.7070340050       25.8319547148       42.6796333769  TIP3      3406            0.0000000000
     32538      3598  TIP3      H2             -4.5467976598       26.7703871519       41.8107526249  TIP3      3406            0.0000000000
     32539      3599  TIP3      OH2            -7.0664692129       32.6705476489       41.5688231675  TIP3      3407            0.0000000000
     32540      3599  TIP3      H1             -7.4326106932       33.5214462079       41.8580284632  TIP3      3407            0.0000000000
     32541      3599  TIP3      H2             -7.7812690047       32.0641966538       41.7916580562  TIP3      3407            0.0000000000
     32542      3600  TIP3      OH2             0.4497454119       26.1612983034       41.9938341560  TIP3      3408            0.0000000000
     32543      3600  TIP3      H1             -0.1932751588       25.7976928855       41.3377559977  TIP3      3408            0.0000000000
     32544      3600  TIP3      H2              0.4287275750       27.1041240079       41.7398775427  TIP3      3408            0.0000000000
     32545      3601  TIP3      OH2           -15.9300240487       28.9498427034       40.2224713547  TIP3      3409            0.0000000000
     32546      3601  TIP3      H1            -15.3413179650       29.5364857739       40.7524385572  TIP3      3409            0.0000000000
     32547      3601  TIP3      H2            -16.8120664435       29.2073548410       40.5454688972  TIP3      3409            0.0000000000
     32548      3602  TIP3      OH2            -3.9560753588       32.8636037634       40.3084724185  TIP3      3410            0.0000000000
     32549      3602  TIP3      H1             -3.6706216519       32.6210568259       41.1948482353  TIP3      3410            0.0000000000
     32550      3602  TIP3      H2             -4.9256453225       32.8431030290       40.4247221798  TIP3      3410            0.0000000000
     32551      3603  TIP3      OH2            -9.8721174844       34.0328902117       38.8127114618  TIP3      3411            0.0000000000
     32552      3603  TIP3      H1             -9.7687430044       33.2312137392       38.2809991579  TIP3      3411            0.0000000000
     32553      3603  TIP3      H2            -10.2593391026       33.6568529684       39.6315799401  TIP3      3411            0.0000000000
     32554      3604  TIP3      OH2           -11.0904346499       33.5387739414       41.2913243883  TIP3      3412            0.0000000000
     32555      3604  TIP3      H1            -10.8491305215       33.0812750129       42.1101944313  TIP3      3412            0.0000000000
     32556      3604  TIP3      H2            -10.9520215647       34.4663687390       41.5550319378  TIP3      3412            0.0000000000
     32557      3605  TIP3      OH2           -14.7039393532       30.8638628109       41.6549036623  TIP3      3413            0.0000000000
     32558      3605  TIP3      H1            -15.2251945729       31.1721368341       42.3921220789  TIP3      3413            0.0000000000
     32559      3605  TIP3      H2            -14.0175187207       31.5542207050       41.5402436098  TIP3      3413            0.0000000000
     32560      3606  TIP3      OH2            -8.6249699208       34.9459341537       41.4075699485  TIP3      3414            0.0000000000
     32561      3606  TIP3      H1             -9.2255290207       35.5899932911       41.8331774392  TIP3      3414            0.0000000000
     32562      3606  TIP3      H2             -7.9035424869       35.5641150346       41.1733266809  TIP3      3414            0.0000000000
     32563      3607  TIP3      OH2           -10.7929755439      -37.0759539332       42.0823808304  TIP3      3415            0.0000000000
     32564      3607  TIP3      H1            -10.8791502333      -36.3254867605       41.4660455394  TIP3      3415            0.0000000000
     32565      3607  TIP3      H2            -11.2043636436      -36.7451983410       42.8831408648  TIP3      3415            0.0000000000
     32566      3608  TIP3      OH2           -12.3483611515       22.8535943792       41.4056086474  TIP3      3416            0.0000000000
     32567      3608  TIP3      H1            -12.5273840833       23.7139259331       41.8023338555  TIP3      3416            0.0000000000
     32568      3608  TIP3      H2            -11.4516441623       22.7192658426       41.7598520015  TIP3      3416            0.0000000000
     32569      3609  TIP3      OH2           -14.0200433022       33.4955029284       40.6425100471  TIP3      3417            0.0000000000
     32570      3609  TIP3      H1            -13.3638411881       34.1170589558       40.9878961477  TIP3      3417            0.0000000000
     32571      3609  TIP3      H2            -13.4585328057       33.0283731940       39.9983396015  TIP3      3417            0.0000000000
     32572      3610  TIP3      OH2           -15.6501256267       26.1381381762       39.8176982269  TIP3      3418            0.0000000000
     32573      3610  TIP3      H1            -15.6629116739       27.0974839181       40.0155927357  TIP3      3418            0.0000000000
     32574      3610  TIP3      H2            -16.5405154524       25.9430552292       39.5238000790  TIP3      3418            0.0000000000
     32575      3611  TIP3      OH2            -7.8499097657       35.8890338759       39.0240653211  TIP3      3419            0.0000000000
     32576      3611  TIP3      H1             -8.5406620289       35.2223104105       39.2051233777  TIP3      3419            0.0000000000
     32577      3611  TIP3      H2             -7.1222420954       35.3452216489       38.7004792405  TIP3      3419            0.0000000000
     32578      3612  TIP3      OH2            -3.2230093849       35.6072336609       39.2151800615  TIP3      3420            0.0000000000
     32579      3612  TIP3      H1             -2.9185759779       34.8276605775       39.6849660582  TIP3      3420            0.0000000000
     32580      3612  TIP3      H2             -2.4719349594       35.8135151173       38.6239618894  TIP3      3420            0.0000000000
     32581      3613  TIP3      OH2           -12.3933576658       31.5969545653       38.9857838957  TIP3      3421            0.0000000000
     32582      3613  TIP3      H1            -12.2357245203       30.8409339214       39.5714862393  TIP3      3421            0.0000000000
     32583      3613  TIP3      H2            -11.6403015890       31.5002265599       38.3727874069  TIP3      3421            0.0000000000
     32584      3614  TIP3      OH2            -6.9040274482       32.6845882895       38.7896061324  TIP3      3422            0.0000000000
     32585      3614  TIP3      H1             -7.2341616701       32.8010571685       39.6948686543  TIP3      3422            0.0000000000
     32586      3614  TIP3      H2             -7.1519184841       31.7459943901       38.6176815350  TIP3      3422            0.0000000000
     32587      3615  TIP3      OH2           -11.2070749391       29.5854313676       41.3244974355  TIP3      3423            0.0000000000
     32588      3615  TIP3      H1            -11.6615476567       29.0630782848       42.0016945961  TIP3      3423            0.0000000000
     32589      3615  TIP3      H2            -10.9046347636       28.9089141636       40.6848593535  TIP3      3423            0.0000000000
     32590      3616  TIP3      OH2           -10.1210995216       27.8034534163       39.5787470773  TIP3      3424            0.0000000000
     32591      3616  TIP3      H1            -10.2521250950       27.7361977012       38.6069020396  TIP3      3424            0.0000000000
     32592      3616  TIP3      H2             -9.1468650115       27.8936456094       39.6667034601  TIP3      3424            0.0000000000
     32593      3617  TIP3      OH2            -0.7803137995       30.1829358079       39.0889351218  TIP3      3425            0.0000000000
     32594      3617  TIP3      H1             -0.9524164924       29.7914538386       38.2116601158  TIP3      3425            0.0000000000
     32595      3617  TIP3      H2             -0.7049433245       31.1367663459       38.8384108047  TIP3      3425            0.0000000000
     32596      3618  TIP3      OH2           -16.7228908709       33.1185381150       40.1285640710  TIP3      3426            0.0000000000
     32597      3618  TIP3      H1            -15.7729331258       33.2174097133       40.3570379770  TIP3      3426            0.0000000000
     32598      3618  TIP3      H2            -16.6620724259       32.4349463837       39.4341130963  TIP3      3426            0.0000000000
     32599      3619  TIP3      OH2             0.4622718511       28.9233778613       41.1524814968  TIP3      3427            0.0000000000
     32600      3619  TIP3      H1             -0.0583269030       29.3326219296       40.4175388155  TIP3      3427            0.0000000000
     32601      3619  TIP3      H2              0.4353859517       29.5877977620       41.8707245474  TIP3      3427            0.0000000000
     32602      3620  TIP3      OH2            -1.2189986552       26.2388887762       39.7850302409  TIP3      3428            0.0000000000
     32603      3620  TIP3      H1             -1.1514706492       26.8679399309       39.0583625856  TIP3      3428            0.0000000000
     32604      3620  TIP3      H2             -1.4109936328       25.3973009215       39.3125762880  TIP3      3428            0.0000000000
     32605      3621  TIP3      OH2            -1.9813898405       23.6706908214       38.9213187276  TIP3      3429            0.0000000000
     32606      3621  TIP3      H1             -1.3837983243       23.2395248807       39.5593159915  TIP3      3429            0.0000000000
     32607      3621  TIP3      H2             -2.8379116632       23.2633690062       39.1231923853  TIP3      3429            0.0000000000
     32608      3622  TIP3      OH2             0.0725827618       22.5250533987       40.4547586667  TIP3      3430            0.0000000000
     32609      3622  TIP3      H1              0.5037988991       21.7881346957       39.9707099250  TIP3      3430            0.0000000000
     32610      3622  TIP3      H2              0.8010166111       23.1630914384       40.5543989583  TIP3      3430            0.0000000000
     32611      3623  TIP3      OH2           -16.3391422909       20.5766084998       41.4895468362  TIP3      3431            0.0000000000
     32612      3623  TIP3      H1            -15.8534432545       21.2327505374       40.9715748842  TIP3      3431            0.0000000000
     32613      3623  TIP3      H2            -16.9111460980       21.1551926704       41.9910880785  TIP3      3431            0.0000000000
     32614      3624  TIP3      OH2           -14.5357610883       22.5160203666       39.9775966976  TIP3      3432            0.0000000000
     32615      3624  TIP3      H1            -14.0274459174       21.8712502157       39.4533769468  TIP3      3432            0.0000000000
     32616      3624  TIP3      H2            -13.8839824448       22.7649409273       40.6649424797  TIP3      3432            0.0000000000
     32617      3625  TIP3      OH2            11.5044787887       27.7065025246       40.1107604595  TIP3      3433            0.0000000000
     32618      3625  TIP3      H1             12.1835738206       27.7125200353       40.8258239603  TIP3      3433            0.0000000000
     32619      3625  TIP3      H2             11.8672254635       26.9899327221       39.5752185566  TIP3      3433            0.0000000000
     32620      3626  TIP3      OH2            13.7567501616       28.4265690423       41.6080805893  TIP3      3434            0.0000000000
     32621      3626  TIP3      H1             14.1248901888       28.6810723645       42.4872159995  TIP3      3434            0.0000000000
     32622      3626  TIP3      H2             14.1314825746       29.0516078937       40.9638929019  TIP3      3434            0.0000000000
     32623      3627  TIP3      OH2            17.5214727572       20.3107728137       41.6848956626  TIP3      3435            0.0000000000
     32624      3627  TIP3      H1             16.5801902019       20.3746824199       41.8728423380  TIP3      3435            0.0000000000
     32625      3627  TIP3      H2             17.6969758492       21.1621931634       41.2555308246  TIP3      3435            0.0000000000
     32626      3628  TIP3      OH2            18.6665093719       34.6912808252       39.9301327465  TIP3      3436            0.0000000000
     32627      3628  TIP3      H1             18.7802056031       35.6151242558       40.1815040338  TIP3      3436            0.0000000000
     32628      3628  TIP3      H2             19.5776255842       34.3461156026       40.0177016806  TIP3      3436            0.0000000000
     32629      3629  TIP3      OH2            15.2915064985       29.5716057318       39.5501009206  TIP3      3437            0.0000000000
     32630      3629  TIP3      H1             15.2013421004       29.3871545528       38.5801036204  TIP3      3437            0.0000000000
     32631      3629  TIP3      H2             16.1194215421       30.0684465568       39.5547439199  TIP3      3437            0.0000000000
     32632      3630  TIP3      OH2            10.8000031661       23.4712571424       40.0674364631  TIP3      3438            0.0000000000
     32633      3630  TIP3      H1             10.5358680174       23.4981240562       41.0068869587  TIP3      3438            0.0000000000
     32634      3630  TIP3      H2             10.5193111535       22.5863990638       39.7875860665  TIP3      3438            0.0000000000
     32635      3631  TIP3      OH2             7.6543309259       23.8791323790       39.2130292832  TIP3      3439            0.0000000000
     32636      3631  TIP3      H1              7.1714721804       23.4750614775       39.9628133698  TIP3      3439            0.0000000000
     32637      3631  TIP3      H2              6.9530873468       24.3036866012       38.7010043899  TIP3      3439            0.0000000000
     32638      3632  TIP3      OH2             2.1434284809       24.2351272567       41.5612694394  TIP3      3440            0.0000000000
     32639      3632  TIP3      H1              2.7133512472       24.8981146617       41.1208754906  TIP3      3440            0.0000000000
     32640      3632  TIP3      H2              1.5186763420       24.8669127040       41.9692521743  TIP3      3440            0.0000000000
     32641      3633  TIP3      OH2             6.3318659136       26.6299422574       40.6233011040  TIP3      3441            0.0000000000
     32642      3633  TIP3      H1              5.7833304060       26.3091509834       39.8853816667  TIP3      3441            0.0000000000
     32643      3633  TIP3      H2              7.1413930668       26.8771986830       40.1496909371  TIP3      3441            0.0000000000
     32644      3634  TIP3      OH2            13.5281499776       24.0694219738       40.6390676426  TIP3      3442            0.0000000000
     32645      3634  TIP3      H1             12.5655206765       24.1872933852       40.6364604889  TIP3      3442            0.0000000000
     32646      3634  TIP3      H2             13.8389391969       24.8563563051       41.1442723688  TIP3      3442            0.0000000000
     32647      3635  TIP3      OH2            14.2598609012       25.9776124885       42.2478845269  TIP3      3443            0.0000000000
     32648      3635  TIP3      H1             15.1105080658       25.8342808069       42.6927427412  TIP3      3443            0.0000000000
     32649      3635  TIP3      H2             14.3228840399       26.8253615928       41.7936604930  TIP3      3443            0.0000000000
     32650      3636  TIP3      OH2            11.7883096009       32.6662876245       41.5768068406  TIP3      3444            0.0000000000
     32651      3636  TIP3      H1             11.4225719697       33.5193014700       41.8589178737  TIP3      3444            0.0000000000
     32652      3636  TIP3      H2             11.0712013379       32.0604238059       41.7939506209  TIP3      3444            0.0000000000
     32653      3637  TIP3      OH2            19.3027350700       26.1574614243       41.9926120452  TIP3      3445            0.0000000000
     32654      3637  TIP3      H1             18.6490950421       25.7874369275       41.3510184537  TIP3      3445            0.0000000000
     32655      3637  TIP3      H2             19.2784737868       27.0995846099       41.7381704631  TIP3      3445            0.0000000000
     32656      3638  TIP3      OH2             2.9254616591       28.9491179240       40.2234864181  TIP3      3446            0.0000000000
     32657      3638  TIP3      H1              3.5145225652       29.5363347492       40.7497693707  TIP3      3446            0.0000000000
     32658      3638  TIP3      H2              2.0435399393       29.2074305428       40.5456491271  TIP3      3446            0.0000000000
     32659      3639  TIP3      OH2            14.9028881758       32.8617693092       40.3091895315  TIP3      3447            0.0000000000
     32660      3639  TIP3      H1             15.1858258406       32.6200679089       41.1962704023  TIP3      3447            0.0000000000
     32661      3639  TIP3      H2             13.9353315602       32.8454947295       40.4287106724  TIP3      3447            0.0000000000
     32662      3640  TIP3      OH2             8.9954793059       34.0391026193       38.8158552392  TIP3      3448            0.0000000000
     32663      3640  TIP3      H1              9.0729975257       33.2465583559       38.2650947139  TIP3      3448            0.0000000000
     32664      3640  TIP3      H2              8.6018733346       33.6523457252       39.6308697665  TIP3      3448            0.0000000000
     32665      3641  TIP3      OH2             7.7647663468       33.5328553828       41.2898968663  TIP3      3449            0.0000000000
     32666      3641  TIP3      H1              8.0053687247       33.0766012926       42.1082214870  TIP3      3449            0.0000000000
     32667      3641  TIP3      H2              7.9170598531       34.4568291035       41.5570859298  TIP3      3449            0.0000000000
     32668      3642  TIP3      OH2             4.1506789882       30.8656966460       41.6537740764  TIP3      3450            0.0000000000
     32669      3642  TIP3      H1              3.6315186088       31.1717883723       42.3933236220  TIP3      3450            0.0000000000
     32670      3642  TIP3      H2              4.8391115238       31.5557642308       41.5388057026  TIP3      3450            0.0000000000
     32671      3643  TIP3      OH2            10.2241857338       34.9510018960       41.4074257995  TIP3      3451            0.0000000000
     32672      3643  TIP3      H1              9.6304515774       35.5953834763       41.8364704017  TIP3      3451            0.0000000000
     32673      3643  TIP3      H2             10.9540356246       35.5593915240       41.1722811309  TIP3      3451            0.0000000000
     32674      3644  TIP3      OH2             8.0490316168      -37.0908435802       42.0910930398  TIP3      3452            0.0000000000
     32675      3644  TIP3      H1              8.0112881030      -36.3423228942       41.4699550541  TIP3      3452            0.0000000000
     32676      3644  TIP3      H2              7.6589404817      -36.7399052732       42.8929448292  TIP3      3452            0.0000000000
     32677      3645  TIP3      OH2             6.5230969995       22.8605317613       41.4204201384  TIP3      3453            0.0000000000
     32678      3645  TIP3      H1              6.3295446918       23.7193971923       41.8074825953  TIP3      3453            0.0000000000
     32679      3645  TIP3      H2              7.4259027928       22.7384506238       41.7773882728  TIP3      3453            0.0000000000
     32680      3646  TIP3      OH2             4.8396277663       33.4857507088       40.6398344571  TIP3      3454            0.0000000000
     32681      3646  TIP3      H1              5.5005649351       34.1076799402       40.9746879532  TIP3      3454            0.0000000000
     32682      3646  TIP3      H2              5.3998263871       33.0051485627       40.0028555501  TIP3      3454            0.0000000000
     32683      3647  TIP3      OH2             3.2025534469       26.1389896593       39.8153905668  TIP3      3455            0.0000000000
     32684      3647  TIP3      H1              3.1912432628       27.0979190910       40.0143688616  TIP3      3455            0.0000000000
     32685      3647  TIP3      H2              2.3115856374       25.9449446205       39.5226924595  TIP3      3455            0.0000000000
     32686      3648  TIP3      OH2            11.0154620615       35.8925556403       39.0121540942  TIP3      3456            0.0000000000
     32687      3648  TIP3      H1             10.3269345821       35.2236496293       39.2003460486  TIP3      3456            0.0000000000
     32688      3648  TIP3      H2             11.7475499344       35.3574363223       38.6915349926  TIP3      3456            0.0000000000
     32689      3649  TIP3      OH2            15.6419731802       35.6010178284       39.2476599719  TIP3      3457            0.0000000000
     32690      3649  TIP3      H1             15.9487590851       34.8117584666       39.6883014166  TIP3      3457            0.0000000000
     32691      3649  TIP3      H2             16.3663689230       35.8199142360       38.6253635487  TIP3      3457            0.0000000000
     32692      3650  TIP3      OH2             6.4642020887       31.6054485444       38.9837282128  TIP3      3458            0.0000000000
     32693      3650  TIP3      H1              6.6165262266       30.8461695868       39.5652039422  TIP3      3458            0.0000000000
     32694      3650  TIP3      H2              7.2163572402       31.4999802037       38.3706920470  TIP3      3458            0.0000000000
     32695      3651  TIP3      OH2            11.9497704288       32.6839208869       38.7908791507  TIP3      3459            0.0000000000
     32696      3651  TIP3      H1             11.6222096392       32.8000326847       39.6963336657  TIP3      3459            0.0000000000
     32697      3651  TIP3      H2             11.7033012168       31.7455613502       38.6169915394  TIP3      3459            0.0000000000
     32698      3652  TIP3      OH2             7.6423434855       29.5895736715       41.3181179071  TIP3      3460            0.0000000000
     32699      3652  TIP3      H1              7.1991382673       29.0649874960       42.0021558162  TIP3      3460            0.0000000000
     32700      3652  TIP3      H2              7.9516341649       28.9101927716       40.6853637018  TIP3      3460            0.0000000000
     32701      3653  TIP3      OH2             8.7373740321       27.7977596508       39.5858203262  TIP3      3461            0.0000000000
     32702      3653  TIP3      H1              8.6125580206       27.7373848524       38.6155853686  TIP3      3461            0.0000000000
     32703      3653  TIP3      H2              9.7119792024       27.8773477011       39.6803075593  TIP3      3461            0.0000000000
     32704      3654  TIP3      OH2            18.0752861226       30.1814738438       39.0889216118  TIP3      3462            0.0000000000
     32705      3654  TIP3      H1             17.9033630416       29.7912840969       38.2109880272  TIP3      3462            0.0000000000
     32706      3654  TIP3      H2             18.1523648325       31.1356773166       38.8395612862  TIP3      3462            0.0000000000
     32707      3655  TIP3      OH2             2.1496524734       33.1539911709       40.1080403129  TIP3      3463            0.0000000000
     32708      3655  TIP3      H1              3.0957450239       33.2096141468       40.3546323927  TIP3      3463            0.0000000000
     32709      3655  TIP3      H2              2.1932160927       32.4445028615       39.4370316547  TIP3      3463            0.0000000000
     32710      3656  TIP3      OH2            19.3103454525       28.9186972760       41.1514064548  TIP3      3464            0.0000000000
     32711      3656  TIP3      H1             18.7965526784       29.3374429959       40.4187213252  TIP3      3464            0.0000000000
     32712      3656  TIP3      H2             19.3144102410       29.5853472556       41.8712195942  TIP3      3464            0.0000000000
     32713      3657  TIP3      OH2            17.6259189201       26.2391343520       39.7847592219  TIP3      3465            0.0000000000
     32714      3657  TIP3      H1             17.7015821210       26.8670602884       39.0581984385  TIP3      3465            0.0000000000
     32715      3657  TIP3      H2             17.4456696524       25.3988108377       39.3073143921  TIP3      3465            0.0000000000
     32716      3658  TIP3      OH2            16.8895629262       23.6533260950       38.8896418303  TIP3      3466            0.0000000000
     32717      3658  TIP3      H1             17.4426259785       23.2587156194       39.5881930739  TIP3      3466            0.0000000000
     32718      3658  TIP3      H2             16.0222521489       23.2722133909       39.1017024633  TIP3      3466            0.0000000000
     32719      3659  TIP3      OH2            18.9259245545       22.5344202717       40.4587120172  TIP3      3467            0.0000000000
     32720      3659  TIP3      H1             19.3457105925       21.7805202470       39.9882097516  TIP3      3467            0.0000000000
     32721      3659  TIP3      H2             19.6464877002       23.1766588031       40.5849840143  TIP3      3467            0.0000000000
     32722      3660  TIP3      OH2             2.5106999087       20.5559339172       41.4984323602  TIP3      3468            0.0000000000
     32723      3660  TIP3      H1              3.0007118296       21.2143161628       40.9797243581  TIP3      3468            0.0000000000
     32724      3660  TIP3      H2              1.9429409452       21.1459869587       41.9945503753  TIP3      3468            0.0000000000
     32725      3661  TIP3      OH2             4.3280373919       22.5164100217       39.9844916427  TIP3      3469            0.0000000000
     32726      3661  TIP3      H1              4.8296171629       21.8721036072       39.4535963173  TIP3      3469            0.0000000000
     32727      3661  TIP3      H2              4.9845381851       22.7647920931       40.6687344333  TIP3      3469            0.0000000000
     32728      3662  TIP3      OH2            30.3360681354       27.6992800144       40.1184571573  TIP3      3470            0.0000000000
     32729      3662  TIP3      H1             31.0363508075       27.7418820607       40.8056311805  TIP3      3470            0.0000000000
     32730      3662  TIP3      H2             30.7190506584       26.9957989434       39.5783808062  TIP3      3470            0.0000000000
     32731      3663  TIP3      OH2            32.5965672369       28.4182563166       41.6353983145  TIP3      3471            0.0000000000
     32732      3663  TIP3      H1             33.0064608913       28.6965080416       42.4838612730  TIP3      3471            0.0000000000
     32733      3663  TIP3      H2             32.9741262747       29.0180331198       40.9638857996  TIP3      3471            0.0000000000
     32734      3664  TIP3      OH2            36.0434809146       20.2667612482       41.5272639846  TIP3      3472            0.0000000000
     32735      3664  TIP3      H1             35.2348531520       20.5138269162       41.9670984820  TIP3      3472            0.0000000000
     32736      3664  TIP3      H2             36.4106580749       21.0833320797       41.1886264260  TIP3      3472            0.0000000000
     32737      3665  TIP3      OH2            34.1607184479       29.5283405441       39.5580242620  TIP3      3473            0.0000000000
     32738      3665  TIP3      H1             34.0756006750       29.3730983682       38.5833331006  TIP3      3473            0.0000000000
     32739      3665  TIP3      H2             34.9507181850       30.0660313197       39.5842850250  TIP3      3473            0.0000000000
     32740      3666  TIP3      OH2            29.6607158528       23.4695769993       40.0718571740  TIP3      3474            0.0000000000
     32741      3666  TIP3      H1             29.3952289311       23.4923880804       40.9998533406  TIP3      3474            0.0000000000
     32742      3666  TIP3      H2             29.3785271413       22.5860905501       39.7848640124  TIP3      3474            0.0000000000
     32743      3667  TIP3      OH2            26.4857815724       23.8254784138       39.1572460394  TIP3      3475            0.0000000000
     32744      3667  TIP3      H1             26.0513210143       23.5130637473       39.9764807694  TIP3      3475            0.0000000000
     32745      3667  TIP3      H2             25.8179374681       24.3594230996       38.7096339447  TIP3      3475            0.0000000000
     32746      3668  TIP3      OH2            20.9941435989       24.2277240616       41.5334930458  TIP3      3476            0.0000000000
     32747      3668  TIP3      H1             21.5645970491       24.9204545858       41.1401436602  TIP3      3476            0.0000000000
     32748      3668  TIP3      H2             20.3772916308       24.8504816061       41.9790362813  TIP3      3476            0.0000000000
     32749      3669  TIP3      OH2            25.2128482536       26.5370595759       40.6228920804  TIP3      3477            0.0000000000
     32750      3669  TIP3      H1             24.6329933812       26.3326816514       39.8758066738  TIP3      3477            0.0000000000
     32751      3669  TIP3      H2             25.9811563775       26.9015100735       40.1574564079  TIP3      3477            0.0000000000
     32752      3670  TIP3      OH2            32.3614975246       24.0545693627       40.6703068883  TIP3      3478            0.0000000000
     32753      3670  TIP3      H1             31.4002173579       24.1700989548       40.5883029883  TIP3      3478            0.0000000000
     32754      3670  TIP3      H2             32.6492365766       24.8716080687       41.1291034172  TIP3      3478            0.0000000000
     32755      3671  TIP3      OH2            33.1143424525       25.9645388838       42.3373555345  TIP3      3479            0.0000000000
     32756      3671  TIP3      H1             34.0125590478       25.8338490690       42.6443991139  TIP3      3479            0.0000000000
     32757      3671  TIP3      H2             33.1326583972       26.7782443962       41.8042199494  TIP3      3479            0.0000000000
     32758      3672  TIP3      OH2            30.6408131195       32.6729895799       41.5768756626  TIP3      3480            0.0000000000
     32759      3672  TIP3      H1             30.2684913005       33.5258564688       41.8588033082  TIP3      3480            0.0000000000
     32760      3672  TIP3      H2             29.9246129731       32.0661494015       41.7956378836  TIP3      3480            0.0000000000
     32761      3673  TIP3      OH2            21.7694082023       28.9526167632       40.1985163755  TIP3      3481            0.0000000000
     32762      3673  TIP3      H1             22.3649150760       29.5238980500       40.7403822675  TIP3      3481            0.0000000000
     32763      3673  TIP3      H2             20.9040097973       29.2065889133       40.5596587442  TIP3      3481            0.0000000000
     32764      3674  TIP3      OH2            33.7463803788       32.8355752753       40.3231430010  TIP3      3482            0.0000000000
     32765      3674  TIP3      H1             33.9982355736       32.6020889174       41.2191061340  TIP3      3482            0.0000000000
     32766      3674  TIP3      H2             32.7768281815       32.8386142501       40.4137843951  TIP3      3482            0.0000000000
     32767      3675  TIP3      OH2            27.8583107030       34.0401207597       38.8012451578  TIP3      3483            0.0000000000
     32768      3675  TIP3      H1             27.9320944973       33.2432723657       38.2590542503  TIP3      3483            0.0000000000
     32769      3675  TIP3      H2             27.4638292507       33.6643705455       39.6292509114  TIP3      3483            0.0000000000
     32770      3676  TIP3      OH2            26.7508759673       33.6047353455       41.2096068495  TIP3      3484            0.0000000000
     32771      3676  TIP3      H1             26.7978887744       33.0807502224       42.0400158649  TIP3      3484            0.0000000000
     32772      3676  TIP3      H2             26.7747260293       34.5029670022       41.5711698128  TIP3      3484            0.0000000000
     32773      3677  TIP3      OH2            22.9255803580       30.9684470759       41.5447420644  TIP3      3485            0.0000000000
     32774      3677  TIP3      H1             22.5512841132       31.1081437723       42.4175396513  TIP3      3485            0.0000000000
     32775      3677  TIP3      H2             23.7283608817       31.5286018112       41.5620180549  TIP3      3485            0.0000000000
     32776      3678  TIP3      OH2            29.0923110357       34.9560358361       41.4118374195  TIP3      3486            0.0000000000
     32777      3678  TIP3      H1             28.4925648349       35.5956740362       41.8361459147  TIP3      3486            0.0000000000
     32778      3678  TIP3      H2             29.8175602160       35.5605734207       41.1730324240  TIP3      3486            0.0000000000
     32779      3679  TIP3      OH2            26.9043940210      -37.0896362756       42.0948572647  TIP3      3487            0.0000000000
     32780      3679  TIP3      H1             26.8672855338      -36.3435608146       41.4700910093  TIP3      3487            0.0000000000
     32781      3679  TIP3      H2             26.5132946679      -36.7376422811       42.8949670588  TIP3      3487            0.0000000000
     32782      3680  TIP3      OH2            25.3799595248       22.8675275884       41.4021901606  TIP3      3488            0.0000000000
     32783      3680  TIP3      H1             25.2075828183       23.7159054946       41.8237438799  TIP3      3488            0.0000000000
     32784      3680  TIP3      H2             26.2692514119       22.7201476387       41.7712241901  TIP3      3488            0.0000000000
     32785      3681  TIP3      OH2            23.6892438542       33.5282546211       40.5824713282  TIP3      3489            0.0000000000
     32786      3681  TIP3      H1             24.3605363125       34.0889614337       40.9944981854  TIP3      3489            0.0000000000
     32787      3681  TIP3      H2             24.2608518866       32.9969648128       40.0009337720  TIP3      3489            0.0000000000
     32788      3682  TIP3      OH2            22.0632768920       26.1144950216       39.7907518516  TIP3      3490            0.0000000000
     32789      3682  TIP3      H1             22.0780426989       27.0661806741       40.0592042416  TIP3      3490            0.0000000000
     32790      3682  TIP3      H2             21.1496592948       25.9736032375       39.5392027947  TIP3      3490            0.0000000000
     32791      3683  TIP3      OH2            29.8633685979       35.8882866805       39.0232173003  TIP3      3491            0.0000000000
     32792      3683  TIP3      H1             29.1715170936       35.2180676630       39.2126118985  TIP3      3491            0.0000000000
     32793      3683  TIP3      H2             30.5955184634       35.3413559655       38.7031737295  TIP3      3491            0.0000000000
     32794      3684  TIP3      OH2            34.5438136756       35.6303200065       39.2509686195  TIP3      3492            0.0000000000
     32795      3684  TIP3      H1             34.7698724014       34.8167002269       39.7028180956  TIP3      3492            0.0000000000
     32796      3684  TIP3      H2             35.2553640113       35.7828746113       38.6060638977  TIP3      3492            0.0000000000
     32797      3685  TIP3      OH2            25.3209960703       31.6110637630       38.9534061210  TIP3      3493            0.0000000000
     32798      3685  TIP3      H1             25.4556519477       30.8670610010       39.5638515657  TIP3      3493            0.0000000000
     32799      3685  TIP3      H2             26.0875980364       31.4948751416       38.3622011312  TIP3      3493            0.0000000000
     32800      3686  TIP3      OH2            30.8161543297       32.6910421166       38.8022934095  TIP3      3494            0.0000000000
     32801      3686  TIP3      H1             30.4484042768       32.8044867028       39.6951858827  TIP3      3494            0.0000000000
     32802      3686  TIP3      H2             30.5619385605       31.7549659676       38.6183203592  TIP3      3494            0.0000000000
     32803      3687  TIP3      OH2            26.5233218981       29.5942936732       41.3078213912  TIP3      3495            0.0000000000
     32804      3687  TIP3      H1             26.0268153451       29.1366888960       42.0323626783  TIP3      3495            0.0000000000
     32805      3687  TIP3      H2             26.7999363050       28.8837183556       40.7008066222  TIP3      3495            0.0000000000
     32806      3688  TIP3      OH2            27.5963624206       27.7868042537       39.5693502604  TIP3      3496            0.0000000000
     32807      3688  TIP3      H1             27.4458350463       27.7099546875       38.6018681098  TIP3      3496            0.0000000000
     32808      3688  TIP3      H2             28.5716759363       27.8865522948       39.6419622613  TIP3      3496            0.0000000000
     32809      3689  TIP3      OH2            21.0018708361       33.1558788598       40.1105322878  TIP3      3497            0.0000000000
     32810      3689  TIP3      H1             21.9485094582       33.1900913863       40.3723365919  TIP3      3497            0.0000000000
     32811      3689  TIP3      H2             21.0362116868       32.4503643134       39.4332197799  TIP3      3497            0.0000000000
     32812      3690  TIP3      OH2            36.3288783525       26.2255664054       39.8090529992  TIP3      3498            0.0000000000
     32813      3690  TIP3      H1             36.5395886339       26.8375613770       39.0966044542  TIP3      3498            0.0000000000
     32814      3690  TIP3      H2             36.2305468983       25.3743438482       39.3233425888  TIP3      3498            0.0000000000
     32815      3691  TIP3      OH2            35.7439624738       23.6828591225       38.9344110460  TIP3      3499            0.0000000000
     32816      3691  TIP3      H1             36.2869610131       23.2337495364       39.5833002189  TIP3      3499            0.0000000000
     32817      3691  TIP3      H2             34.8765442169       23.2630063806       39.0749950863  TIP3      3499            0.0000000000
     32818      3692  TIP3      OH2            21.3577022386       20.5876746443       41.4508604051  TIP3      3500            0.0000000000
     32819      3692  TIP3      H1             21.8860819032       21.2720776421       41.0365656278  TIP3      3500            0.0000000000
     32820      3692  TIP3      H2             20.7977880160       21.1344013544       42.0055195534  TIP3      3500            0.0000000000
     32821      3693  TIP3      OH2            23.2449064130       22.5104497098       40.1319066718  TIP3      3501            0.0000000000
     32822      3693  TIP3      H1             23.8349755512       21.8558706599       39.7210087887  TIP3      3501            0.0000000000
     32823      3693  TIP3      H2             23.8779586670       22.8209787540       40.8182434336  TIP3      3501            0.0000000000
     32824      3694  TIP3      OH2           -24.9048570316      -26.6423880037      -35.7059110236  TIP3      3502            0.0000000000
     32825      3694  TIP3      H1            -24.9190456693      -25.6610340842      -35.7403896909  TIP3      3502            0.0000000000
     32826      3694  TIP3      H2            -25.6347616477      -26.8737482214      -36.3020053996  TIP3      3502            0.0000000000
     32827      3695  TIP3      OH2           -26.0521121443      -27.3916661186      -32.2055800707  TIP3      3503            0.0000000000
     32828      3695  TIP3      H1            -26.0613259085      -28.0372840900      -31.4838116274  TIP3      3503            0.0000000000
     32829      3695  TIP3      H2            -26.4043395791      -27.9033539705      -32.9524590539  TIP3      3503            0.0000000000
     32830      3696  TIP3      OH2           -33.6604547102      -27.7177484937      -30.6785694291  TIP3      3504            0.0000000000
     32831      3696  TIP3      H1            -33.6092800124      -28.4061850519      -29.9789109259  TIP3      3504            0.0000000000
     32832      3696  TIP3      H2            -32.9271794099      -27.1398698500      -30.4292200409  TIP3      3504            0.0000000000
     32833      3697  TIP3      OH2           -22.3732187339      -24.4499758868      -33.9167377633  TIP3      3505            0.0000000000
     32834      3697  TIP3      H1            -22.7726750918      -25.1696359402      -33.4207985315  TIP3      3505            0.0000000000
     32835      3697  TIP3      H2            -22.3557027360      -23.7459409176      -33.2443202682  TIP3      3505            0.0000000000
     32836      3698  TIP3      OH2           -32.8162896482      -23.2618601920      -32.1393213358  TIP3      3506            0.0000000000
     32837      3698  TIP3      H1            -33.1172435809      -24.1325467810      -32.4601620644  TIP3      3506            0.0000000000
     32838      3698  TIP3      H2            -31.8567870632      -23.4410075894      -32.1071005824  TIP3      3506            0.0000000000
     32839      3699  TIP3      OH2           -35.9197353422      -29.6813758416      -36.9321136620  TIP3      3507            0.0000000000
     32840      3699  TIP3      H1            -36.4259061900      -28.8915384998      -36.6348676790  TIP3      3507            0.0000000000
     32841      3699  TIP3      H2            -36.6533196084      -30.2580138989      -37.0776938223  TIP3      3507            0.0000000000
     32842      3700  TIP3      OH2           -35.4445222244      -27.5119560540      -34.5469232268  TIP3      3508            0.0000000000
     32843      3700  TIP3      H1            -35.1740878111      -28.2891966216      -34.0390030794  TIP3      3508            0.0000000000
     32844      3700  TIP3      H2            -34.7115236632      -27.3884246779      -35.1603759820  TIP3      3508            0.0000000000
     32845      3701  TIP3      OH2           -25.2451956634      -19.2722562954      -33.6859685966  TIP3      3509            0.0000000000
     32846      3701  TIP3      H1            -24.6137044250      -19.9752625677      -33.9737883679  TIP3      3509            0.0000000000
     32847      3701  TIP3      H2            -25.4632112878      -19.6179757967      -32.8169422846  TIP3      3509            0.0000000000
     32848      3702  TIP3      OH2           -27.6755330459      -24.9920431466      -31.7197346963  TIP3      3510            0.0000000000
     32849      3702  TIP3      H1            -27.3359809441      -25.6122875897      -32.3800322545  TIP3      3510            0.0000000000
     32850      3702  TIP3      H2            -26.8662586550      -24.8333811033      -31.2036617550  TIP3      3510            0.0000000000
     32851      3703  TIP3      OH2           -19.0594824772      -33.3443797615      -31.0082356767  TIP3      3511            0.0000000000
     32852      3703  TIP3      H1            -18.9069737433      -32.7359565084      -30.2422295396  TIP3      3511            0.0000000000
     32853      3703  TIP3      H2            -18.5163494649      -32.9089602018      -31.6763023126  TIP3      3511            0.0000000000
     32854      3704  TIP3      OH2           -24.5080136955      -30.5208915333      -31.4029919347  TIP3      3512            0.0000000000
     32855      3704  TIP3      H1            -24.3479123466      -31.4865305626      -31.3990897037  TIP3      3512            0.0000000000
     32856      3704  TIP3      H2            -24.6108473738      -30.3776868527      -32.3644544450  TIP3      3512            0.0000000000
     32857      3705  TIP3      OH2           -31.3829438668      -32.3941864264      -34.1953480473  TIP3      3513            0.0000000000
     32858      3705  TIP3      H1            -31.2747497780      -31.5721329417      -34.7134890086  TIP3      3513            0.0000000000
     32859      3705  TIP3      H2            -31.7831817222      -32.9896223789      -34.8651538198  TIP3      3513            0.0000000000
     32860      3706  TIP3      OH2           -23.6520877359      -32.3643000297      -35.8424877950  TIP3      3514            0.0000000000
     32861      3706  TIP3      H1            -23.0078774041      -32.6523495548      -35.1543442162  TIP3      3514            0.0000000000
     32862      3706  TIP3      H2            -23.0919365218      -31.7770584940      -36.3793595874  TIP3      3514            0.0000000000
     32863      3707  TIP3      OH2           -34.7513642286      -30.0547468427      -33.5372410122  TIP3      3515            0.0000000000
     32864      3707  TIP3      H1            -34.0722443970      -30.5532214259      -33.0402576265  TIP3      3515            0.0000000000
     32865      3707  TIP3      H2            -34.6031845026      -30.3726246415      -34.4375005916  TIP3      3515            0.0000000000
     32866      3708  TIP3      OH2           -29.6229812778      -28.4672079831      -34.1440959376  TIP3      3516            0.0000000000
     32867      3708  TIP3      H1            -28.9428188515      -29.0449008892      -33.7559161903  TIP3      3516            0.0000000000
     32868      3708  TIP3      H2            -30.1262443949      -29.1235433321      -34.6628982534  TIP3      3516            0.0000000000
     32869      3709  TIP3      OH2           -18.6539871214      -31.9425749178      -28.7373916324  TIP3      3517            0.0000000000
     32870      3709  TIP3      H1            -19.2459121484      -31.1658230111      -28.8191473101  TIP3      3517            0.0000000000
     32871      3709  TIP3      H2            -18.5812911065      -32.0116731970      -27.7717237007  TIP3      3517            0.0000000000
     32872      3710  TIP3      OH2           -32.4838556906      -33.5006131879      -30.1474581175  TIP3      3518            0.0000000000
     32873      3710  TIP3      H1            -32.7676429738      -32.9584238304      -30.9154155014  TIP3      3518            0.0000000000
     32874      3710  TIP3      H2            -33.1818224466      -33.2935452824      -29.4835715966  TIP3      3518            0.0000000000
     32875      3711  TIP3      OH2           -25.2030836120      -24.0608753267      -36.6144260527  TIP3      3519            0.0000000000
     32876      3711  TIP3      H1            -25.4758810249      -24.3280371088      -37.5075597778  TIP3      3519            0.0000000000
     32877      3711  TIP3      H2            -25.5044702382      -23.1251648361      -36.5679965115  TIP3      3519            0.0000000000
     32878      3712  TIP3      OH2           -29.9576124778      -25.8918981475      -29.9463736529  TIP3      3520            0.0000000000
     32879      3712  TIP3      H1            -30.6743366497      -25.2692680881      -29.6853454384  TIP3      3520            0.0000000000
     32880      3712  TIP3      H2            -29.2591637783      -25.2789070326      -30.2178412323  TIP3      3520            0.0000000000
     32881      3713  TIP3      OH2           -21.8437220245      -32.9938763546      -33.8368312856  TIP3      3521            0.0000000000
     32882      3713  TIP3      H1            -22.0736113264      -33.7599003864      -33.3018715909  TIP3      3521            0.0000000000
     32883      3713  TIP3      H2            -21.1709456939      -32.5735180839      -33.2717038293  TIP3      3521            0.0000000000
     32884      3714  TIP3      OH2           -32.9304070824      -31.7063047924      -32.1386610952  TIP3      3522            0.0000000000
     32885      3714  TIP3      H1            -32.3272422798      -31.0052700867      -31.8003962226  TIP3      3522            0.0000000000
     32886      3714  TIP3      H2            -32.3737444078      -32.0933731503      -32.8573979022  TIP3      3522            0.0000000000
     32887      3715  TIP3      OH2           -31.5408066571      -23.8971177166      -29.1296181823  TIP3      3523            0.0000000000
     32888      3715  TIP3      H1            -31.5822947898      -22.9671786380      -29.4252070467  TIP3      3523            0.0000000000
     32889      3715  TIP3      H2            -32.4101042324      -23.9601718224      -28.6730182891  TIP3      3523            0.0000000000
     32890      3716  TIP3      OH2           -35.4431551625      -24.2105316230      -38.3421934869  TIP3      3524            0.0000000000
     32891      3716  TIP3      H1            -35.6534823316      -23.9122658308      -39.2438715133  TIP3      3524            0.0000000000
     32892      3716  TIP3      H2            -35.3734818746      -23.4064221081      -37.7895870074  TIP3      3524            0.0000000000
     32893      3717  TIP3      OH2           -21.8341057617      -22.5939934047      -31.5625026308  TIP3      3525            0.0000000000
     32894      3717  TIP3      H1            -22.8069385693      -22.5076930226      -31.4288201209  TIP3      3525            0.0000000000
     32895      3717  TIP3      H2            -21.5910332191      -21.6739022402      -31.7458407414  TIP3      3525            0.0000000000
     32896      3718  TIP3      OH2           -21.4801921961      -34.3028326212      -30.1048066386  TIP3      3526            0.0000000000
     32897      3718  TIP3      H1            -22.2253751501      -33.7087405668      -30.2810226319  TIP3      3526            0.0000000000
     32898      3718  TIP3      H2            -20.7917567060      -33.9222438629      -30.6865413816  TIP3      3526            0.0000000000
     32899      3719  TIP3      OH2           -28.2582287038      -36.0080750992      -32.7191587507  TIP3      3527            0.0000000000
     32900      3719  TIP3      H1            -28.3801629582      -36.9601383415      -32.7368396220  TIP3      3527            0.0000000000
     32901      3719  TIP3      H2            -29.1710709600      -35.7539463728      -32.4934258235  TIP3      3527            0.0000000000
     32902      3720  TIP3      OH2           -23.5435393509      -20.8194074107      -34.9334577093  TIP3      3528            0.0000000000
     32903      3720  TIP3      H1            -23.1714986519      -21.5446452754      -35.4796739143  TIP3      3528            0.0000000000
     32904      3720  TIP3      H2            -23.1508297847      -20.0324429876      -35.3626024058  TIP3      3528            0.0000000000
     32905      3721  TIP3      OH2           -22.3412597003      -22.8841281494      -36.4366694135  TIP3      3529            0.0000000000
     32906      3721  TIP3      H1            -22.6468363100      -23.5638346301      -37.0681864896  TIP3      3529            0.0000000000
     32907      3721  TIP3      H2            -22.3411178160      -23.3971594887      -35.6069081472  TIP3      3529            0.0000000000
     32908      3722  TIP3      OH2           -20.7812680549      -24.2844670012      -27.9633983837  TIP3      3530            0.0000000000
     32909      3722  TIP3      H1            -20.6027828901      -24.9578720005      -28.6570040752  TIP3      3530            0.0000000000
     32910      3722  TIP3      H2            -20.5333295567      -23.4515935630      -28.4031794830  TIP3      3530            0.0000000000
     32911      3723  TIP3      OH2           -26.2577290108      -27.4081970061      -38.2052398376  TIP3      3531            0.0000000000
     32912      3723  TIP3      H1            -26.9425057569      -26.8246041071      -38.5934828006  TIP3      3531            0.0000000000
     32913      3723  TIP3      H2            -25.5431073707      -27.3068287404      -38.8595788186  TIP3      3531            0.0000000000
     32914      3724  TIP3      OH2           -26.2311027287      -28.8967330047      -41.0907105098  TIP3      3532            0.0000000000
     32915      3724  TIP3      H1            -25.4855801069      -28.8647543813      -40.4700090468  TIP3      3532            0.0000000000
     32916      3724  TIP3      H2            -25.8710829687      -29.4801207568      -41.7563617226  TIP3      3532            0.0000000000
     32917      3725  TIP3      OH2           -18.8819135375      -28.0054566372      -29.9555837480  TIP3      3533            0.0000000000
     32918      3725  TIP3      H1            -19.5013560991      -27.2568147639      -29.8557337999  TIP3      3533            0.0000000000
     32919      3725  TIP3      H2            -18.3654383108      -27.7343104723      -30.7322093883  TIP3      3533            0.0000000000
     32920      3726  TIP3      OH2           -22.8106061670      -27.2021859534      -37.2527423822  TIP3      3534            0.0000000000
     32921      3726  TIP3      H1            -23.5500951501      -26.9584114798      -36.6420718845  TIP3      3534            0.0000000000
     32922      3726  TIP3      H2            -22.3148206060      -27.8643507866      -36.7388937064  TIP3      3534            0.0000000000
     32923      3727  TIP3      OH2           -22.8791607157      -29.0340971731      -28.1807732478  TIP3      3535            0.0000000000
     32924      3727  TIP3      H1            -22.8548197920      -28.2367751825      -27.6166796353  TIP3      3535            0.0000000000
     32925      3727  TIP3      H2            -23.5208612399      -28.7210857549      -28.8387558069  TIP3      3535            0.0000000000
     32926      3728  TIP3      OH2           -31.1661405388      -26.5188479379      -35.3476088354  TIP3      3536            0.0000000000
     32927      3728  TIP3      H1            -31.5227697995      -26.9289433462      -36.1730603171  TIP3      3536            0.0000000000
     32928      3728  TIP3      H2            -30.5684911907      -27.2270119374      -35.0121817173  TIP3      3536            0.0000000000
     32929      3729  TIP3      OH2           -29.8727228545      -23.1595234580      -32.6683170591  TIP3      3537            0.0000000000
     32930      3729  TIP3      H1            -29.8735705511      -23.6780842113      -33.4818688984  TIP3      3537            0.0000000000
     32931      3729  TIP3      H2            -29.0877410168      -23.5114740041      -32.2110500135  TIP3      3537            0.0000000000
     32932      3730  TIP3      OH2           -30.8497316009      -27.7865503897      -31.6807952920  TIP3      3538            0.0000000000
     32933      3730  TIP3      H1            -30.3064578447      -27.6872345595      -32.4868874978  TIP3      3538            0.0000000000
     32934      3730  TIP3      H2            -30.4700459039      -27.1138367093      -31.0701154161  TIP3      3538            0.0000000000
     32935      3731  TIP3      OH2           -24.4353117172      -22.2173789324      -30.9759938543  TIP3      3539            0.0000000000
     32936      3731  TIP3      H1            -24.7315302054      -21.5778559052      -30.3237685253  TIP3      3539            0.0000000000
     32937      3731  TIP3      H2            -24.7038574565      -23.0673741814      -30.5529701308  TIP3      3539            0.0000000000
     32938      3732  TIP3      OH2           -29.8900716206      -23.3300460718      -26.9889572986  TIP3      3540            0.0000000000
     32939      3732  TIP3      H1            -30.3199565623      -22.6141594650      -26.4806688872  TIP3      3540            0.0000000000
     32940      3732  TIP3      H2            -30.5699104344      -23.5723910064      -27.6591359376  TIP3      3540            0.0000000000
     32941      3733  TIP3      OH2           -23.9101587303      -28.0165407908      -39.5977746598  TIP3      3541            0.0000000000
     32942      3733  TIP3      H1            -23.3788218290      -27.8065370555      -38.7908455512  TIP3      3541            0.0000000000
     32943      3733  TIP3      H2            -23.4948995373      -27.4676094084      -40.2979242327  TIP3      3541            0.0000000000
     32944      3734  TIP3      OH2           -32.9349440015      -27.2051038243      -27.7775155458  TIP3      3542            0.0000000000
     32945      3734  TIP3      H1            -32.8896410663      -26.4814169378      -27.1259562267  TIP3      3542            0.0000000000
     32946      3734  TIP3      H2            -33.8561545439      -27.1033309778      -28.0746362495  TIP3      3542            0.0000000000
     32947      3735  TIP3      OH2           -26.2130040857      -21.2764573507      -36.1117640644  TIP3      3543            0.0000000000
     32948      3735  TIP3      H1            -25.7802701037      -20.9587336198      -35.3109364415  TIP3      3543            0.0000000000
     32949      3735  TIP3      H2            -26.7654329912      -20.5300149523      -36.3782774239  TIP3      3543            0.0000000000
     32950      3736  TIP3      OH2           -31.6785444810      -21.3439075331      -26.2780939215  TIP3      3544            0.0000000000
     32951      3736  TIP3      H1            -31.7344085356      -21.4286497684      -27.2440778781  TIP3      3544            0.0000000000
     32952      3736  TIP3      H2            -32.5993363385      -21.4551299119      -25.9842035871  TIP3      3544            0.0000000000
     32953      3737  TIP3      OH2           -20.1895469936      -36.1693062315      -39.7479703364  TIP3      3545            0.0000000000
     32954      3737  TIP3      H1            -21.1234350194      -36.1654614787      -39.4590150035  TIP3      3545            0.0000000000
     32955      3737  TIP3      H2            -20.0277173831      -35.3135533459      -40.1576342347  TIP3      3545            0.0000000000
     32956      3738  TIP3      OH2           -32.1968053973      -27.5166070897      -37.7603762046  TIP3      3546            0.0000000000
     32957      3738  TIP3      H1            -32.4869926317      -26.7344312630      -38.2648550838  TIP3      3546            0.0000000000
     32958      3738  TIP3      H2            -32.8740015986      -28.1688203372      -37.9709267350  TIP3      3546            0.0000000000
     32959      3739  TIP3      OH2           -19.1041635029      -21.9150616101      -41.2891560270  TIP3      3547            0.0000000000
     32960      3739  TIP3      H1            -18.9613206428      -20.9542829986      -41.2008055509  TIP3      3547            0.0000000000
     32961      3739  TIP3      H2            -18.1839274865      -22.2157299746      -41.4040059323  TIP3      3547            0.0000000000
     32962      3740  TIP3      OH2           -35.7099847735      -25.1665271042      -29.0296678501  TIP3      3548            0.0000000000
     32963      3740  TIP3      H1            -36.4193567834      -25.1230518687      -29.6959174573  TIP3      3548            0.0000000000
     32964      3740  TIP3      H2            -35.9585853409      -26.0356458872      -28.6652479949  TIP3      3548            0.0000000000
     32965      3741  TIP3      OH2           -36.2015107773      -22.1860171520      -32.2510582934  TIP3      3549            0.0000000000
     32966      3741  TIP3      H1            -35.3196469430      -22.5163926641      -32.0447359106  TIP3      3549            0.0000000000
     32967      3741  TIP3      H2            -36.3890642815      -21.6079310896      -31.5046823584  TIP3      3549            0.0000000000
     32968      3742  TIP3      OH2           -18.1530502039      -21.6417719276      -26.3997269475  TIP3      3550            0.0000000000
     32969      3742  TIP3      H1            -18.2340127555      -22.6063001479      -26.3727637331  TIP3      3550            0.0000000000
     32970      3742  TIP3      H2            -18.9975984878      -21.3957835851      -25.9726449400  TIP3      3550            0.0000000000
     32971      3743  TIP3      OH2           -27.1761352195      -22.0939533221      -27.5524258680  TIP3      3551            0.0000000000
     32972      3743  TIP3      H1            -27.1167956555      -21.2831578639      -26.9919217364  TIP3      3551            0.0000000000
     32973      3743  TIP3      H2            -28.0270574362      -22.4784500329      -27.2550926863  TIP3      3551            0.0000000000
     32974      3744  TIP3      OH2           -26.7433951616      -18.3696531221      -37.7181623920  TIP3      3552            0.0000000000
     32975      3744  TIP3      H1            -26.8146778914      -18.4201452114      -38.6877450357  TIP3      3552            0.0000000000
     32976      3744  TIP3      H2            -26.6999269749      -17.4077737832      -37.5491503495  TIP3      3552            0.0000000000
     32977      3745  TIP3      OH2           -33.0911794390      -19.4818642649      -35.9007855995  TIP3      3553            0.0000000000
     32978      3745  TIP3      H1            -32.9511600374      -19.9080767489      -35.0305956235  TIP3      3553            0.0000000000
     32979      3745  TIP3      H2            -33.9210113250      -19.9089667600      -36.1595123735  TIP3      3553            0.0000000000
     32980      3746  TIP3      OH2           -23.6956975803      -19.1385050214      -40.7483382072  TIP3      3554            0.0000000000
     32981      3746  TIP3      H1            -23.2308732420      -19.9005544064      -41.1641236012  TIP3      3554            0.0000000000
     32982      3746  TIP3      H2            -23.6403064890      -19.4081982036      -39.8118303342  TIP3      3554            0.0000000000
     32983      3747  TIP3      OH2           -23.9835598876      -19.1903510016      -37.9434808469  TIP3      3555            0.0000000000
     32984      3747  TIP3      H1            -24.9441880137      -19.1405510398      -37.7676289050  TIP3      3555            0.0000000000
     32985      3747  TIP3      H2            -23.7402984297      -19.9496887920      -37.3895581187  TIP3      3555            0.0000000000
     32986      3748  TIP3      OH2           -20.8429016209      -30.1627295709      -26.0714080888  TIP3      3556            0.0000000000
     32987      3748  TIP3      H1            -21.5226535494      -29.7224912939      -26.5915439257  TIP3      3556            0.0000000000
     32988      3748  TIP3      H2            -21.0257412491      -31.1040948056      -26.1674868761  TIP3      3556            0.0000000000
     32989      3749  TIP3      OH2           -33.8265943620      -23.7299482552      -27.8520601900  TIP3      3557            0.0000000000
     32990      3749  TIP3      H1            -33.6616048010      -24.1496688797      -26.9830026607  TIP3      3557            0.0000000000
     32991      3749  TIP3      H2            -34.6737861040      -24.1438113281      -28.1444515286  TIP3      3557            0.0000000000
     32992      3750  TIP3      OH2           -31.2093942981      -35.1250794608      -31.8845501901  TIP3      3558            0.0000000000
     32993      3750  TIP3      H1            -32.0772615991      -35.3277306717      -32.2926277462  TIP3      3558            0.0000000000
     32994      3750  TIP3      H2            -31.3904120602      -34.3149601371      -31.3988148526  TIP3      3558            0.0000000000
     32995      3751  TIP3      OH2           -26.5383186972      -35.6524219923      -28.5651267628  TIP3      3559            0.0000000000
     32996      3751  TIP3      H1            -26.1581632033      -35.9882605494      -27.7509162463  TIP3      3559            0.0000000000
     32997      3751  TIP3      H2            -27.4973868135      -35.7009412475      -28.3967196122  TIP3      3559            0.0000000000
     32998      3752  TIP3      OH2           -23.2670416331      -31.8268500391      -27.7496091083  TIP3      3560            0.0000000000
     32999      3752  TIP3      H1            -23.7778600823      -31.9812237536      -26.9188971752  TIP3      3560            0.0000000000
     33000      3752  TIP3      H2            -23.3694943339      -30.8686190673      -27.8990663088  TIP3      3560            0.0000000000
     33001      3753  TIP3      OH2           -22.4524399171      -26.8969599347      -41.7457405358  TIP3      3561            0.0000000000
     33002      3753  TIP3      H1            -22.3741730464      -27.0928512293      -42.6963435628  TIP3      3561            0.0000000000
     33003      3753  TIP3      H2            -21.5612440061      -26.4878119645      -41.6224974484  TIP3      3561            0.0000000000
     33004      3754  TIP3      OH2           -26.8077540544      -33.1704061805      -41.2559366725  TIP3      3562            0.0000000000
     33005      3754  TIP3      H1            -27.1482926215      -33.0316606602      -40.3399933241  TIP3      3562            0.0000000000
     33006      3754  TIP3      H2            -27.3016236714      -33.9681065153      -41.4358741027  TIP3      3562            0.0000000000
     33007      3755  TIP3      OH2           -31.0546696517      -30.3180318834      -30.6782106180  TIP3      3563            0.0000000000
     33008      3755  TIP3      H1            -31.7977412940      -30.3313382311      -30.0423631500  TIP3      3563            0.0000000000
     33009      3755  TIP3      H2            -31.1261230282      -29.4113475827      -31.0532928401  TIP3      3563            0.0000000000
     33010      3756  TIP3      OH2           -31.0836829887      -30.2189695776      -35.8209719768  TIP3      3564            0.0000000000
     33011      3756  TIP3      H1            -32.0300597440      -30.4489796583      -35.9581408857  TIP3      3564            0.0000000000
     33012      3756  TIP3      H2            -30.7115274530      -30.4998528804      -36.6796639674  TIP3      3564            0.0000000000
     33013      3757  TIP3      OH2           -25.5676749029      -29.7030428968      -37.0966840274  TIP3      3565            0.0000000000
     33014      3757  TIP3      H1            -25.9744624923      -28.8659988912      -37.4153407979  TIP3      3565            0.0000000000
     33015      3757  TIP3      H2            -24.8836573329      -29.8607675736      -37.7711618631  TIP3      3565            0.0000000000
     33016      3758  TIP3      OH2           -26.5187914504      -29.4589791526      -25.5569523995  TIP3      3566            0.0000000000
     33017      3758  TIP3      H1            -27.0343272383      -30.2654722580      -25.3078070374  TIP3      3566            0.0000000000
     33018      3758  TIP3      H2            -25.6662230200      -29.6296959638      -25.1320117799  TIP3      3566            0.0000000000
     33019      3759  TIP3      OH2           -24.5380657909      -30.2059890883      -34.2057854558  TIP3      3567            0.0000000000
     33020      3759  TIP3      H1            -24.8306331802      -29.6450641522      -34.9443926945  TIP3      3567            0.0000000000
     33021      3759  TIP3      H2            -24.4465818199      -31.0542765717      -34.6759800925  TIP3      3567            0.0000000000
     33022      3760  TIP3      OH2           -33.4100921884      -30.0939089959      -29.0176665045  TIP3      3568            0.0000000000
     33023      3760  TIP3      H1            -33.3859502783      -29.6469303642      -28.1599761676  TIP3      3568            0.0000000000
     33024      3760  TIP3      H2            -33.8914699096      -30.9145348800      -28.8337238762  TIP3      3568            0.0000000000
     33025      3761  TIP3      OH2           -29.8868213993      -32.4922916545      -41.8651740093  TIP3      3569            0.0000000000
     33026      3761  TIP3      H1            -30.4511392219      -33.0691270019      -41.3075161530  TIP3      3569            0.0000000000
     33027      3761  TIP3      H2            -30.5169306901      -32.0647629076      -42.4543249405  TIP3      3569            0.0000000000
     33028      3762  TIP3      OH2           -36.5198916479      -32.7509421643      -35.1777545050  TIP3      3570            0.0000000000
     33029      3762  TIP3      H1            -36.0777207827      -33.0011437700      -34.3359203221  TIP3      3570            0.0000000000
     33030      3762  TIP3      H2            -36.2325124673      -33.3935818241      -35.8162413651  TIP3      3570            0.0000000000
     33031      3763  TIP3      OH2           -35.4703076764      -32.1393296720      -39.6596255699  TIP3      3571            0.0000000000
     33032      3763  TIP3      H1            -34.9603552878      -31.5870173833      -40.2948488050  TIP3      3571            0.0000000000
     33033      3763  TIP3      H2            -36.1960210057      -31.5502009461      -39.4285982196  TIP3      3571            0.0000000000
     33034      3764  TIP3      OH2           -25.3616443184      -28.6255408449      -29.6624789335  TIP3      3572            0.0000000000
     33035      3764  TIP3      H1            -24.9674659595      -29.3156097458      -30.2388752014  TIP3      3572            0.0000000000
     33036      3764  TIP3      H2            -25.8244399324      -29.1533807621      -28.9880362139  TIP3      3572            0.0000000000
     33037      3765  TIP3      OH2           -28.5435701472      -32.6515434830      -34.8308821918  TIP3      3573            0.0000000000
     33038      3765  TIP3      H1            -29.4771142887      -32.6903857588      -34.5258123382  TIP3      3573            0.0000000000
     33039      3765  TIP3      H2            -28.0597035835      -32.8017201739      -34.0067279817  TIP3      3573            0.0000000000
     33040      3766  TIP3      OH2           -33.6470873550      -31.1167815060      -35.9920380933  TIP3      3574            0.0000000000
     33041      3766  TIP3      H1            -34.5472165124      -30.9269204048      -36.3297781480  TIP3      3574            0.0000000000
     33042      3766  TIP3      H2            -33.4309273114      -31.9882396899      -36.3854692426  TIP3      3574            0.0000000000
     33043      3767  TIP3      OH2           -30.0888020590      -31.0592197632      -38.3537108722  TIP3      3575            0.0000000000
     33044      3767  TIP3      H1            -29.1426121374      -30.9145283738      -38.1538446632  TIP3      3575            0.0000000000
     33045      3767  TIP3      H2            -30.3343503424      -30.3794337407      -39.0082737863  TIP3      3575            0.0000000000
     33046      3768  TIP3      OH2           -24.1334425593      -33.4250691576      -31.6001795210  TIP3      3576            0.0000000000
     33047      3768  TIP3      H1            -24.8229776435      -33.3701748767      -30.9030613781  TIP3      3576            0.0000000000
     33048      3768  TIP3      H2            -24.6392874312      -33.6700056346      -32.3883870310  TIP3      3576            0.0000000000
     33049      3769  TIP3      OH2           -31.3659775668      -29.8966551895      -40.7330753963  TIP3      3577            0.0000000000
     33050      3769  TIP3      H1            -31.9400577413      -30.2136229047      -41.4523890525  TIP3      3577            0.0000000000
     33051      3769  TIP3      H2            -30.5577486779      -29.6576114370      -41.2057845640  TIP3      3577            0.0000000000
     33052      3770  TIP3      OH2           -20.9665069018      -17.6325285672      -25.2516173712  TIP3      3578            0.0000000000
     33053      3770  TIP3      H1            -20.6063935882      -17.4699593068      -26.1563852459  TIP3      3578            0.0000000000
     33054      3770  TIP3      H2            -20.1680243528      -17.4992795987      -24.7273195153  TIP3      3578            0.0000000000
     33055      3771  TIP3      OH2           -33.2638875510      -25.3481161787      -25.6810981643  TIP3      3579            0.0000000000
     33056      3771  TIP3      H1            -32.5278391625      -25.0445608515      -25.1310897329  TIP3      3579            0.0000000000
     33057      3771  TIP3      H2            -34.0012634894      -25.1134954022      -25.0866945274  TIP3      3579            0.0000000000
     33058      3772  TIP3      OH2           -27.2609639948      -29.9098046335      -32.9366883981  TIP3      3580            0.0000000000
     33059      3772  TIP3      H1            -26.6738424981      -30.4704857444      -33.4618770609  TIP3      3580            0.0000000000
     33060      3772  TIP3      H2            -27.4125516498      -30.4424874781      -32.1445434268  TIP3      3580            0.0000000000
     33061      3773  TIP3      OH2           -32.2691154852      -33.6909059334      -36.5103570376  TIP3      3581            0.0000000000
     33062      3773  TIP3      H1            -32.5998913495      -34.6083330694      -36.4707066604  TIP3      3581            0.0000000000
     33063      3773  TIP3      H2            -31.4730260637      -33.8012015264      -37.0432818156  TIP3      3581            0.0000000000
     33064      3774  TIP3      OH2           -28.6324298130      -31.5862354775      -30.5128557951  TIP3      3582            0.0000000000
     33065      3774  TIP3      H1            -29.4508600849      -31.0511594601      -30.4311555204  TIP3      3582            0.0000000000
     33066      3774  TIP3      H2            -28.0663331511      -31.2190062113      -29.8045683327  TIP3      3582            0.0000000000
     33067      3775  TIP3      OH2           -28.0340493263      -25.3706247604      -38.7859502614  TIP3      3583            0.0000000000
     33068      3775  TIP3      H1            -28.8367690415      -25.8168019713      -39.1314813461  TIP3      3583            0.0000000000
     33069      3775  TIP3      H2            -28.2662657961      -25.2312347754      -37.8481469475  TIP3      3583            0.0000000000
     33070      3776  TIP3      OH2           -20.8428852005      -26.1308127981      -30.0234315467  TIP3      3584            0.0000000000
     33071      3776  TIP3      H1            -20.2871021392      -25.6510088429      -30.6606651118  TIP3      3584            0.0000000000
     33072      3776  TIP3      H2            -21.7082789225      -26.0978974359      -30.4802039205  TIP3      3584            0.0000000000
     33073      3777  TIP3      OH2           -24.1938108614      -32.5414747367      -40.6763927153  TIP3      3585            0.0000000000
     33074      3777  TIP3      H1            -25.1378570236      -32.3309295345      -40.7543918852  TIP3      3585            0.0000000000
     33075      3777  TIP3      H2            -23.8350651206      -31.6981728053      -40.3159237669  TIP3      3585            0.0000000000
     33076      3778  TIP3      OH2           -26.5211474776      -25.0614814467      -27.6071821627  TIP3      3586            0.0000000000
     33077      3778  TIP3      H1            -26.8987078583      -25.5012188816      -26.8352129490  TIP3      3586            0.0000000000
     33078      3778  TIP3      H2            -26.8202827121      -24.1538644222      -27.4806593536  TIP3      3586            0.0000000000
     33079      3779  TIP3      OH2           -23.4647388452      -30.6399555530      -39.0126704400  TIP3      3587            0.0000000000
     33080      3779  TIP3      H1            -22.5778343680      -30.7433871229      -38.6188174433  TIP3      3587            0.0000000000
     33081      3779  TIP3      H2            -23.3767026918      -29.8123843467      -39.5104358942  TIP3      3587            0.0000000000
     33082      3780  TIP3      OH2           -32.9040650092      -25.9354526861      -33.0207923356  TIP3      3588            0.0000000000
     33083      3780  TIP3      H1            -32.2446628659      -26.0364287597      -33.7241898562  TIP3      3588            0.0000000000
     33084      3780  TIP3      H2            -32.8603353863      -26.7905924837      -32.5595202583  TIP3      3588            0.0000000000
     33085      3781  TIP3      OH2           -25.9418279324      -23.8824505401      -39.7437725057  TIP3      3589            0.0000000000
     33086      3781  TIP3      H1            -26.3113777306      -23.0335053389      -39.4223239495  TIP3      3589            0.0000000000
     33087      3781  TIP3      H2            -26.6800039366      -24.5095041319      -39.5730875007  TIP3      3589            0.0000000000
     33088      3782  TIP3      OH2           -35.7160258055      -27.7536974766      -27.9973615560  TIP3      3590            0.0000000000
     33089      3782  TIP3      H1            -35.6215773191      -28.0092840119      -27.0715370476  TIP3      3590            0.0000000000
     33090      3782  TIP3      H2            -36.5548569691      -28.1675095192      -28.2412921705  TIP3      3590            0.0000000000
     33091      3783  TIP3      OH2           -28.9440437916      -28.0343956625      -25.5136612123  TIP3      3591            0.0000000000
     33092      3783  TIP3      H1            -29.2352690825      -28.2433327710      -26.4151546604  TIP3      3591            0.0000000000
     33093      3783  TIP3      H2            -28.0014894199      -28.2783634889      -25.5773002776  TIP3      3591            0.0000000000
     33094      3784  TIP3      OH2           -24.2348182149      -22.6427691402      -27.5971902945  TIP3      3592            0.0000000000
     33095      3784  TIP3      H1            -25.1553642747      -22.4693173152      -27.8548566413  TIP3      3592            0.0000000000
     33096      3784  TIP3      H2            -24.2729304425      -22.3512030673      -26.6711739532  TIP3      3592            0.0000000000
     33097      3785  TIP3      OH2           -18.5935873697      -30.4451508385      -39.2087159214  TIP3      3593            0.0000000000
     33098      3785  TIP3      H1            -19.1245415519      -30.7730186500      -39.9549517728  TIP3      3593            0.0000000000
     33099      3785  TIP3      H2            -18.4927509087      -29.5171940900      -39.5094887634  TIP3      3593            0.0000000000
     33100      3786  TIP3      OH2           -18.5930012682      -24.5907159560      -26.4342062629  TIP3      3594            0.0000000000
     33101      3786  TIP3      H1            -19.4974784261      -24.4311885395      -26.7965492744  TIP3      3594            0.0000000000
     33102      3786  TIP3      H2            -18.0483198999      -24.6775442715      -27.2356846842  TIP3      3594            0.0000000000
     33103      3787  TIP3      OH2           -20.2772140488      -21.6434983931      -38.8470434919  TIP3      3595            0.0000000000
     33104      3787  TIP3      H1            -20.6488640315      -22.4697067246      -38.5094680264  TIP3      3595            0.0000000000
     33105      3787  TIP3      H2            -19.9762701482      -21.8491046590      -39.7550663835  TIP3      3595            0.0000000000
     33106      3788  TIP3      OH2           -23.0750416605      -26.8300922881      -31.7335000155  TIP3      3596            0.0000000000
     33107      3788  TIP3      H1            -24.0139397882      -27.0435915587      -31.8525467061  TIP3      3596            0.0000000000
     33108      3788  TIP3      H2            -22.6422031969      -27.5858467247      -32.1734070591  TIP3      3596            0.0000000000
     33109      3789  TIP3      OH2           -30.5642550855      -22.4899265968      -35.6179182836  TIP3      3597            0.0000000000
     33110      3789  TIP3      H1            -30.0582133845      -21.6906858624      -35.8336314020  TIP3      3597            0.0000000000
     33111      3789  TIP3      H2            -31.4368265126      -22.2605089329      -35.9642190401  TIP3      3597            0.0000000000
     33112      3790  TIP3      OH2           -34.9257900278      -27.6901320770      -41.0218003050  TIP3      3598            0.0000000000
     33113      3790  TIP3      H1            -34.2412075108      -27.0549084451      -40.7206787269  TIP3      3598            0.0000000000
     33114      3790  TIP3      H2            -35.7413088498      -27.3062285122      -40.7129407935  TIP3      3598            0.0000000000
     33115      3791  TIP3      OH2           -29.1364600067      -24.8306542063      -36.1106543365  TIP3      3599            0.0000000000
     33116      3791  TIP3      H1            -29.4580983330      -23.9116568110      -36.0301434537  TIP3      3599            0.0000000000
     33117      3791  TIP3      H2            -29.8547774105      -25.3253323816      -35.6665046225  TIP3      3599            0.0000000000
     33118      3792  TIP3      OH2           -28.6769749194      -20.6408156355      -29.7317006947  TIP3      3600            0.0000000000
     33119      3792  TIP3      H1            -28.2303169743      -19.8233218683      -29.9882035866  TIP3      3600            0.0000000000
     33120      3792  TIP3      H2            -28.0714417057      -20.9835058075      -29.0483574152  TIP3      3600            0.0000000000
     33121      3793  TIP3      OH2           -30.4583594054      -19.8391541476      -36.5946252732  TIP3      3601            0.0000000000
     33122      3793  TIP3      H1            -31.4209356703      -19.7009263664      -36.4422368208  TIP3      3601            0.0000000000
     33123      3793  TIP3      H2            -30.0984692487      -19.0054699175      -36.2401466237  TIP3      3601            0.0000000000
     33124      3794  TIP3      OH2           -25.1651229781      -24.6539274734      -30.0968040987  TIP3      3602            0.0000000000
     33125      3794  TIP3      H1            -25.4865709515      -24.8388850815      -29.1870348726  TIP3      3602            0.0000000000
     33126      3794  TIP3      H2            -24.5233428581      -25.3634572244      -30.2559776525  TIP3      3602            0.0000000000
     33127      3795  TIP3      OH2           -22.8924936595      -23.5822460243      -40.9316770974  TIP3      3603            0.0000000000
     33128      3795  TIP3      H1            -22.5585624661      -24.0765671310      -40.1567260781  TIP3      3603            0.0000000000
     33129      3795  TIP3      H2            -23.8397004471      -23.7788867221      -40.8799705939  TIP3      3603            0.0000000000
     33130      3796  TIP3      OH2           -22.3618939480      -20.0399383286      -27.5690888215  TIP3      3604            0.0000000000
     33131      3796  TIP3      H1            -23.0391345938      -20.5496280468      -28.0558485355  TIP3      3604            0.0000000000
     33132      3796  TIP3      H2            -22.1555308628      -19.3639002613      -28.2460385953  TIP3      3604            0.0000000000
     33133      3797  TIP3      OH2           -18.3500692275      -19.1920654634      -40.7385171148  TIP3      3605            0.0000000000
     33134      3797  TIP3      H1            -17.6609766347      -18.5535601862      -40.9998894109  TIP3      3605            0.0000000000
     33135      3797  TIP3      H2            -19.0703134780      -18.6015216391      -40.4454854955  TIP3      3605            0.0000000000
     33136      3798  TIP3      OH2           -34.2790404809      -32.8159403677      -28.1586304308  TIP3      3606            0.0000000000
     33137      3798  TIP3      H1            -35.1844804742      -32.4871187433      -28.2389193463  TIP3      3606            0.0000000000
     33138      3798  TIP3      H2            -34.4206027442      -33.7195140704      -27.8012898267  TIP3      3606            0.0000000000
     33139      3799  TIP3      OH2           -22.0505342812      -24.9378868076      -38.7245354789  TIP3      3607            0.0000000000
     33140      3799  TIP3      H1            -22.2917616603      -25.7538141413      -38.2366574503  TIP3      3607            0.0000000000
     33141      3799  TIP3      H2            -21.0992287926      -24.8878899219      -38.5479457438  TIP3      3607            0.0000000000
     33142      3800  TIP3      OH2           -34.6269163973      -20.9915128966      -29.8141608748  TIP3      3608            0.0000000000
     33143      3800  TIP3      H1            -34.4046194655      -21.9368792997      -29.7866505619  TIP3      3608            0.0000000000
     33144      3800  TIP3      H2            -34.4297304032      -20.7503822266      -28.9041019163  TIP3      3608            0.0000000000
     33145      3801  TIP3      OH2           -29.9171900785      -22.9349287988      -40.0696774677  TIP3      3609            0.0000000000
     33146      3801  TIP3      H1            -29.6547767195      -23.4973085443      -39.3278999289  TIP3      3609            0.0000000000
     33147      3801  TIP3      H2            -29.8386198216      -22.0274794897      -39.7162479998  TIP3      3609            0.0000000000
     33148      3802  TIP3      OH2           -33.4627528230      -25.7197101948      -39.6316387853  TIP3      3610            0.0000000000
     33149      3802  TIP3      H1            -34.0809962607      -25.3095047961      -38.9930271483  TIP3      3610            0.0000000000
     33150      3802  TIP3      H2            -32.8781822800      -24.9695934005      -39.8433437880  TIP3      3610            0.0000000000
     33151      3803  TIP3      OH2           -25.5419103354      -33.0666713540      -29.2545241717  TIP3      3611            0.0000000000
     33152      3803  TIP3      H1            -24.8203652216      -32.9795996508      -28.6093637493  TIP3      3611            0.0000000000
     33153      3803  TIP3      H2            -25.9150234209      -33.9465778288      -29.0679261982  TIP3      3611            0.0000000000
     33154      3804  TIP3      OH2           -24.7561676933      -33.4864957674      -38.1506218977  TIP3      3612            0.0000000000
     33155      3804  TIP3      H1            -24.5671800368      -32.9689430898      -38.9536602404  TIP3      3612            0.0000000000
     33156      3804  TIP3      H2            -24.2675867513      -32.9809271400      -37.4787970244  TIP3      3612            0.0000000000
     33157      3805  TIP3      OH2           -27.1267137807      -21.2926726403      -39.3242229645  TIP3      3613            0.0000000000
     33158      3805  TIP3      H1            -27.9457965264      -20.7721837668      -39.2708113350  TIP3      3613            0.0000000000
     33159      3805  TIP3      H2            -26.5828748000      -20.8015877056      -39.9650057521  TIP3      3613            0.0000000000
     33160      3806  TIP3      OH2           -27.5855293620      -31.7529987966      -37.3447338329  TIP3      3614            0.0000000000
     33161      3806  TIP3      H1            -26.8145309148      -31.1575462940      -37.3250886176  TIP3      3614            0.0000000000
     33162      3806  TIP3      H2            -27.8447942292      -31.8470873151      -36.4062861588  TIP3      3614            0.0000000000
     33163      3807  TIP3      OH2           -26.9927338305      -30.6916526636      -28.2104152266  TIP3      3615            0.0000000000
     33164      3807  TIP3      H1            -26.9620842935      -30.1474785712      -27.4004592873  TIP3      3615            0.0000000000
     33165      3807  TIP3      H2            -26.3614041539      -31.4039522585      -28.0604793178  TIP3      3615            0.0000000000
     33166      3808  TIP3      OH2           -26.7147881426      -34.6790858179      -36.3919794898  TIP3      3616            0.0000000000
     33167      3808  TIP3      H1            -27.0537992876      -33.9887710984      -35.7987515377  TIP3      3616            0.0000000000
     33168      3808  TIP3      H2            -26.0740543590      -34.1455756177      -36.9217043353  TIP3      3616            0.0000000000
     33169      3809  TIP3      OH2           -29.7331067248      -20.2582599170      -39.2994565201  TIP3      3617            0.0000000000
     33170      3809  TIP3      H1            -29.6033157120      -19.4347294889      -39.8155203377  TIP3      3617            0.0000000000
     33171      3809  TIP3      H2            -30.0167315632      -19.9082911306      -38.4233993436  TIP3      3617            0.0000000000
     33172      3810  TIP3      OH2           -31.0426457886      -33.5839839107      -39.7027154597  TIP3      3618            0.0000000000
     33173      3810  TIP3      H1            -31.1423207297      -32.6675129264      -39.3708076640  TIP3      3618            0.0000000000
     33174      3810  TIP3      H2            -30.1283170053      -33.7416795828      -39.4114508763  TIP3      3618            0.0000000000
     33175      3811  TIP3      OH2           -20.8678622582      -32.8781453751      -27.2921539223  TIP3      3619            0.0000000000
     33176      3811  TIP3      H1            -21.7754755521      -32.5064144280      -27.4049610037  TIP3      3619            0.0000000000
     33177      3811  TIP3      H2            -20.5471708934      -32.8319682796      -28.2052220567  TIP3      3619            0.0000000000
     33178      3812  TIP3      OH2           -22.2334070924      -29.0337757798      -33.3024707161  TIP3      3620            0.0000000000
     33179      3812  TIP3      H1            -23.0611678051      -29.4791981327      -33.5705597975  TIP3      3620            0.0000000000
     33180      3812  TIP3      H2            -21.7536001690      -29.7183328916      -32.7809547235  TIP3      3620            0.0000000000
     33181      3813  TIP3      OH2           -32.8435183285      -23.0966487556      -40.7046068222  TIP3      3621            0.0000000000
     33182      3813  TIP3      H1            -32.1750255027      -22.4845362739      -40.3823501000  TIP3      3621            0.0000000000
     33183      3813  TIP3      H2            -32.3224526303      -23.5878683339      -41.3687349746  TIP3      3621            0.0000000000
     33184      3814  TIP3      OH2           -34.3776097383      -30.4386984066      -41.5401681791  TIP3      3622            0.0000000000
     33185      3814  TIP3      H1            -34.4347912641      -29.4862337956      -41.3571828005  TIP3      3622            0.0000000000
     33186      3814  TIP3      H2            -35.2737862655      -30.6455832327      -41.8121005338  TIP3      3622            0.0000000000
     33187      3815  TIP3      OH2           -21.1405721320      -19.8072959881      -31.7095988482  TIP3      3623            0.0000000000
     33188      3815  TIP3      H1            -21.3164300236      -19.0408136886      -32.2812562417  TIP3      3623            0.0000000000
     33189      3815  TIP3      H2            -20.2410674255      -19.6985027329      -31.3419327664  TIP3      3623            0.0000000000
     33190      3816  TIP3      OH2           -33.8731933794      -35.5111912703      -32.8133113397  TIP3      3624            0.0000000000
     33191      3816  TIP3      H1            -33.8497816414      -35.6211079185      -33.7916400104  TIP3      3624            0.0000000000
     33192      3816  TIP3      H2            -34.0001854192      -36.4417356298      -32.5567594931  TIP3      3624            0.0000000000
     33193      3817  TIP3      OH2           -34.6845686035      -21.7248906410      -36.6553264523  TIP3      3625            0.0000000000
     33194      3817  TIP3      H1            -35.5605289670      -21.3258234114      -36.7197440066  TIP3      3625            0.0000000000
     33195      3817  TIP3      H2            -34.2423228955      -21.2521321315      -37.3765166619  TIP3      3625            0.0000000000
     33196      3818  TIP3      OH2           -35.3664773233      -19.0748061450      -25.3690141237  TIP3      3626            0.0000000000
     33197      3818  TIP3      H1            -34.8462221769      -19.4278644555      -24.6614138367  TIP3      3626            0.0000000000
     33198      3818  TIP3      H2            -35.9010002787      -19.8704416163      -25.6040150166  TIP3      3626            0.0000000000
     33199      3819  TIP3      OH2           -26.3230028555      -20.6062050306      -41.7850393030  TIP3      3627            0.0000000000
     33200      3819  TIP3      H1            -27.1696796897      -21.0775053388      -41.8926840303  TIP3      3627            0.0000000000
     33201      3819  TIP3      H2            -25.8234036849      -21.0440677285      -42.4778341046  TIP3      3627            0.0000000000
     33202      3820  TIP3      OH2           -24.3275595512      -21.7900341190      -25.0355396209  TIP3      3628            0.0000000000
     33203      3820  TIP3      H1            -24.6718430830      -22.6648776044      -24.7499398844  TIP3      3628            0.0000000000
     33204      3820  TIP3      H2            -23.5559791786      -21.6575630701      -24.4616854935  TIP3      3628            0.0000000000
     33205      3821  TIP3      OH2           -22.1230649660      -20.8701490209      -42.1825975344  TIP3      3629            0.0000000000
     33206      3821  TIP3      H1            -21.8880048223      -21.6856200293      -41.6979130381  TIP3      3629            0.0000000000
     33207      3821  TIP3      H2            -21.3389792338      -20.6847166810      -42.7142989998  TIP3      3629            0.0000000000
     33208      3822  TIP3      OH2           -35.5154550103      -25.2713548813      -24.4345854278  TIP3      3630            0.0000000000
     33209      3822  TIP3      H1            -35.4248830514      -26.2101093017      -24.6721816001  TIP3      3630            0.0000000000
     33210      3822  TIP3      H2            -36.3287454377      -25.0436083388      -24.9043199400  TIP3      3630            0.0000000000
     33211      3823  TIP3      OH2           -31.1810854872      -24.8943259379      -42.2259755060  TIP3      3631            0.0000000000
     33212      3823  TIP3      H1            -31.1132052886      -25.7263856594      -41.7527668195  TIP3      3631            0.0000000000
     33213      3823  TIP3      H2            -30.6291930257      -25.1261762994      -42.9964628194  TIP3      3631            0.0000000000
     33214      3824  TIP3      OH2           -23.2006510701      -25.4481779904      -27.6216398231  TIP3      3632            0.0000000000
     33215      3824  TIP3      H1            -22.3993870473      -24.8810464401      -27.6757078568  TIP3      3632            0.0000000000
     33216      3824  TIP3      H2            -23.8950445007      -24.7792530468      -27.5694548682  TIP3      3632            0.0000000000
     33217      3825  TIP3      OH2           -34.8031953642      -28.1136803189      -25.0189179278  TIP3      3633            0.0000000000
     33218      3825  TIP3      H1            -34.2634081401      -28.8919044942      -25.1618138113  TIP3      3633            0.0000000000
     33219      3825  TIP3      H2            -34.8868021227      -28.0138621006      -24.0486559239  TIP3      3633            0.0000000000
     33220      3826  TIP3      OH2           -30.0347422768      -26.9253249514      -39.9364707690  TIP3      3634            0.0000000000
     33221      3826  TIP3      H1            -30.5540450905      -27.4608796074      -39.3170641228  TIP3      3634            0.0000000000
     33222      3826  TIP3      H2            -29.7359632145      -27.6126339459      -40.5799073726  TIP3      3634            0.0000000000
     33223      3827  TIP3      OH2           -30.8139375390      -29.1493947535      -27.6410946012  TIP3      3635            0.0000000000
     33224      3827  TIP3      H1            -31.3785651250      -28.3956776373      -27.4042650784  TIP3      3635            0.0000000000
     33225      3827  TIP3      H2            -30.4000464812      -28.7890620391      -28.4479028057  TIP3      3635            0.0000000000
     33226      3828  TIP3      OH2           -28.9848905825      -28.6895455071      -41.7497342328  TIP3      3636            0.0000000000
     33227      3828  TIP3      H1            -29.0818476077      -28.9058626879      -42.6855392180  TIP3      3636            0.0000000000
     33228      3828  TIP3      H2            -28.0040097629      -28.6287557677      -41.6361884400  TIP3      3636            0.0000000000
     33229      3829  TIP3      OH2           -25.7075815916      -26.5381705562      -24.1500412632  TIP3      3637            0.0000000000
     33230      3829  TIP3      H1            -24.7880262765      -26.6091312718      -24.4827328902  TIP3      3637            0.0000000000
     33231      3829  TIP3      H2            -25.8315891809      -27.4033567706      -23.7731085942  TIP3      3637            0.0000000000
     33232      3830  TIP3      OH2           -20.0206529463      -26.0914889649       43.1909889204  TIP3      3638            0.0000000000
     33233      3830  TIP3      H1            -19.9760745074      -26.6827282671       42.3905129516  TIP3      3638            0.0000000000
     33234      3830  TIP3      H2            -19.5683488242      -25.4011140742       42.6782912086  TIP3      3638            0.0000000000
     33235      3831  TIP3      OH2           -30.4339202532      -31.7596352711      -26.5783604517  TIP3      3639            0.0000000000
     33236      3831  TIP3      H1            -30.2614887403      -32.4639943864      -27.2343371437  TIP3      3639            0.0000000000
     33237      3831  TIP3      H2            -30.4229703255      -30.9552832658      -27.1421710802  TIP3      3639            0.0000000000
     33238      3832  TIP3      OH2           -29.9728231170      -33.3652086356      -29.0452977918  TIP3      3640            0.0000000000
     33239      3832  TIP3      H1            -29.4633261538      -32.8951363209      -29.7504610039  TIP3      3640            0.0000000000
     33240      3832  TIP3      H2            -30.8703861997      -33.4804262247      -29.4383719139  TIP3      3640            0.0000000000
     33241      3833  TIP3      OH2           -28.4366192701      -27.8915732625      -28.8095850750  TIP3      3641            0.0000000000
     33242      3833  TIP3      H1            -27.6825878917      -28.0511327348      -29.3837996941  TIP3      3641            0.0000000000
     33243      3833  TIP3      H2            -28.8066903064      -27.0525776595      -29.1315525985  TIP3      3641            0.0000000000
     33244      3834  TIP3      OH2           -22.7452254767      -27.3445083561      -25.7428633272  TIP3      3642            0.0000000000
     33245      3834  TIP3      H1            -22.9193465710      -26.5859011275      -26.3262340446  TIP3      3642            0.0000000000
     33246      3834  TIP3      H2            -21.7660151865      -27.3867219162      -25.7944502110  TIP3      3642            0.0000000000
     33247      3835  TIP3      OH2           -31.8921217790      -30.5139143183      -24.7539363966  TIP3      3643            0.0000000000
     33248      3835  TIP3      H1            -32.5236787889      -31.1530450454      -25.1261391556  TIP3      3643            0.0000000000
     33249      3835  TIP3      H2            -31.1466245054      -30.7935390718      -25.3329716096  TIP3      3643            0.0000000000
     33250      3836  TIP3      OH2           -29.2705043541      -35.7926675953      -28.4948187008  TIP3      3644            0.0000000000
     33251      3836  TIP3      H1            -29.3748037796      -34.8329953014      -28.7050620325  TIP3      3644            0.0000000000
     33252      3836  TIP3      H2            -29.9416739246      -36.1899060894      -29.0716537415  TIP3      3644            0.0000000000
     33253      3837  TIP3      OH2           -27.9334212343      -31.6000174206      -25.0470381858  TIP3      3645            0.0000000000
     33254      3837  TIP3      H1            -28.2541644683      -31.8939889568      -24.1781661897  TIP3      3645            0.0000000000
     33255      3837  TIP3      H2            -28.7142709653      -31.8302212120      -25.5849300213  TIP3      3645            0.0000000000
     33256      3838  TIP3      OH2           -25.1964772708      -32.4562276974      -25.9804233913  TIP3      3646            0.0000000000
     33257      3838  TIP3      H1            -26.1595311552      -32.4297237635      -25.8356787759  TIP3      3646            0.0000000000
     33258      3838  TIP3      H2            -24.9034213033      -33.0572930529      -25.2671555984  TIP3      3646            0.0000000000
     33259      3839  TIP3      OH2           -23.6087868243      -33.7421082874      -23.9534877542  TIP3      3647            0.0000000000
     33260      3839  TIP3      H1            -23.7004936902      -34.7268435627      -24.0372731397  TIP3      3647            0.0000000000
     33261      3839  TIP3      H2            -23.9058253552      -33.5557072445      -23.0741360336  TIP3      3647            0.0000000000
     33262      3840  TIP3      OH2           -33.7600601875      -32.6394642468      -24.8958093036  TIP3      3648            0.0000000000
     33263      3840  TIP3      H1            -33.5709348281      -33.3477210551      -25.5430222539  TIP3      3648            0.0000000000
     33264      3840  TIP3      H2            -33.8983735884      -33.2025866982      -24.0945695197  TIP3      3648            0.0000000000
     33265      3841  TIP3      OH2           -29.0228635609       36.8710635158      -25.9703481450  TIP3      3649            0.0000000000
     33266      3841  TIP3      H1            -28.3353641293       36.1995301733      -25.8409011154  TIP3      3649            0.0000000000
     33267      3841  TIP3      H2            -29.0466517472       37.0731465485      -26.9239918124  TIP3      3649            0.0000000000
     33268      3842  TIP3      OH2           -29.1412203740      -18.0381610967      -40.7406100010  TIP3      3650            0.0000000000
     33269      3842  TIP3      H1            -28.1714335869      -17.9241575287      -40.6086099815  TIP3      3650            0.0000000000
     33270      3842  TIP3      H2            -29.3465968707      -17.3565226303      -41.3818339252  TIP3      3650            0.0000000000
     33271      3843  TIP3      OH2           -35.5534092633      -23.4619715999      -41.1695997325  TIP3      3651            0.0000000000
     33272      3843  TIP3      H1            -34.5964909192      -23.3319161679      -40.9781012915  TIP3      3651            0.0000000000
     33273      3843  TIP3      H2            -35.5355820542      -24.0244697577      -41.9473520443  TIP3      3651            0.0000000000
     33274      3844  TIP3      OH2            36.8651511089      -17.9662052883      -36.3395024108  TIP3      3652            0.0000000000
     33275      3844  TIP3      H1             36.0027211024      -18.2242014586      -36.7023510273  TIP3      3652            0.0000000000
     33276      3844  TIP3      H2             37.0112495549      -18.6273142843      -35.6182876545  TIP3      3652            0.0000000000
     33277      3845  TIP3      OH2           -36.0484081127      -19.8840389297      -34.4086749339  TIP3      3653            0.0000000000
     33278      3845  TIP3      H1            -36.3258577704      -20.7923402637      -34.1708208892  TIP3      3653            0.0000000000
     33279      3845  TIP3      H2            -35.7485315125      -19.5887277333      -33.5296532652  TIP3      3653            0.0000000000
     33280      3846  TIP3      OH2           -18.4279477629      -19.0650064919      -31.3118562271  TIP3      3654            0.0000000000
     33281      3846  TIP3      H1            -18.3846354373      -18.9611035678      -30.3333242236  TIP3      3654            0.0000000000
     33282      3846  TIP3      H2            -17.6643750262      -18.5221835759      -31.5556070735  TIP3      3654            0.0000000000
     33283      3847  TIP3      OH2           -18.8617572263      -19.5343788102      -28.4821559321  TIP3      3655            0.0000000000
     33284      3847  TIP3      H1            -19.3555283365      -20.3034352599      -28.8396086600  TIP3      3655            0.0000000000
     33285      3847  TIP3      H2            -18.3902603776      -19.9819056933      -27.7594681246  TIP3      3655            0.0000000000
     33286      3848  TIP3      OH2           -20.4151539806      -23.7438584347      -23.7596109534  TIP3      3656            0.0000000000
     33287      3848  TIP3      H1            -21.3190929070      -23.8995518564      -23.4603680570  TIP3      3656            0.0000000000
     33288      3848  TIP3      H2            -20.0642396956      -22.9772266828      -23.3321986504  TIP3      3656            0.0000000000
     33289      3849  TIP3      OH2           -19.0965039043      -25.4914465711      -38.3826941777  TIP3      3657            0.0000000000
     33290      3849  TIP3      H1            -18.2492659202      -25.0794641789      -38.1605915860  TIP3      3657            0.0000000000
     33291      3849  TIP3      H2            -19.1381362054      -26.1971528844      -37.7019500330  TIP3      3657            0.0000000000
     33292      3850  TIP3      OH2           -18.7572505913      -27.4059413817      -36.4886635754  TIP3      3658            0.0000000000
     33293      3850  TIP3      H1            -19.5131541489      -27.9126032150      -36.1136917126  TIP3      3658            0.0000000000
     33294      3850  TIP3      H2            -18.1649235404      -27.2810764153      -35.7197911796  TIP3      3658            0.0000000000
     33295      3851  TIP3      OH2           -19.0027554796      -24.7099411302      -31.5145375861  TIP3      3659            0.0000000000
     33296      3851  TIP3      H1            -18.1930012981      -25.1015459494      -31.8900245530  TIP3      3659            0.0000000000
     33297      3851  TIP3      H2            -18.8531802498      -23.7619125253      -31.6704428289  TIP3      3659            0.0000000000
     33298      3852  TIP3      OH2           -20.4514643192      -21.7996277730      -29.2647911568  TIP3      3660            0.0000000000
     33299      3852  TIP3      H1            -21.1274320943      -21.4890951522      -28.6384766090  TIP3      3660            0.0000000000
     33300      3852  TIP3      H2            -21.0066443563      -22.2224621316      -29.9493086388  TIP3      3660            0.0000000000
     33301      3853  TIP3      OH2           -18.4952446171      -27.6024971566      -40.1056500462  TIP3      3661            0.0000000000
     33302      3853  TIP3      H1            -19.0610572750      -27.2233075709      -40.8020397043  TIP3      3661            0.0000000000
     33303      3853  TIP3      H2            -18.5530111822      -26.8844780568      -39.4438413908  TIP3      3661            0.0000000000
     33304      3854  TIP3      OH2           -20.6293302897      -30.2668307283      -41.4234696509  TIP3      3662            0.0000000000
     33305      3854  TIP3      H1            -20.0973545462      -29.7128057842      -42.0307970959  TIP3      3662            0.0000000000
     33306      3854  TIP3      H2            -20.3063798344      -31.0921810900      -41.8676806742  TIP3      3662            0.0000000000
     33307      3855  TIP3      OH2           -20.9349742875      -28.9337564108      -35.9126497104  TIP3      3663            0.0000000000
     33308      3855  TIP3      H1            -21.0893822053      -29.8892235435      -35.9692804942  TIP3      3663            0.0000000000
     33309      3855  TIP3      H2            -21.2616929123      -28.7300800916      -35.0162912932  TIP3      3663            0.0000000000
     33310      3856  TIP3      OH2           -35.9640189546      -26.8796249266      -31.8769512219  TIP3      3664            0.0000000000
     33311      3856  TIP3      H1            -35.7659867625      -26.9079750227      -32.8431948506  TIP3      3664            0.0000000000
     33312      3856  TIP3      H2            -35.0695612276      -27.0028938009      -31.4964562379  TIP3      3664            0.0000000000
     33313      3857  TIP3      OH2           -20.1122137508      -26.9843536412      -26.2593886207  TIP3      3665            0.0000000000
     33314      3857  TIP3      H1            -19.5024253127      -27.7288964180      -26.0650039397  TIP3      3665            0.0000000000
     33315      3857  TIP3      H2            -19.5039520053      -26.2274659652      -26.2337654799  TIP3      3665            0.0000000000
     33316      3858  TIP3      OH2           -18.5408603650      -29.0798275354      -25.6140393280  TIP3      3666            0.0000000000
     33317      3858  TIP3      H1            -19.4561340876      -29.4525048391      -25.6927567600  TIP3      3666            0.0000000000
     33318      3858  TIP3      H2            -18.0354387152      -29.9038674326      -25.6721248494  TIP3      3666            0.0000000000
     33319      3859  TIP3      OH2           -20.8990451968      -32.9369201552      -42.4832952779  TIP3      3667            0.0000000000
     33320      3859  TIP3      H1            -20.2402993481      -33.2815167707      -41.8422995094  TIP3      3667            0.0000000000
     33321      3859  TIP3      H2            -21.7373258740      -33.3274906926      -42.2310881980  TIP3      3667            0.0000000000
     33322      3860  TIP3      OH2           -21.2758112011      -31.3354580831      -37.4384018596  TIP3      3668            0.0000000000
     33323      3860  TIP3      H1            -20.9723128086      -32.2627287632      -37.3402500111  TIP3      3668            0.0000000000
     33324      3860  TIP3      H2            -20.4987617593      -30.9465059385      -37.8615163384  TIP3      3668            0.0000000000
     33325      3861  TIP3      OH2           -20.6332551129      -30.7908654362      -32.0257936841  TIP3      3669            0.0000000000
     33326      3861  TIP3      H1            -19.6699791332      -30.5735348026      -32.0276054374  TIP3      3669            0.0000000000
     33327      3861  TIP3      H2            -20.8253265174      -30.6777940995      -31.0769209033  TIP3      3669            0.0000000000
     33328      3862  TIP3      OH2           -20.5800559185      -30.0725751292      -29.2720900117  TIP3      3670            0.0000000000
     33329      3862  TIP3      H1            -21.4286330664      -29.7848408703      -28.8648914625  TIP3      3670            0.0000000000
     33330      3862  TIP3      H2            -20.1314664151      -29.2113324753      -29.4563112921  TIP3      3670            0.0000000000
     33331      3863  TIP3      OH2           -36.0763800302      -31.5772712555      -25.5890881391  TIP3      3671            0.0000000000
     33332      3863  TIP3      H1            -35.2124138316      -31.9928055690      -25.5555970208  TIP3      3671            0.0000000000
     33333      3863  TIP3      H2            -36.7057782243      -32.3284517771      -25.4376967560  TIP3      3671            0.0000000000
     33334      3864  TIP3      OH2           -18.2159639329      -36.0857022971      -23.8847532541  TIP3      3672            0.0000000000
     33335      3864  TIP3      H1            -17.9526303442      -36.7245568426      -24.5475324480  TIP3      3672            0.0000000000
     33336      3864  TIP3      H2            -18.2336666268      -35.2310220772      -24.3555555370  TIP3      3672            0.0000000000
     33337      3865  TIP3      OH2           -20.5992383463      -34.0850262208      -37.4229173767  TIP3      3673            0.0000000000
     33338      3865  TIP3      H1            -20.3986050327      -34.5265861681      -36.5698500996  TIP3      3673            0.0000000000
     33339      3865  TIP3      H2            -21.1883478272      -34.7359163389      -37.8671496535  TIP3      3673            0.0000000000
     33340      3866  TIP3      OH2           -35.1668371629      -33.2256450305      -32.8541593022  TIP3      3674            0.0000000000
     33341      3866  TIP3      H1            -34.6668597560      -34.0431921366      -32.6194684459  TIP3      3674            0.0000000000
     33342      3866  TIP3      H2            -34.5775710744      -32.5759541165      -32.4484119021  TIP3      3674            0.0000000000
     33343      3867  TIP3      OH2           -36.1106317844      -29.7499894312      -31.4006121477  TIP3      3675            0.0000000000
     33344      3867  TIP3      H1            -36.0252921694      -30.1168420621      -32.3032770193  TIP3      3675            0.0000000000
     33345      3867  TIP3      H2            -36.3318070331      -28.8515551860      -31.6537193099  TIP3      3675            0.0000000000
     33346      3868  TIP3      OH2           -18.7336309921      -33.9706824308      -25.5883118300  TIP3      3676            0.0000000000
     33347      3868  TIP3      H1            -19.6695472652      -33.6678416105      -25.5809550764  TIP3      3676            0.0000000000
     33348      3868  TIP3      H2            -18.7389445293      -34.5298028678      -26.3765613247  TIP3      3676            0.0000000000
     33349      3869  TIP3      OH2           -18.7827334168      -33.9651647252      -40.9020907183  TIP3      3677            0.0000000000
     33350      3869  TIP3      H1            -18.3426880593      -34.7417815171      -41.3166576023  TIP3      3677            0.0000000000
     33351      3869  TIP3      H2            -18.0424563240      -33.3426110458      -40.8707541207  TIP3      3677            0.0000000000
     33352      3870  TIP3      OH2            37.3908309805      -34.0862566686      -38.0177562701  TIP3      3678            0.0000000000
     33353      3870  TIP3      H1             36.4503235890      -33.8328108206      -37.9281794750  TIP3      3678            0.0000000000
     33354      3870  TIP3      H2             37.6486043285      -33.3927072877      -38.6613468225  TIP3      3678            0.0000000000
     33355      3871  TIP3      OH2           -21.7155400412      -19.0794156913      -35.7727531698  TIP3      3679            0.0000000000
     33356      3871  TIP3      H1            -21.0607371839      -19.3404851871      -36.4453645989  TIP3      3679            0.0000000000
     33357      3871  TIP3      H2            -21.2396901100      -18.4900381787      -35.1814343915  TIP3      3679            0.0000000000
     33358      3872  TIP3      OH2            37.0481730750      -35.3513257290      -29.3044465600  TIP3      3680            0.0000000000
     33359      3872  TIP3      H1             36.3057173749      -35.6022111773      -28.7610058197  TIP3      3680            0.0000000000
     33360      3872  TIP3      H2             36.5559026354      -34.8171817552      -29.9493910542  TIP3      3680            0.0000000000
     33361      3873  TIP3      OH2           -34.2761338479      -21.9956073797      -25.2467256312  TIP3      3681            0.0000000000
     33362      3873  TIP3      H1            -35.1214388474      -21.9473657711      -25.7086293454  TIP3      3681            0.0000000000
     33363      3873  TIP3      H2            -34.5242119223      -22.2855424827      -24.3601566885  TIP3      3681            0.0000000000
     33364      3874  TIP3      OH2           -31.3795474979      -21.1230247329      -29.0237605489  TIP3      3682            0.0000000000
     33365      3874  TIP3      H1            -31.7427702637      -20.2651304727      -29.2956766304  TIP3      3682            0.0000000000
     33366      3874  TIP3      H2            -30.4456284297      -21.0435800529      -29.3077589623  TIP3      3682            0.0000000000
     33367      3875  TIP3      OH2           -27.0278477666      -19.7667690847      -26.1516657740  TIP3      3683            0.0000000000
     33368      3875  TIP3      H1            -26.9097916286      -20.0502796989      -25.2106281473  TIP3      3683            0.0000000000
     33369      3875  TIP3      H2            -26.1487140382      -19.3925166709      -26.3361541548  TIP3      3683            0.0000000000
     33370      3876  TIP3      OH2           -24.7545833095      -18.4265032849      -26.7884081097  TIP3      3684            0.0000000000
     33371      3876  TIP3      H1            -24.0504108167      -19.0397099628      -27.0541041375  TIP3      3684            0.0000000000
     33372      3876  TIP3      H2            -24.4044674887      -18.0516352195      -25.9636570171  TIP3      3684            0.0000000000
     33373      3877  TIP3      OH2           -19.7277098693      -35.8073945074      -27.7355817162  TIP3      3685            0.0000000000
     33374      3877  TIP3      H1            -20.5695995909      -35.4858727978      -28.0826975202  TIP3      3685            0.0000000000
     33375      3877  TIP3      H2            -19.5858748911      -36.6418246505      -28.2208624643  TIP3      3685            0.0000000000
     33376      3878  TIP3      OH2           -33.9387368151      -17.8827163481      -29.0064512452  TIP3      3686            0.0000000000
     33377      3878  TIP3      H1            -34.6967138990      -17.4217826497      -29.4144746244  TIP3      3686            0.0000000000
     33378      3878  TIP3      H2            -34.3027440637      -18.0964118489      -28.1380398649  TIP3      3686            0.0000000000
     33379      3879  TIP3      OH2           -31.4813019063      -18.3164099935      -29.9524083212  TIP3      3687            0.0000000000
     33380      3879  TIP3      H1            -32.3624311864      -18.1622952668      -29.5386097337  TIP3      3687            0.0000000000
     33381      3879  TIP3      H2            -31.5345334244      -17.7222718389      -30.7214838163  TIP3      3687            0.0000000000
     33382      3880  TIP3      OH2           -26.7802540426      -18.4156852924      -30.7693705122  TIP3      3688            0.0000000000
     33383      3880  TIP3      H1            -27.2394225029      -17.8593120580      -31.4190634097  TIP3      3688            0.0000000000
     33384      3880  TIP3      H2            -26.6451639911      -17.7815945642      -30.0349191695  TIP3      3688            0.0000000000
     33385      3881  TIP3      OH2           -24.4937499309      -19.6099719245      -29.7422429896  TIP3      3689            0.0000000000
     33386      3881  TIP3      H1            -25.3451665943      -19.3293181499      -30.1164203722  TIP3      3689            0.0000000000
     33387      3881  TIP3      H2            -24.0080686145      -18.7728221592      -29.8306689210  TIP3      3689            0.0000000000
     33388      3882  TIP3      OH2           -21.8952685013      -18.0449276050      -29.5279515353  TIP3      3690            0.0000000000
     33389      3882  TIP3      H1            -21.9748589992      -17.0855311218      -29.7567266733  TIP3      3690            0.0000000000
     33390      3882  TIP3      H2            -21.7096017902      -18.4184847299      -30.4036438619  TIP3      3690            0.0000000000
     33391      3883  TIP3      OH2           -34.5113853935      -19.2543669196      -32.0975107682  TIP3      3691            0.0000000000
     33392      3883  TIP3      H1            -34.5539403869      -19.6840712939      -31.2176016629  TIP3      3691            0.0000000000
     33393      3883  TIP3      H2            -33.7000351800      -19.6464781437      -32.4710438512  TIP3      3691            0.0000000000
     33394      3884  TIP3      OH2           -32.4126874323      -20.5577825828      -33.4387751016  TIP3      3692            0.0000000000
     33395      3884  TIP3      H1            -32.5992641083      -21.4815259317      -33.1798209236  TIP3      3692            0.0000000000
     33396      3884  TIP3      H2            -31.5664095543      -20.3907066327      -32.9715520578  TIP3      3692            0.0000000000
     33397      3885  TIP3      OH2           -29.8072357545      -20.0525823808      -32.5445689329  TIP3      3693            0.0000000000
     33398      3885  TIP3      H1            -29.6607427282      -20.9817670311      -32.8054538475  TIP3      3693            0.0000000000
     33399      3885  TIP3      H2            -29.7685749043      -20.1150850162      -31.5759741120  TIP3      3693            0.0000000000
     33400      3886  TIP3      OH2           -26.3908542244      -34.3153128390      -33.4430061291  TIP3      3694            0.0000000000
     33401      3886  TIP3      H1            -27.0160007060      -35.0049981799      -33.1307136489  TIP3      3694            0.0000000000
     33402      3886  TIP3      H2            -25.7626467462      -34.8659301715      -33.9284712314  TIP3      3694            0.0000000000
     33403      3887  TIP3      OH2           -21.2411235329      -36.3302706137      -33.3222987999  TIP3      3695            0.0000000000
     33404      3887  TIP3      H1            -20.6248397974      -35.7969681811      -33.8700812825  TIP3      3695            0.0000000000
     33405      3887  TIP3      H2            -22.1092032817      -35.9974756750      -33.5710726333  TIP3      3695            0.0000000000
     33406      3888  TIP3      OH2           -19.5239657714      -35.0796114842      -35.1004088090  TIP3      3696            0.0000000000
     33407      3888  TIP3      H1            -18.8475069442      -35.6870374028      -35.4510020976  TIP3      3696            0.0000000000
     33408      3888  TIP3      H2            -19.0224085164      -34.2498930709      -34.9716729280  TIP3      3696            0.0000000000
     33409      3889  TIP3      OH2           -33.8902052512      -35.7337347203      -35.7427496058  TIP3      3697            0.0000000000
     33410      3889  TIP3      H1            -34.7890410239      -35.9883037092      -36.0308336522  TIP3      3697            0.0000000000
     33411      3889  TIP3      H2            -33.5806868332      -36.6202205898      -35.4997038171  TIP3      3697            0.0000000000
     33412      3890  TIP3      OH2           -35.1139550670      -35.5454535960      -40.4014733778  TIP3      3698            0.0000000000
     33413      3890  TIP3      H1            -34.4212828757      -34.8901106022      -40.5449036218  TIP3      3698            0.0000000000
     33414      3890  TIP3      H2            -35.5458251264      -35.3166626204      -39.5657722792  TIP3      3698            0.0000000000
     33415      3891  TIP3      OH2           -29.2520408927      -35.4243846926      -35.4282479459  TIP3      3699            0.0000000000
     33416      3891  TIP3      H1            -28.3114335143      -35.4516943637      -35.6853001666  TIP3      3699            0.0000000000
     33417      3891  TIP3      H2            -29.3537544234      -36.1019749646      -34.7563609747  TIP3      3699            0.0000000000
     33418      3892  TIP3      OH2           -24.0038760150      -35.5913484817      -34.1110373463  TIP3      3700            0.0000000000
     33419      3892  TIP3      H1            -23.8653756917      -35.5928529335      -35.0606289893  TIP3      3700            0.0000000000
     33420      3892  TIP3      H2            -24.1064493669      -36.5610391376      -33.9673460188  TIP3      3700            0.0000000000
     33421      3893  TIP3      OH2           -22.5555985072      -35.8039523463      -38.4271744900  TIP3      3701            0.0000000000
     33422      3893  TIP3      H1            -23.2829899277      -35.1993490517      -38.6330469787  TIP3      3701            0.0000000000
     33423      3893  TIP3      H2            -22.9615540715      -36.6753981453      -38.3296200716  TIP3      3701            0.0000000000
     33424      3894  TIP3      OH2           -35.1331467157      -20.0056710413      -38.9006190657  TIP3      3702            0.0000000000
     33425      3894  TIP3      H1            -35.9278746909      -20.0905956700      -39.4655217931  TIP3      3702            0.0000000000
     33426      3894  TIP3      H2            -35.2583936558      -19.0730726218      -38.6826874565  TIP3      3702            0.0000000000
     33427      3895  TIP3      OH2           -33.3380567137      -34.0002541595      -41.4275205476  TIP3      3703            0.0000000000
     33428      3895  TIP3      H1            -32.8827208690      -34.7057287530      -41.8979273022  TIP3      3703            0.0000000000
     33429      3895  TIP3      H2            -32.7213427094      -33.7481486490      -40.7298913794  TIP3      3703            0.0000000000
     33430      3896  TIP3      OH2           -28.4113311567      -33.8704334950      -38.9122340291  TIP3      3704            0.0000000000
     33431      3896  TIP3      H1            -28.0722721149      -34.3988422552      -38.1676128722  TIP3      3704            0.0000000000
     33432      3896  TIP3      H2            -28.3171438580      -32.9926534418      -38.4672172264  TIP3      3704            0.0000000000
     33433      3897  TIP3      OH2           -26.4738196035      -18.4760223683      -40.4661137574  TIP3      3705            0.0000000000
     33434      3897  TIP3      H1            -25.5096850585      -18.5071585241      -40.6083812716  TIP3      3705            0.0000000000
     33435      3897  TIP3      H2            -26.6462104336      -19.2177828904      -41.0948307307  TIP3      3705            0.0000000000
     33436      3898  TIP3      OH2           -19.7384366020      -19.2740247434      -37.7421758330  TIP3      3706            0.0000000000
     33437      3898  TIP3      H1            -19.9428658223      -20.0473156081      -38.3284854948  TIP3      3706            0.0000000000
     33438      3898  TIP3      H2            -19.8125136849      -18.5543436716      -38.4005444420  TIP3      3706            0.0000000000
     33439      3899  TIP3      OH2           -34.2316502217      -35.1421894030      -26.0465342219  TIP3      3707            0.0000000000
     33440      3899  TIP3      H1            -34.5032552116      -36.0086126776      -25.7080963878  TIP3      3707            0.0000000000
     33441      3899  TIP3      H2            -33.2768828680      -35.2533445267      -25.8178030070  TIP3      3707            0.0000000000
     33442      3900  TIP3      OH2           -32.2692369288      -35.6966342183      -24.5298030155  TIP3      3708            0.0000000000
     33443      3900  TIP3      H1            -31.3263630214      -35.9214035189      -24.6711108762  TIP3      3708            0.0000000000
     33444      3900  TIP3      H2            -32.4437966301      -36.5595947244      -24.1008847673  TIP3      3708            0.0000000000
     33445      3901  TIP3      OH2           -33.4319143243      -19.0738626781      -41.8566816406  TIP3      3709            0.0000000000
     33446      3901  TIP3      H1            -33.7673149586      -18.8243451346      -40.9875598081  TIP3      3709            0.0000000000
     33447      3901  TIP3      H2            -32.7170856809      -19.6642453387      -41.6646097428  TIP3      3709            0.0000000000
     33448      3902  TIP3      OH2           -23.7309306388       37.1471520906      -24.3365433155  TIP3      3710            0.0000000000
     33449      3902  TIP3      H1            -23.7368556161       36.4751121658      -23.6264657877  TIP3      3710            0.0000000000
     33450      3902  TIP3      H2            -22.9149749860       36.8494296938      -24.7622866775  TIP3      3710            0.0000000000
     33451      3903  TIP3      OH2           -20.5187851898      -20.4829786710      -25.5890503787  TIP3      3711            0.0000000000
     33452      3903  TIP3      H1            -21.2397234587      -20.6720082896      -26.2366112194  TIP3      3711            0.0000000000
     33453      3903  TIP3      H2            -20.6078801119      -19.5251983467      -25.5251180500  TIP3      3711            0.0000000000
     33454      3904  TIP3      OH2            -6.0501739258      -26.6427659036      -35.7031863337  TIP3      3712            0.0000000000
     33455      3904  TIP3      H1             -6.0632818202      -25.6627212489      -35.7401668306  TIP3      3712            0.0000000000
     33456      3904  TIP3      H2             -6.7787944673      -26.8752182388      -36.3025005209  TIP3      3712            0.0000000000
     33457      3905  TIP3      OH2            -7.1962727003      -27.3955034739      -32.2016697926  TIP3      3713            0.0000000000
     33458      3905  TIP3      H1             -7.1951757734      -28.0357897770      -31.4707628603  TIP3      3713            0.0000000000
     33459      3905  TIP3      H2             -7.5347518686      -27.8999309229      -32.9550778205  TIP3      3713            0.0000000000
     33460      3906  TIP3      OH2           -14.8448817610      -27.7048702757      -30.6292989505  TIP3      3714            0.0000000000
     33461      3906  TIP3      H1            -14.7599074442      -28.3983966604      -29.9448808839  TIP3      3714            0.0000000000
     33462      3906  TIP3      H2            -14.0838441332      -27.1415047751      -30.4223366806  TIP3      3714            0.0000000000
     33463      3907  TIP3      OH2            -3.5104017517      -24.4356753261      -33.9169152514  TIP3      3715            0.0000000000
     33464      3907  TIP3      H1             -3.9172403405      -25.1511569529      -33.4197754996  TIP3      3715            0.0000000000
     33465      3907  TIP3      H2             -3.4823822064      -23.7293858251      -33.2458408787  TIP3      3715            0.0000000000
     33466      3908  TIP3      OH2           -13.9150818747      -23.2587255951      -32.1642140773  TIP3      3716            0.0000000000
     33467      3908  TIP3      H1            -14.2252130022      -24.1334233549      -32.4666844080  TIP3      3716            0.0000000000
     33468      3908  TIP3      H2            -12.9605741585      -23.4441845004      -32.1064919660  TIP3      3716            0.0000000000
     33469      3909  TIP3      OH2           -17.2409787219      -29.7358451442      -36.6521927685  TIP3      3717            0.0000000000
     33470      3909  TIP3      H1            -17.6761562077      -28.8596078017      -36.6956121734  TIP3      3717            0.0000000000
     33471      3909  TIP3      H2            -17.8358923211      -30.2499575654      -37.2249974153  TIP3      3717            0.0000000000
     33472      3910  TIP3      OH2           -16.5626586192      -27.4681901671      -34.5081591211  TIP3      3718            0.0000000000
     33473      3910  TIP3      H1            -16.2902229696      -28.2974925822      -34.0662753543  TIP3      3718            0.0000000000
     33474      3910  TIP3      H2            -15.8728881711      -27.3702259260      -35.1802718988  TIP3      3718            0.0000000000
     33475      3911  TIP3      OH2            -6.3961314011      -19.2821503257      -33.6815369780  TIP3      3719            0.0000000000
     33476      3911  TIP3      H1             -5.7415997780      -19.9667486881      -33.9676805746  TIP3      3719            0.0000000000
     33477      3911  TIP3      H2             -6.6085946318      -19.6218675890      -32.8119476511  TIP3      3719            0.0000000000
     33478      3912  TIP3      OH2            -8.8194656085      -24.9902489816      -31.7163949606  TIP3      3720            0.0000000000
     33479      3912  TIP3      H1             -8.4867404729      -25.6102978607      -32.3802789259  TIP3      3720            0.0000000000
     33480      3912  TIP3      H2             -8.0021224029      -24.8402621056      -31.2092844582  TIP3      3720            0.0000000000
     33481      3913  TIP3      OH2            -0.2196505353      -33.3453836831      -31.0079236706  TIP3      3721            0.0000000000
     33482      3913  TIP3      H1             -0.0453986190      -32.7461134207      -30.2428591147  TIP3      3721            0.0000000000
     33483      3913  TIP3      H2              0.3414797238      -32.9187010622      -31.6674069530  TIP3      3721            0.0000000000
     33484      3914  TIP3      OH2            -5.6898273205      -30.5562281677      -31.3855102883  TIP3      3722            0.0000000000
     33485      3914  TIP3      H1             -5.4691571031      -31.5059512122      -31.4271466912  TIP3      3722            0.0000000000
     33486      3914  TIP3      H2             -5.7549539029      -30.3726081244      -32.3438598367  TIP3      3722            0.0000000000
     33487      3915  TIP3      OH2           -12.4617915712      -32.3802331234      -34.0339739296  TIP3      3723            0.0000000000
     33488      3915  TIP3      H1            -12.4792345237      -31.4874472410      -34.4399836158  TIP3      3723            0.0000000000
     33489      3915  TIP3      H2            -13.0238824118      -33.0208330910      -34.5039590087  TIP3      3723            0.0000000000
     33490      3916  TIP3      OH2            -4.8010375378      -32.3631021581      -35.8380456952  TIP3      3724            0.0000000000
     33491      3916  TIP3      H1             -4.1558089761      -32.6536583593      -35.1541881249  TIP3      3724            0.0000000000
     33492      3916  TIP3      H2             -4.2420049324      -31.7773079756      -36.3747427797  TIP3      3724            0.0000000000
     33493      3917  TIP3      OH2           -15.9024487199      -30.0032390989      -33.4617236683  TIP3      3725            0.0000000000
     33494      3917  TIP3      H1            -15.2583963295      -30.5637933083      -32.9898037366  TIP3      3725            0.0000000000
     33495      3917  TIP3      H2            -15.8283279569      -30.3313417139      -34.3682440258  TIP3      3725            0.0000000000
     33496      3918  TIP3      OH2           -10.7678262035      -28.4725457257      -34.1532189162  TIP3      3726            0.0000000000
     33497      3918  TIP3      H1            -10.0821416357      -29.0340883094      -33.7457913452  TIP3      3726            0.0000000000
     33498      3918  TIP3      H2            -11.2693209962      -29.1276688009      -34.6568952562  TIP3      3726            0.0000000000
     33499      3919  TIP3      OH2             0.1782153225      -31.9561810876      -28.7255551700  TIP3      3727            0.0000000000
     33500      3919  TIP3      H1             -0.3968233279      -31.1647370849      -28.8377292227  TIP3      3727            0.0000000000
     33501      3919  TIP3      H2              0.2580220838      -32.0076752001      -27.7629238466  TIP3      3727            0.0000000000
     33502      3920  TIP3      OH2           -13.6190779743      -33.4948347048      -30.1532717657  TIP3      3728            0.0000000000
     33503      3920  TIP3      H1            -13.9363089366      -32.9596165281      -30.9041428856  TIP3      3728            0.0000000000
     33504      3920  TIP3      H2            -14.3183671070      -33.3009875753      -29.4830243974  TIP3      3728            0.0000000000
     33505      3921  TIP3      OH2            -6.3508363637      -24.0577129931      -36.6208536938  TIP3      3729            0.0000000000
     33506      3921  TIP3      H1             -6.6232198279      -24.3262779633      -37.5110166197  TIP3      3729            0.0000000000
     33507      3921  TIP3      H2             -6.6492848760      -23.1224228943      -36.5687519897  TIP3      3729            0.0000000000
     33508      3922  TIP3      OH2           -11.1195712680      -25.8998046354      -29.9065933943  TIP3      3730            0.0000000000
     33509      3922  TIP3      H1            -11.8196267658      -25.2469289042      -29.6989839129  TIP3      3730            0.0000000000
     33510      3922  TIP3      H2            -10.4125330535      -25.3049083683      -30.2089561934  TIP3      3730            0.0000000000
     33511      3923  TIP3      OH2            -3.0120127337      -32.9917747165      -33.8208481366  TIP3      3731            0.0000000000
     33512      3923  TIP3      H1             -3.2051617682      -33.7720479937      -33.2960356098  TIP3      3731            0.0000000000
     33513      3923  TIP3      H2             -2.2984472016      -32.5793069491      -33.3026529786  TIP3      3731            0.0000000000
     33514      3924  TIP3      OH2           -14.0908719954      -31.6388062382      -32.1360290933  TIP3      3732            0.0000000000
     33515      3924  TIP3      H1            -13.4403457103      -30.9914032788      -31.7787147317  TIP3      3732            0.0000000000
     33516      3924  TIP3      H2            -13.5290407916      -32.1014326629      -32.7930764178  TIP3      3732            0.0000000000
     33517      3925  TIP3      OH2           -12.6701195658      -23.8795328250      -29.1081213862  TIP3      3733            0.0000000000
     33518      3925  TIP3      H1            -12.7127531519      -22.9703522823      -29.4594143898  TIP3      3733            0.0000000000
     33519      3925  TIP3      H2            -13.5563801487      -23.9635754097      -28.6870943934  TIP3      3733            0.0000000000
     33520      3926  TIP3      OH2           -16.6092169183      -24.2817252743      -38.3332572458  TIP3      3734            0.0000000000
     33521      3926  TIP3      H1            -16.8174838157      -23.9379487598      -39.2245202947  TIP3      3734            0.0000000000
     33522      3926  TIP3      H2            -16.5388198831      -23.4584610070      -37.8072301463  TIP3      3734            0.0000000000
     33523      3927  TIP3      OH2            -2.9797907836      -22.6022193686      -31.5485791763  TIP3      3735            0.0000000000
     33524      3927  TIP3      H1             -3.9479332368      -22.4912509258      -31.4286141611  TIP3      3735            0.0000000000
     33525      3927  TIP3      H2             -2.7109963416      -21.6871268931      -31.7541881031  TIP3      3735            0.0000000000
     33526      3928  TIP3      OH2            -2.6408911324      -34.2546145885      -30.0373677004  TIP3      3736            0.0000000000
     33527      3928  TIP3      H1             -3.3873658764      -33.7044723777      -30.2946884144  TIP3      3736            0.0000000000
     33528      3928  TIP3      H2             -1.9525867767      -33.9487496208      -30.6723560080  TIP3      3736            0.0000000000
     33529      3929  TIP3      OH2            -9.4337178148      -35.9780687306      -32.7617768858  TIP3      3737            0.0000000000
     33530      3929  TIP3      H1             -9.5151241986      -36.9350686468      -32.7405336357  TIP3      3737            0.0000000000
     33531      3929  TIP3      H2            -10.3392689740      -35.7614740234      -32.4824167550  TIP3      3737            0.0000000000
     33532      3930  TIP3      OH2            -4.7191577299      -20.8180974574      -34.9646215344  TIP3      3738            0.0000000000
     33533      3930  TIP3      H1             -4.2935435481      -21.5390936727      -35.4725911528  TIP3      3738            0.0000000000
     33534      3930  TIP3      H2             -4.2724347097      -20.0315911943      -35.3437294467  TIP3      3738            0.0000000000
     33535      3931  TIP3      OH2            -3.5047170983      -22.8931635185      -36.4511442507  TIP3      3739            0.0000000000
     33536      3931  TIP3      H1             -3.8017291884      -23.5829138735      -37.0698737271  TIP3      3739            0.0000000000
     33537      3931  TIP3      H2             -3.4761222140      -23.3876333593      -35.6109710071  TIP3      3739            0.0000000000
     33538      3932  TIP3      OH2            -1.8883045905      -24.2957193598      -27.9489799576  TIP3      3740            0.0000000000
     33539      3932  TIP3      H1             -1.7460038794      -24.9532055014      -28.6645055714  TIP3      3740            0.0000000000
     33540      3932  TIP3      H2             -1.6814371617      -23.4584703039      -28.3979230487  TIP3      3740            0.0000000000
     33541      3933  TIP3      OH2            -7.4039928299      -27.4041557828      -38.2069132478  TIP3      3741            0.0000000000
     33542      3933  TIP3      H1             -8.0815498909      -26.8131184703      -38.5955012569  TIP3      3741            0.0000000000
     33543      3933  TIP3      H2             -6.6856782014      -27.3091878504      -38.8578215905  TIP3      3741            0.0000000000
     33544      3934  TIP3      OH2            -7.3571415724      -28.8668066320      -41.0983513329  TIP3      3742            0.0000000000
     33545      3934  TIP3      H1             -6.6126915204      -28.8536890237      -40.4736785887  TIP3      3742            0.0000000000
     33546      3934  TIP3      H2             -7.0267924025      -29.5012599671      -41.7386506980  TIP3      3742            0.0000000000
     33547      3935  TIP3      OH2             0.0044397269      -27.9843440253      -29.9252438876  TIP3      3743            0.0000000000
     33548      3935  TIP3      H1             -0.6495488023      -27.2570313257      -29.8704978622  TIP3      3743            0.0000000000
     33549      3935  TIP3      H2              0.5006790057      -27.7391992546      -30.7255955976  TIP3      3743            0.0000000000
     33550      3936  TIP3      OH2            -3.9552886886      -27.2059941437      -37.2465197903  TIP3      3744            0.0000000000
     33551      3936  TIP3      H1             -4.6940242066      -26.9538891251      -36.6417410004  TIP3      3744            0.0000000000
     33552      3936  TIP3      H2             -3.4692953444      -27.8708665766      -36.7256892857  TIP3      3744            0.0000000000
     33553      3937  TIP3      OH2           -12.3365666418      -26.5289042065      -35.3508582286  TIP3      3745            0.0000000000
     33554      3937  TIP3      H1            -12.6505795619      -26.9081527199      -36.2035356089  TIP3      3745            0.0000000000
     33555      3937  TIP3      H2            -11.7084879129      -27.2094128358      -35.0129234428  TIP3      3745            0.0000000000
     33556      3938  TIP3      OH2           -11.0253980086      -23.1572687030      -32.6652443086  TIP3      3746            0.0000000000
     33557      3938  TIP3      H1            -11.0188161137      -23.6732883991      -33.4809151236  TIP3      3746            0.0000000000
     33558      3938  TIP3      H2            -10.2360237829      -23.5074523689      -32.2106256888  TIP3      3746            0.0000000000
     33559      3939  TIP3      OH2           -11.9784974832      -27.8133701757      -31.6577641916  TIP3      3747            0.0000000000
     33560      3939  TIP3      H1            -11.4558894147      -27.6919822027      -32.4760722252  TIP3      3747            0.0000000000
     33561      3939  TIP3      H2            -11.6115311399      -27.1149797290      -31.0726698571  TIP3      3747            0.0000000000
     33562      3940  TIP3      OH2            -5.5863389055      -22.2139742982      -30.9820500525  TIP3      3748            0.0000000000
     33563      3940  TIP3      H1             -5.8779489018      -21.5755596832      -30.3242243553  TIP3      3748            0.0000000000
     33564      3940  TIP3      H2             -5.8370928618      -23.0676298023      -30.5578615187  TIP3      3748            0.0000000000
     33565      3941  TIP3      OH2           -11.0422874506      -23.3453151848      -27.0003252635  TIP3      3749            0.0000000000
     33566      3941  TIP3      H1            -11.4598600570      -22.6284865837      -26.4826454571  TIP3      3749            0.0000000000
     33567      3941  TIP3      H2            -11.7266376805      -23.5583804578      -27.6744747134  TIP3      3749            0.0000000000
     33568      3942  TIP3      OH2            -5.0584712447      -28.0175494352      -39.5919544546  TIP3      3750            0.0000000000
     33569      3942  TIP3      H1             -4.5233116387      -27.8089439213      -38.7874708615  TIP3      3750            0.0000000000
     33570      3942  TIP3      H2             -4.6551733481      -27.4644322882      -40.2904144442  TIP3      3750            0.0000000000
     33571      3943  TIP3      OH2           -14.1067655816      -27.1473539672      -27.8302146828  TIP3      3751            0.0000000000
     33572      3943  TIP3      H1            -14.0771376604      -26.5467469992      -27.0886046885  TIP3      3751            0.0000000000
     33573      3943  TIP3      H2            -15.0485243178      -27.1392739632      -28.0684369750  TIP3      3751            0.0000000000
     33574      3944  TIP3      OH2            -7.3635193239      -21.2787675716      -36.1119673266  TIP3      3752            0.0000000000
     33575      3944  TIP3      H1             -6.9251602463      -20.9592013912      -35.3160978966  TIP3      3752            0.0000000000
     33576      3944  TIP3      H2             -7.9091396904      -20.5285875847      -36.3787266449  TIP3      3752            0.0000000000
     33577      3945  TIP3      OH2           -12.8528892556      -21.4069672156      -26.2388393387  TIP3      3753            0.0000000000
     33578      3945  TIP3      H1            -12.8599527547      -21.4196927680      -27.2149727585  TIP3      3753            0.0000000000
     33579      3945  TIP3      H2            -13.7840005080      -21.3924929464      -26.0248418957  TIP3      3753            0.0000000000
     33580      3946  TIP3      OH2            -1.3355137068      -36.1693090153      -39.7495538284  TIP3      3754            0.0000000000
     33581      3946  TIP3      H1             -2.2694956638      -36.1524607374      -39.4693018400  TIP3      3754            0.0000000000
     33582      3946  TIP3      H2             -1.1642422038      -35.3151584690      -40.1580758336  TIP3      3754            0.0000000000
     33583      3947  TIP3      OH2           -13.3704302900      -27.5406467800      -37.7062733274  TIP3      3755            0.0000000000
     33584      3947  TIP3      H1            -13.6294606321      -26.7573114467      -38.2421861825  TIP3      3755            0.0000000000
     33585      3947  TIP3      H2            -14.0353205804      -28.1776894111      -37.9820553831  TIP3      3755            0.0000000000
     33586      3948  TIP3      OH2            -0.2486617341      -21.9339866472      -41.3302972586  TIP3      3756            0.0000000000
     33587      3948  TIP3      H1             -0.1159393114      -20.9759626981      -41.2021286781  TIP3      3756            0.0000000000
     33588      3948  TIP3      H2              0.6812362338      -22.2144609855      -41.3935995520  TIP3      3756            0.0000000000
     33589      3949  TIP3      OH2           -17.2388668181      -25.0900206395      -28.8709762235  TIP3      3757            0.0000000000
     33590      3949  TIP3      H1            -17.7312579149      -25.1751931619      -29.7082945898  TIP3      3757            0.0000000000
     33591      3949  TIP3      H2            -17.2042524655      -26.0332311046      -28.6174182492  TIP3      3757            0.0000000000
     33592      3950  TIP3      OH2           -17.5145851200      -22.2568787435      -32.1295197572  TIP3      3758            0.0000000000
     33593      3950  TIP3      H1            -16.5753948685      -22.4956925988      -32.0650364716  TIP3      3758            0.0000000000
     33594      3950  TIP3      H2            -17.5698523258      -21.5555470299      -31.4725388695  TIP3      3758            0.0000000000
     33595      3951  TIP3      OH2             0.7057841867      -21.6526608973      -26.4121604734  TIP3      3759            0.0000000000
     33596      3951  TIP3      H1              0.6066979679      -22.6112725966      -26.3893587325  TIP3      3759            0.0000000000
     33597      3951  TIP3      H2             -0.1359195461      -21.3925047681      -25.9578022965  TIP3      3759            0.0000000000
     33598      3952  TIP3      OH2            -8.3286793699      -22.1001632824      -27.5378085897  TIP3      3760            0.0000000000
     33599      3952  TIP3      H1             -8.2631873728      -21.2778551029      -26.9936818954  TIP3      3760            0.0000000000
     33600      3952  TIP3      H2             -9.1821897524      -22.4797445584      -27.2395265917  TIP3      3760            0.0000000000
     33601      3953  TIP3      OH2            -7.8845083751      -18.3669201701      -37.7200938185  TIP3      3761            0.0000000000
     33602      3953  TIP3      H1             -7.9590431692      -18.4186389841      -38.6890758539  TIP3      3761            0.0000000000
     33603      3953  TIP3      H2             -7.8470215195      -17.4053197557      -37.5491240861  TIP3      3761            0.0000000000
     33604      3954  TIP3      OH2           -14.2566965392      -19.4639343772      -35.8759609439  TIP3      3762            0.0000000000
     33605      3954  TIP3      H1            -14.0703123622      -19.9032491444      -35.0150044390  TIP3      3762            0.0000000000
     33606      3954  TIP3      H2            -15.0734415779      -19.9148453342      -36.1432980466  TIP3      3762            0.0000000000
     33607      3955  TIP3      OH2            -4.8592350016      -19.1582018273      -40.7522553818  TIP3      3763            0.0000000000
     33608      3955  TIP3      H1             -4.3728668087      -19.9143764929      -41.1540579234  TIP3      3763            0.0000000000
     33609      3955  TIP3      H2             -4.7762283739      -19.3905847355      -39.8101533872  TIP3      3763            0.0000000000
     33610      3956  TIP3      OH2            -5.1361726780      -19.2110390653      -37.9479283177  TIP3      3764            0.0000000000
     33611      3956  TIP3      H1             -6.0933828052      -19.1458197988      -37.7637273461  TIP3      3764            0.0000000000
     33612      3956  TIP3      H2             -4.8868384786      -19.9568505254      -37.3820914195  TIP3      3764            0.0000000000
     33613      3957  TIP3      OH2            -2.0242802362      -30.1718711562      -25.9550841246  TIP3      3765            0.0000000000
     33614      3957  TIP3      H1             -2.6141075411      -29.6744184377      -26.5330796658  TIP3      3765            0.0000000000
     33615      3957  TIP3      H2             -2.1459843068      -31.0885049042      -26.2142798532  TIP3      3765            0.0000000000
     33616      3958  TIP3      OH2           -14.9834241121      -23.7912886959      -27.8711261428  TIP3      3766            0.0000000000
     33617      3958  TIP3      H1            -14.7846749272      -24.1460881464      -27.0025068382  TIP3      3766            0.0000000000
     33618      3958  TIP3      H2            -15.8612483481      -24.1691977857      -28.1186184781  TIP3      3766            0.0000000000
     33619      3959  TIP3      OH2           -12.3380737419      -35.0744830193      -31.9601489234  TIP3      3767            0.0000000000
     33620      3959  TIP3      H1            -13.2303978735      -35.3420486882      -32.2684627893  TIP3      3767            0.0000000000
     33621      3959  TIP3      H2            -12.5361368385      -34.3448294868      -31.3624605562  TIP3      3767            0.0000000000
     33622      3960  TIP3      OH2            -7.6925362206      -35.6022333210      -28.5262459331  TIP3      3768            0.0000000000
     33623      3960  TIP3      H1             -7.2793752427      -36.0063715509      -27.7661469945  TIP3      3768            0.0000000000
     33624      3960  TIP3      H2             -8.6477247304      -35.7240962884      -28.3743119617  TIP3      3768            0.0000000000
     33625      3961  TIP3      OH2            -3.5614806208      -26.9050565925      -41.7588859157  TIP3      3769            0.0000000000
     33626      3961  TIP3      H1             -3.5393546461      -27.0873705379      -42.7120010860  TIP3      3769            0.0000000000
     33627      3961  TIP3      H2             -2.6857503562      -26.4846772236      -41.6471711796  TIP3      3769            0.0000000000
     33628      3962  TIP3      OH2            -8.0055077956      -33.0724851902      -41.2410933433  TIP3      3770            0.0000000000
     33629      3962  TIP3      H1             -8.3029805648      -33.0875531055      -40.3190187968  TIP3      3770            0.0000000000
     33630      3962  TIP3      H2             -8.2762664577      -33.9536872033      -41.5255435346  TIP3      3770            0.0000000000
     33631      3963  TIP3      OH2           -12.2115165522      -30.3358214493      -30.7090727819  TIP3      3771            0.0000000000
     33632      3963  TIP3      H1            -12.9230608646      -30.3379127939      -30.0492663348  TIP3      3771            0.0000000000
     33633      3963  TIP3      H2            -12.2454862438      -29.4095762013      -31.0520916387  TIP3      3771            0.0000000000
     33634      3964  TIP3      OH2           -12.2543458777      -30.2775198478      -35.8027105725  TIP3      3772            0.0000000000
     33635      3964  TIP3      H1            -13.2232286989      -30.3110690162      -35.9909232600  TIP3      3772            0.0000000000
     33636      3964  TIP3      H2            -11.8621717134      -30.3155280039      -36.7091414474  TIP3      3772            0.0000000000
     33637      3965  TIP3      OH2            -6.7121959787      -29.7036314333      -37.0957966503  TIP3      3773            0.0000000000
     33638      3965  TIP3      H1             -7.1216344096      -28.8691700815      -37.4146305775  TIP3      3773            0.0000000000
     33639      3965  TIP3      H2             -6.0263161331      -29.8588451661      -37.7695554133  TIP3      3773            0.0000000000
     33640      3966  TIP3      OH2            -5.6962818247      -30.2260852683      -34.1967272001  TIP3      3774            0.0000000000
     33641      3966  TIP3      H1             -5.9746484223      -29.6483180604      -34.9296163313  TIP3      3774            0.0000000000
     33642      3966  TIP3      H2             -5.5868133873      -31.0552059314      -34.6957209019  TIP3      3774            0.0000000000
     33643      3967  TIP3      OH2           -14.6022107836      -30.0308914498      -28.9770244744  TIP3      3775            0.0000000000
     33644      3967  TIP3      H1            -14.4977144260      -29.6720909447      -28.0817041175  TIP3      3775            0.0000000000
     33645      3967  TIP3      H2            -15.0011119700      -30.9021424667      -28.8143832394  TIP3      3775            0.0000000000
     33646      3968  TIP3      OH2           -11.0370350289      -32.4032558975      -41.7895100218  TIP3      3776            0.0000000000
     33647      3968  TIP3      H1            -11.5892783734      -33.0900119910      -41.3737178875  TIP3      3776            0.0000000000
     33648      3968  TIP3      H2            -11.6301018862      -32.0746166538      -42.4780046029  TIP3      3776            0.0000000000
     33649      3969  TIP3      OH2           -17.8924858441      -32.9115072404      -35.0545538556  TIP3      3777            0.0000000000
     33650      3969  TIP3      H1            -17.2420243519      -32.9995638900      -34.3266243765  TIP3      3777            0.0000000000
     33651      3969  TIP3      H2            -17.4889704050      -33.3483653601      -35.8159505218  TIP3      3777            0.0000000000
     33652      3970  TIP3      OH2           -16.5902897466      -32.2016427086      -39.5844446733  TIP3      3778            0.0000000000
     33653      3970  TIP3      H1            -16.1496010138      -31.6670438739      -40.2886953067  TIP3      3778            0.0000000000
     33654      3970  TIP3      H2            -17.3290931835      -31.5962751471      -39.3646793626  TIP3      3778            0.0000000000
     33655      3971  TIP3      OH2            -6.5906195389      -28.6306735761      -29.7058277183  TIP3      3779            0.0000000000
     33656      3971  TIP3      H1             -6.0763569740      -29.2798954456      -30.2287307764  TIP3      3779            0.0000000000
     33657      3971  TIP3      H2             -6.8883780733      -29.1410364204      -28.9489603043  TIP3      3779            0.0000000000
     33658      3972  TIP3      OH2            -9.7525273582      -32.6266521412      -34.8435487325  TIP3      3780            0.0000000000
     33659      3972  TIP3      H1            -10.6131357621      -32.6986675870      -34.4013163156  TIP3      3780            0.0000000000
     33660      3972  TIP3      H2             -9.1790399643      -32.7949099747      -34.0684732604  TIP3      3780            0.0000000000
     33661      3973  TIP3      OH2           -14.8185359040      -31.1689280256      -35.9874086682  TIP3      3781            0.0000000000
     33662      3973  TIP3      H1            -15.7212379682      -30.8993263489      -36.2982009805  TIP3      3781            0.0000000000
     33663      3973  TIP3      H2            -14.7382400654      -32.0401095981      -36.4004453178  TIP3      3781            0.0000000000
     33664      3974  TIP3      OH2           -11.2585322471      -31.0286871643      -38.2604030553  TIP3      3782            0.0000000000
     33665      3974  TIP3      H1            -10.2822924797      -30.9210943631      -38.1770521795  TIP3      3782            0.0000000000
     33666      3974  TIP3      H2            -11.4836830852      -30.4169735320      -39.0029846981  TIP3      3782            0.0000000000
     33667      3975  TIP3      OH2            -5.3031737165      -33.3639057735      -31.5299048014  TIP3      3783            0.0000000000
     33668      3975  TIP3      H1             -6.0111182089      -33.4063002936      -30.8809700389  TIP3      3783            0.0000000000
     33669      3975  TIP3      H2             -5.7358076390      -33.6637462131      -32.3534924828  TIP3      3783            0.0000000000
     33670      3976  TIP3      OH2           -12.5145623464      -29.9074663265      -40.6931849263  TIP3      3784            0.0000000000
     33671      3976  TIP3      H1            -13.1032400641      -30.2142291822      -41.4163066155  TIP3      3784            0.0000000000
     33672      3976  TIP3      H2            -11.7113907107      -29.6751445933      -41.1896072851  TIP3      3784            0.0000000000
     33673      3977  TIP3      OH2            -2.1017077068      -17.7425876736      -25.2414843848  TIP3      3785            0.0000000000
     33674      3977  TIP3      H1             -1.7896511942      -17.3821689690      -26.0891372200  TIP3      3785            0.0000000000
     33675      3977  TIP3      H2             -1.3630321225      -17.5162822411      -24.6394343041  TIP3      3785            0.0000000000
     33676      3978  TIP3      OH2            -8.4547952007      -29.9524451486      -32.9647902808  TIP3      3786            0.0000000000
     33677      3978  TIP3      H1             -7.7978405768      -30.4584858470      -33.4646618140  TIP3      3786            0.0000000000
     33678      3978  TIP3      H2             -8.5110343133      -30.4289951157      -32.1262987189  TIP3      3786            0.0000000000
     33679      3979  TIP3      OH2           -13.5674649489      -33.9363401303      -36.7374202889  TIP3      3787            0.0000000000
     33680      3979  TIP3      H1            -13.8431801885      -34.8520240703      -36.5020995376  TIP3      3787            0.0000000000
     33681      3979  TIP3      H2            -12.7424030285      -34.0960768883      -37.2034331720  TIP3      3787            0.0000000000
     33682      3980  TIP3      OH2            -9.7709299697      -31.5867624924      -30.4946052820  TIP3      3788            0.0000000000
     33683      3980  TIP3      H1            -10.6057900567      -31.0698304831      -30.4507035446  TIP3      3788            0.0000000000
     33684      3980  TIP3      H2             -9.2410775348      -31.2040890966      -29.7965907748  TIP3      3788            0.0000000000
     33685      3981  TIP3      OH2            -9.1742960187      -25.3695352827      -38.7860302382  TIP3      3789            0.0000000000
     33686      3981  TIP3      H1             -9.9760623458      -25.8103135772      -39.1374882140  TIP3      3789            0.0000000000
     33687      3981  TIP3      H2             -9.4088845928      -25.2320993404      -37.8486097121  TIP3      3789            0.0000000000
     33688      3982  TIP3      OH2            -1.9787283594      -26.1360995796      -30.0298905461  TIP3      3790            0.0000000000
     33689      3982  TIP3      H1             -1.4263110858      -25.6416172412      -30.6643082627  TIP3      3790            0.0000000000
     33690      3982  TIP3      H2             -2.8526175759      -26.1021874573      -30.4728018039  TIP3      3790            0.0000000000
     33691      3983  TIP3      OH2            -5.3134622937      -32.5330338170      -40.6395107518  TIP3      3791            0.0000000000
     33692      3983  TIP3      H1             -6.2594904941      -32.3779835786      -40.8119697561  TIP3      3791            0.0000000000
     33693      3983  TIP3      H2             -5.0122174571      -31.6689840942      -40.3143667294  TIP3      3791            0.0000000000
     33694      3984  TIP3      OH2            -7.6981985653      -25.1048083075      -27.5513586213  TIP3      3792            0.0000000000
     33695      3984  TIP3      H1             -8.0519095300      -25.4864402397      -26.7409001936  TIP3      3792            0.0000000000
     33696      3984  TIP3      H2             -7.9411883958      -24.1758025101      -27.4710007317  TIP3      3792            0.0000000000
     33697      3985  TIP3      OH2            -4.6208771605      -30.6078039866      -38.9717561442  TIP3      3793            0.0000000000
     33698      3985  TIP3      H1             -3.7275588561      -30.7363069445      -38.5986723992  TIP3      3793            0.0000000000
     33699      3985  TIP3      H2             -4.5231542376      -29.7958564189      -39.4948848426  TIP3      3793            0.0000000000
     33700      3986  TIP3      OH2           -14.0698730457      -25.9744149785      -33.0220082602  TIP3      3794            0.0000000000
     33701      3986  TIP3      H1            -13.3851410718      -26.0345059547      -33.7150145137  TIP3      3794            0.0000000000
     33702      3986  TIP3      H2            -14.0047225249      -26.8322938554      -32.5683654598  TIP3      3794            0.0000000000
     33703      3987  TIP3      OH2            -7.0846247255      -23.8809170976      -39.7425569072  TIP3      3795            0.0000000000
     33704      3987  TIP3      H1             -7.4554353966      -23.0319216173      -39.4226292517  TIP3      3795            0.0000000000
     33705      3987  TIP3      H2             -7.8231866526      -24.5090013916      -39.5731124027  TIP3      3795            0.0000000000
     33706      3988  TIP3      OH2           -17.0789999926      -27.5470431964      -27.7832264957  TIP3      3796            0.0000000000
     33707      3988  TIP3      H1            -16.9226892611      -27.9732714759      -26.9149942875  TIP3      3796            0.0000000000
     33708      3988  TIP3      H2            -17.7173495774      -28.1617071546      -28.1832734743  TIP3      3796            0.0000000000
     33709      3989  TIP3      OH2           -10.0480986637      -27.9871768985      -25.6130531731  TIP3      3797            0.0000000000
     33710      3989  TIP3      H1            -10.3927484428      -28.3108687363      -26.4586405899  TIP3      3797            0.0000000000
     33711      3989  TIP3      H2             -9.1405193195      -28.2928722812      -25.6031113753  TIP3      3797            0.0000000000
     33712      3990  TIP3      OH2            -5.3879458586      -22.6233124060      -27.6205681322  TIP3      3798            0.0000000000
     33713      3990  TIP3      H1             -6.3120248235      -22.4677019227      -27.8758792424  TIP3      3798            0.0000000000
     33714      3990  TIP3      H2             -5.4260757921      -22.3388385664      -26.6935506612  TIP3      3798            0.0000000000
     33715      3991  TIP3      OH2             0.2747262913      -30.4522421840      -39.2066916849  TIP3      3799            0.0000000000
     33716      3991  TIP3      H1             -0.2753313356      -30.7756479403      -39.9438657087  TIP3      3799            0.0000000000
     33717      3991  TIP3      H2              0.3556094963      -29.5199415020      -39.4952037533  TIP3      3799            0.0000000000
     33718      3992  TIP3      OH2             0.3041964124      -24.6193296050      -26.4153557225  TIP3      3800            0.0000000000
     33719      3992  TIP3      H1             -0.5955603825      -24.3979541543      -26.7680944311  TIP3      3800            0.0000000000
     33720      3992  TIP3      H2              0.8222101354      -24.6739081160      -27.2459853862  TIP3      3800            0.0000000000
     33721      3993  TIP3      OH2            -1.4182929777      -21.6480978450      -38.8491887984  TIP3      3801            0.0000000000
     33722      3993  TIP3      H1             -1.7946778713      -22.4739421199      -38.5169144986  TIP3      3801            0.0000000000
     33723      3993  TIP3      H2             -1.1209748086      -21.8511494974      -39.7569975668  TIP3      3801            0.0000000000
     33724      3994  TIP3      OH2            -4.2099109779      -26.8145794052      -31.7516831292  TIP3      3802            0.0000000000
     33725      3994  TIP3      H1             -5.1522077986      -27.0317064269      -31.8413524590  TIP3      3802            0.0000000000
     33726      3994  TIP3      H2             -3.7859464189      -27.5894275171      -32.1616866752  TIP3      3802            0.0000000000
     33727      3995  TIP3      OH2           -11.6990940298      -22.4940758070      -35.6282300410  TIP3      3803            0.0000000000
     33728      3995  TIP3      H1            -11.2000824957      -21.6888931714      -35.8351133402  TIP3      3803            0.0000000000
     33729      3995  TIP3      H2            -12.5764752738      -22.2638171426      -35.9632291754  TIP3      3803            0.0000000000
     33730      3996  TIP3      OH2           -15.9300972122      -27.6610126365      -41.0025698363  TIP3      3804            0.0000000000
     33731      3996  TIP3      H1            -15.3407421880      -26.9723027626      -40.6702286658  TIP3      3804            0.0000000000
     33732      3996  TIP3      H2            -16.8283719176      -27.3657844316      -40.7776059232  TIP3      3804            0.0000000000
     33733      3997  TIP3      OH2           -10.2818560225      -24.8323813856      -36.1110706787  TIP3      3805            0.0000000000
     33734      3997  TIP3      H1            -10.5989942016      -23.9092636989      -36.0366779350  TIP3      3805            0.0000000000
     33735      3997  TIP3      H2            -11.0004684973      -25.3230877258      -35.6656778762  TIP3      3805            0.0000000000
     33736      3998  TIP3      OH2            -9.8403075351      -20.6390015311      -29.6980630398  TIP3      3806            0.0000000000
     33737      3998  TIP3      H1             -9.3720434408      -19.8418673155      -29.9893405182  TIP3      3806            0.0000000000
     33738      3998  TIP3      H2             -9.2164072994      -20.9922388519      -29.0385881754  TIP3      3806            0.0000000000
     33739      3999  TIP3      OH2           -11.6198746163      -19.8370239932      -36.5843841480  TIP3      3807            0.0000000000
     33740      3999  TIP3      H1            -12.5796010570      -19.6922987641      -36.4411274995  TIP3      3807            0.0000000000
     33741      3999  TIP3      H2            -11.2476341711      -19.0040436969      -36.2386276764  TIP3      3807            0.0000000000
     33742      4000  TIP3      OH2            -6.3165199597      -24.6496753644      -30.0978644395  TIP3      3808            0.0000000000
     33743      4000  TIP3      H1             -6.6396926923      -24.8420257517      -29.1969138761  TIP3      3808            0.0000000000
     33744      4000  TIP3      H2             -5.6678463685      -25.3560025792      -30.2493829335  TIP3      3808            0.0000000000
     33745      4001  TIP3      OH2            -4.0243441411      -23.6066422484      -40.9495693555  TIP3      3809            0.0000000000
     33746      4001  TIP3      H1             -3.7138549891      -24.0611959351      -40.1404466313  TIP3      3809            0.0000000000
     33747      4001  TIP3      H2             -4.9767554434      -23.7770528178      -40.8839219264  TIP3      3809            0.0000000000
     33748      4002  TIP3      OH2            -3.4985263938      -20.0616663794      -27.5936231525  TIP3      3810            0.0000000000
     33749      4002  TIP3      H1             -4.1828790580      -20.5574417116      -28.0814388034  TIP3      3810            0.0000000000
     33750      4002  TIP3      H2             -3.3060585371      -19.3664815625      -28.2608296129  TIP3      3810            0.0000000000
     33751      4003  TIP3      OH2             0.5105626938      -19.1949195160      -40.7363609861  TIP3      3811            0.0000000000
     33752      4003  TIP3      H1              1.1935897752      -18.5522924719      -40.9972058901  TIP3      3811            0.0000000000
     33753      4003  TIP3      H2             -0.2132589916      -18.5960505274      -40.4451765623  TIP3      3811            0.0000000000
     33754      4004  TIP3      OH2           -15.4300577269      -32.8232891146      -28.1787491310  TIP3      3812            0.0000000000
     33755      4004  TIP3      H1            -16.3381133335      -32.4782898715      -28.2295134916  TIP3      3812            0.0000000000
     33756      4004  TIP3      H2            -15.5642980008      -33.7007044143      -27.7704136066  TIP3      3812            0.0000000000
     33757      4005  TIP3      OH2            -3.1887464499      -24.9470503080      -38.7376420312  TIP3      3813            0.0000000000
     33758      4005  TIP3      H1             -3.4342931928      -25.7561507335      -38.2401799918  TIP3      3813            0.0000000000
     33759      4005  TIP3      H2             -2.2420177524      -24.8863738336      -38.5419685258  TIP3      3813            0.0000000000
     33760      4006  TIP3      OH2           -15.8291883050      -21.0293954023      -29.7863628244  TIP3      3814            0.0000000000
     33761      4006  TIP3      H1            -15.4964589312      -21.9426509841      -29.7757189857  TIP3      3814            0.0000000000
     33762      4006  TIP3      H2            -15.5680361233      -20.7211361892      -28.9084661038  TIP3      3814            0.0000000000
     33763      4007  TIP3      OH2           -11.0804932709      -22.9322366635      -40.0619495779  TIP3      3815            0.0000000000
     33764      4007  TIP3      H1            -10.8051446651      -23.5034091818      -39.3330199714  TIP3      3815            0.0000000000
     33765      4007  TIP3      H2            -10.9827211417      -22.0256959549      -39.7119712338  TIP3      3815            0.0000000000
     33766      4008  TIP3      OH2           -14.5516096440      -25.7069073224      -39.5815472538  TIP3      3816            0.0000000000
     33767      4008  TIP3      H1            -15.2326171409      -25.3023071717      -39.0033425236  TIP3      3816            0.0000000000
     33768      4008  TIP3      H2            -14.0024563726      -24.9443553136      -39.8301336300  TIP3      3816            0.0000000000
     33769      4009  TIP3      OH2            -5.9074301730      -33.4807242972      -38.1295796166  TIP3      3817            0.0000000000
     33770      4009  TIP3      H1             -5.7261735908      -32.9948740922      -38.9617754363  TIP3      3817            0.0000000000
     33771      4009  TIP3      H2             -5.3992244342      -32.9622004899      -37.4893763553  TIP3      3817            0.0000000000
     33772      4010  TIP3      OH2            -8.2715803393      -21.2915008355      -39.3199719021  TIP3      3818            0.0000000000
     33773      4010  TIP3      H1             -9.0956316666      -20.7799428271      -39.2750996307  TIP3      3818            0.0000000000
     33774      4010  TIP3      H2             -7.7277789738      -20.8035893516      -39.9644760952  TIP3      3818            0.0000000000
     33775      4011  TIP3      OH2            -8.7511233853      -31.7428031385      -37.3350624891  TIP3      3819            0.0000000000
     33776      4011  TIP3      H1             -7.9591079927      -31.1672451286      -37.3420282932  TIP3      3819            0.0000000000
     33777      4011  TIP3      H2             -8.9397727110      -31.8410398398      -36.3842457551  TIP3      3819            0.0000000000
     33778      4012  TIP3      OH2            -7.8945755733      -34.6626335020      -36.4156741189  TIP3      3820            0.0000000000
     33779      4012  TIP3      H1             -8.1675516345      -33.9898035673      -35.7758614603  TIP3      3820            0.0000000000
     33780      4012  TIP3      H2             -7.2074470474      -34.1559238501      -36.9157982143  TIP3      3820            0.0000000000
     33781      4013  TIP3      OH2           -10.8912424920      -20.2566521727      -39.3026041218  TIP3      3821            0.0000000000
     33782      4013  TIP3      H1            -10.7143007425      -19.4389396650      -39.8124494824  TIP3      3821            0.0000000000
     33783      4013  TIP3      H2            -11.1439745248      -19.9115873117      -38.4165940714  TIP3      3821            0.0000000000
     33784      4014  TIP3      OH2           -12.2124873627      -33.5935469398      -39.6344545962  TIP3      3822            0.0000000000
     33785      4014  TIP3      H1            -12.2727123347      -32.6447658090      -39.4302817640  TIP3      3822            0.0000000000
     33786      4014  TIP3      H2            -11.2637555707      -33.7513341216      -39.4620121442  TIP3      3822            0.0000000000
     33787      4015  TIP3      OH2            -2.0387001488      -32.8102727614      -27.2735228289  TIP3      3823            0.0000000000
     33788      4015  TIP3      H1             -2.9426614064      -32.5253223658      -27.4402588383  TIP3      3823            0.0000000000
     33789      4015  TIP3      H2             -1.6795088038      -32.8608853170      -28.1853960235  TIP3      3823            0.0000000000
     33790      4016  TIP3      OH2            -3.3725095603      -29.0341406118      -33.3195208954  TIP3      3824            0.0000000000
     33791      4016  TIP3      H1             -4.2009459025      -29.4829858008      -33.5690820521  TIP3      3824            0.0000000000
     33792      4016  TIP3      H2             -2.8913138832      -29.7115815415      -32.7928239098  TIP3      3824            0.0000000000
     33793      4017  TIP3      OH2           -13.9772459984      -23.1041539695      -40.7043131699  TIP3      3825            0.0000000000
     33794      4017  TIP3      H1            -13.3113289931      -22.4896225036      -40.3777195582  TIP3      3825            0.0000000000
     33795      4017  TIP3      H2            -13.4552412497      -23.5868110971      -41.3771065179  TIP3      3825            0.0000000000
     33796      4018  TIP3      OH2           -15.6107289109      -30.4223264124      -41.3915795002  TIP3      3826            0.0000000000
     33797      4018  TIP3      H1            -15.6184681442      -29.4445439915      -41.4269716915  TIP3      3826            0.0000000000
     33798      4018  TIP3      H2            -16.4015763134      -30.6094507372      -41.9141638567  TIP3      3826            0.0000000000
     33799      4019  TIP3      OH2            -2.3169191561      -19.7705674751      -31.6219555544  TIP3      3827            0.0000000000
     33800      4019  TIP3      H1             -2.4020694331      -19.0931805985      -32.3197181138  TIP3      3827            0.0000000000
     33801      4019  TIP3      H2             -1.3529126584      -19.7210790715      -31.4415502822  TIP3      3827            0.0000000000
     33802      4020  TIP3      OH2           -15.0211567634      -35.4982288443      -32.8086633390  TIP3      3828            0.0000000000
     33803      4020  TIP3      H1            -15.0285553810      -35.6243480103      -33.7825702156  TIP3      3828            0.0000000000
     33804      4020  TIP3      H2            -15.1298539704      -36.4254722275      -32.5538526926  TIP3      3828            0.0000000000
     33805      4021  TIP3      OH2           -15.8653411880      -21.6913819759      -36.6416348050  TIP3      3829            0.0000000000
     33806      4021  TIP3      H1            -16.7348091394      -21.3021884061      -36.7819690108  TIP3      3829            0.0000000000
     33807      4021  TIP3      H2            -15.3878514341      -21.2957739829      -37.3865160211  TIP3      3829            0.0000000000
     33808      4022  TIP3      OH2           -16.6390548576      -19.0918334650      -25.3663355139  TIP3      3830            0.0000000000
     33809      4022  TIP3      H1            -16.0594727668      -19.3167853268      -24.6230714872  TIP3      3830            0.0000000000
     33810      4022  TIP3      H2            -17.0816692715      -19.9289502348      -25.5899354833  TIP3      3830            0.0000000000
     33811      4023  TIP3      OH2           -12.0129022307      -20.1720230117      -23.8064604905  TIP3      3831            0.0000000000
     33812      4023  TIP3      H1            -11.2770626798      -20.6769012761      -23.4119539923  TIP3      3831            0.0000000000
     33813      4023  TIP3      H2            -11.9992048779      -20.4256975999      -24.7517868934  TIP3      3831            0.0000000000
     33814      4024  TIP3      OH2            -7.4736242891      -20.6084991845      -41.7763656644  TIP3      3832            0.0000000000
     33815      4024  TIP3      H1             -8.3197157987      -21.0808855351      -41.8882354257  TIP3      3832            0.0000000000
     33816      4024  TIP3      H2             -6.9719056307      -21.0373657906      -42.4714869415  TIP3      3832            0.0000000000
     33817      4025  TIP3      OH2            -5.4852316985      -21.7783778210      -25.0034509705  TIP3      3833            0.0000000000
     33818      4025  TIP3      H1             -5.7774038569      -22.6798285956      -24.8007234487  TIP3      3833            0.0000000000
     33819      4025  TIP3      H2             -4.6679276036      -21.7028237219      -24.4958207697  TIP3      3833            0.0000000000
     33820      4026  TIP3      OH2            -3.2659126686      -20.8740143968      -42.1882587477  TIP3      3834            0.0000000000
     33821      4026  TIP3      H1             -3.0269078249      -21.6874944147      -41.6988028767  TIP3      3834            0.0000000000
     33822      4026  TIP3      H2             -2.4800826148      -20.6861924121      -42.7185735228  TIP3      3834            0.0000000000
     33823      4027  TIP3      OH2           -12.2729682916      -24.8696616348      -42.2088512944  TIP3      3835            0.0000000000
     33824      4027  TIP3      H1            -12.2622677707      -25.7221693332      -41.7631927397  TIP3      3835            0.0000000000
     33825      4027  TIP3      H2            -11.7668955578      -25.1164691050      -43.0085227511  TIP3      3835            0.0000000000
     33826      4028  TIP3      OH2           -10.0052887157      -25.3341742300      -25.0395745119  TIP3      3836            0.0000000000
     33827      4028  TIP3      H1            -10.3667273235      -25.0109637953      -25.8784085729  TIP3      3836            0.0000000000
     33828      4028  TIP3      H2            -10.0098504148      -26.3130514686      -25.1241372453  TIP3      3836            0.0000000000
     33829      4029  TIP3      OH2            -4.3541447540      -25.4365633606      -27.6078374216  TIP3      3837            0.0000000000
     33830      4029  TIP3      H1             -3.5444898621      -24.8874516655      -27.6769684303  TIP3      3837            0.0000000000
     33831      4029  TIP3      H2             -5.0376325008      -24.7595483597      -27.5711217765  TIP3      3837            0.0000000000
     33832      4030  TIP3      OH2           -15.8610805975      -28.0886126008      -25.0405637353  TIP3      3838            0.0000000000
     33833      4030  TIP3      H1            -15.4148887196      -28.9401175638      -25.1218624399  TIP3      3838            0.0000000000
     33834      4030  TIP3      H2            -16.0833885446      -28.0660865005      -24.1023620137  TIP3      3838            0.0000000000
     33835      4031  TIP3      OH2           -11.1828023768      -26.9176523664      -39.9500498142  TIP3      3839            0.0000000000
     33836      4031  TIP3      H1            -11.7008766619      -27.4492914380      -39.3322415811  TIP3      3839            0.0000000000
     33837      4031  TIP3      H2            -10.8781341974      -27.6092883218      -40.5846573122  TIP3      3839            0.0000000000
     33838      4032  TIP3      OH2           -11.9313402380      -29.1234720353      -27.6822561694  TIP3      3840            0.0000000000
     33839      4032  TIP3      H1            -12.5354114110      -28.4160856827      -27.4036254742  TIP3      3840            0.0000000000
     33840      4032  TIP3      H2            -11.5529096810      -28.7511537914      -28.4928960762  TIP3      3840            0.0000000000
     33841      4033  TIP3      OH2           -10.1264513226      -28.7010596631      -41.7581583052  TIP3      3841            0.0000000000
     33842      4033  TIP3      H1            -10.2415162041      -28.9312260065      -42.6925489400  TIP3      3841            0.0000000000
     33843      4033  TIP3      H2             -9.1478181831      -28.6323123774      -41.6400276385  TIP3      3841            0.0000000000
     33844      4034  TIP3      OH2            -6.8208578324      -26.6512880188      -24.3856176330  TIP3      3842            0.0000000000
     33845      4034  TIP3      H1             -5.8522993948      -26.5860421397      -24.4411468912  TIP3      3842            0.0000000000
     33846      4034  TIP3      H2             -7.0470337128      -27.3322893730      -23.7633683515  TIP3      3842            0.0000000000
     33847      4035  TIP3      OH2            -0.9433843411      -26.2656432058       42.7563300347  TIP3      3843            0.0000000000
     33848      4035  TIP3      H1             -1.0396566083      -26.7624253562       41.9271438764  TIP3      3843            0.0000000000
     33849      4035  TIP3      H2             -0.7187771602      -25.3657155649       42.4907169522  TIP3      3843            0.0000000000
     33850      4036  TIP3      OH2           -11.6218900401      -31.7423261473      -26.6249353492  TIP3      3844            0.0000000000
     33851      4036  TIP3      H1            -11.3860487860      -32.4786215992      -27.2081473818  TIP3      3844            0.0000000000
     33852      4036  TIP3      H2            -11.5887771285      -30.9361046420      -27.1642112707  TIP3      3844            0.0000000000
     33853      4037  TIP3      OH2           -11.1167354903      -33.3772317349      -29.0830565781  TIP3      3845            0.0000000000
     33854      4037  TIP3      H1            -10.6220341787      -32.8877848412      -29.7751453883  TIP3      3845            0.0000000000
     33855      4037  TIP3      H2            -12.0260116382      -33.4851589415      -29.4492040734  TIP3      3845            0.0000000000
     33856      4038  TIP3      OH2            -9.5653456796      -27.9222737751      -28.8114567375  TIP3      3846            0.0000000000
     33857      4038  TIP3      H1             -8.8003656452      -28.0348297149      -29.3838190083  TIP3      3846            0.0000000000
     33858      4038  TIP3      H2             -9.9407548624      -27.0790179186      -29.1260775415  TIP3      3846            0.0000000000
     33859      4039  TIP3      OH2            -3.8722062683      -27.3260015401      -25.6812154698  TIP3      3847            0.0000000000
     33860      4039  TIP3      H1             -4.0967822459      -26.6362647840      -26.3400281781  TIP3      3847            0.0000000000
     33861      4039  TIP3      H2             -2.9097311590      -27.3732320179      -25.8877775003  TIP3      3847            0.0000000000
     33862      4040  TIP3      OH2           -13.1051377845      -30.4875172884      -24.7100402777  TIP3      3848            0.0000000000
     33863      4040  TIP3      H1            -13.8296674773      -31.1159667131      -24.8479651421  TIP3      3848            0.0000000000
     33864      4040  TIP3      H2            -12.3967393066      -30.8902797473      -25.2559187256  TIP3      3848            0.0000000000
     33865      4041  TIP3      OH2           -10.3967750712      -35.7863272216      -28.4817910702  TIP3      3849            0.0000000000
     33866      4041  TIP3      H1            -10.5157783613      -34.8265178444      -28.6832126700  TIP3      3849            0.0000000000
     33867      4041  TIP3      H2            -11.0744466765      -36.1723042046      -29.0572404131  TIP3      3849            0.0000000000
     33868      4042  TIP3      OH2           -14.9708176373      -32.5922917336      -24.8941278522  TIP3      3850            0.0000000000
     33869      4042  TIP3      H1            -14.6991783786      -33.2908655443      -25.5141233709  TIP3      3850            0.0000000000
     33870      4042  TIP3      H2            -14.9907872697      -33.0868249910      -24.0555909305  TIP3      3850            0.0000000000
     33871      4043  TIP3      OH2           -10.1806598699       36.7756598379      -25.9617949941  TIP3      3851            0.0000000000
     33872      4043  TIP3      H1             -9.4195702389       36.2057877241      -25.9216222419  TIP3      3851            0.0000000000
     33873      4043  TIP3      H2            -10.2191221383       37.1193033641      -26.8826780366  TIP3      3851            0.0000000000
     33874      4044  TIP3      OH2           -10.2958233130      -18.0282426667      -40.7324939597  TIP3      3852            0.0000000000
     33875      4044  TIP3      H1             -9.3237625635      -17.9324326839      -40.5993544790  TIP3      3852            0.0000000000
     33876      4044  TIP3      H2            -10.4590022993      -17.3540903783      -41.3904800777  TIP3      3852            0.0000000000
     33877      4045  TIP3      OH2           -16.7158128564      -23.4214566150      -41.2031481864  TIP3      3853            0.0000000000
     33878      4045  TIP3      H1            -15.7548738931      -23.3408910102      -40.9937399475  TIP3      3853            0.0000000000
     33879      4045  TIP3      H2            -16.7068071581      -24.0311298670      -41.9535793289  TIP3      3853            0.0000000000
     33880      4046  TIP3      OH2           -17.9993518626      -18.0712559293      -36.1850611377  TIP3      3854            0.0000000000
     33881      4046  TIP3      H1            -18.6624419519      -18.5516117273      -36.7328313432  TIP3      3854            0.0000000000
     33882      4046  TIP3      H2            -17.6126347786      -18.7600231817      -35.6314576571  TIP3      3854            0.0000000000
     33883      4047  TIP3      OH2           -17.2162984347      -19.9174783864      -34.3134173597  TIP3      3855            0.0000000000
     33884      4047  TIP3      H1            -17.3597060462      -20.8746710682      -34.1948343613  TIP3      3855            0.0000000000
     33885      4047  TIP3      H2            -16.7053842154      -19.6641941916      -33.5093764550  TIP3      3855            0.0000000000
     33886      4048  TIP3      OH2             0.4045513298      -19.1305604948      -31.4280455649  TIP3      3856            0.0000000000
     33887      4048  TIP3      H1              0.4368839576      -18.9749615826      -30.4674866246  TIP3      3856            0.0000000000
     33888      4048  TIP3      H2              1.1082721251      -18.5471180572      -31.7294828254  TIP3      3856            0.0000000000
     33889      4049  TIP3      OH2            -0.0102582778      -19.5308056080      -28.4995443138  TIP3      3857            0.0000000000
     33890      4049  TIP3      H1             -0.4978783736      -20.3037146220      -28.8559943966  TIP3      3857            0.0000000000
     33891      4049  TIP3      H2              0.4763469237      -19.9781773219      -27.7873720517  TIP3      3857            0.0000000000
     33892      4050  TIP3      OH2            -1.5604073328      -23.8157696166      -23.7598851057  TIP3      3858            0.0000000000
     33893      4050  TIP3      H1             -2.4667023113      -23.8422886009      -23.4179163477  TIP3      3858            0.0000000000
     33894      4050  TIP3      H2             -1.2069296648      -23.0059667697      -23.3801736843  TIP3      3858            0.0000000000
     33895      4051  TIP3      OH2            -0.2454131299      -25.4899815264      -38.3878810570  TIP3      3859            0.0000000000
     33896      4051  TIP3      H1              0.6024271562      -25.0792584513      -38.1637026294  TIP3      3859            0.0000000000
     33897      4051  TIP3      H2             -0.2831434106      -26.1940298697      -37.7041980968  TIP3      3859            0.0000000000
     33898      4052  TIP3      OH2             0.0930634802      -27.4022955140      -36.4939068774  TIP3      3860            0.0000000000
     33899      4052  TIP3      H1             -0.6583901892      -27.9127583276      -36.1152794498  TIP3      3860            0.0000000000
     33900      4052  TIP3      H2              0.6891384259      -27.2802915915      -35.7265988130  TIP3      3860            0.0000000000
     33901      4053  TIP3      OH2            -0.1476544867      -24.7204177807      -31.5078593758  TIP3      3861            0.0000000000
     33902      4053  TIP3      H1              0.6665625208      -25.0949192640      -31.8872201379  TIP3      3861            0.0000000000
     33903      4053  TIP3      H2             -0.0005546454      -23.7653224886      -31.6696129261  TIP3      3861            0.0000000000
     33904      4054  TIP3      OH2            -1.5870872348      -21.8071483290      -29.2446701552  TIP3      3862            0.0000000000
     33905      4054  TIP3      H1             -2.2728834579      -21.4674268302      -28.6506390383  TIP3      3862            0.0000000000
     33906      4054  TIP3      H2             -2.1349921458      -22.2062268814      -29.9508502196  TIP3      3862            0.0000000000
     33907      4055  TIP3      OH2             0.3878944723      -27.5902612552      -40.1205669278  TIP3      3863            0.0000000000
     33908      4055  TIP3      H1             -0.2026595352      -27.2312334373      -40.8059181434  TIP3      3863            0.0000000000
     33909      4055  TIP3      H2              0.3166741718      -26.8864441789      -39.4442612436  TIP3      3863            0.0000000000
     33910      4056  TIP3      OH2            -1.6261645921      -30.3354228653      -41.4845729945  TIP3      3864            0.0000000000
     33911      4056  TIP3      H1             -1.1655257002      -29.7418291333      -42.1065637290  TIP3      3864            0.0000000000
     33912      4056  TIP3      H2             -1.4358653867      -31.1775823076      -41.9398557405  TIP3      3864            0.0000000000
     33913      4057  TIP3      OH2            -2.0853989881      -28.9368067176      -35.9101665527  TIP3      3865            0.0000000000
     33914      4057  TIP3      H1             -2.2354052897      -29.8916206477      -35.9675041211  TIP3      3865            0.0000000000
     33915      4057  TIP3      H2             -2.4063442418      -28.7291465076      -35.0155478493  TIP3      3865            0.0000000000
     33916      4058  TIP3      OH2           -17.0768523655      -26.8474601392      -31.8579201334  TIP3      3866            0.0000000000
     33917      4058  TIP3      H1            -16.9019583094      -26.9300081837      -32.8219235140  TIP3      3866            0.0000000000
     33918      4058  TIP3      H2            -16.1831782864      -27.0295622032      -31.5067627536  TIP3      3866            0.0000000000
     33919      4059  TIP3      OH2            -1.2361685484      -26.9801190182      -26.2909998277  TIP3      3867            0.0000000000
     33920      4059  TIP3      H1             -0.6279145519      -27.7168308738      -26.0871939825  TIP3      3867            0.0000000000
     33921      4059  TIP3      H2             -0.6538782619      -26.2068157091      -26.1986823207  TIP3      3867            0.0000000000
     33922      4060  TIP3      OH2             0.3012311260      -29.0842256226      -25.6339528424  TIP3      3868            0.0000000000
     33923      4060  TIP3      H1             -0.5990736726      -29.4653508463      -25.7527350813  TIP3      3868            0.0000000000
     33924      4060  TIP3      H2              0.8616161658      -29.8772177354      -25.6635305431  TIP3      3868            0.0000000000
     33925      4061  TIP3      OH2            -2.0083033735      -32.9270504783      -42.4785495968  TIP3      3869            0.0000000000
     33926      4061  TIP3      H1             -1.4029145067      -33.3234024111      -41.8194886071  TIP3      3869            0.0000000000
     33927      4061  TIP3      H2             -2.8749363207      -33.3081251843      -42.2706246691  TIP3      3869            0.0000000000
     33928      4062  TIP3      OH2            -2.4184347674      -31.3363755678      -37.4450493452  TIP3      3870            0.0000000000
     33929      4062  TIP3      H1             -2.1156831719      -32.2633301341      -37.3418128373  TIP3      3870            0.0000000000
     33930      4062  TIP3      H2             -1.6363253915      -30.9447741564      -37.8537215021  TIP3      3870            0.0000000000
     33931      4063  TIP3      OH2            -1.7783987635      -30.7872858468      -32.0137459392  TIP3      3871            0.0000000000
     33932      4063  TIP3      H1             -0.8144805193      -30.5724416613      -32.0376571568  TIP3      3871            0.0000000000
     33933      4063  TIP3      H2             -1.9642956198      -30.6722136784      -31.0676350344  TIP3      3871            0.0000000000
     33934      4064  TIP3      OH2            -1.7204991489      -30.0690170738      -29.2475699854  TIP3      3872            0.0000000000
     33935      4064  TIP3      H1             -2.5762962129      -29.7714371195      -28.9209208996  TIP3      3872            0.0000000000
     33936      4064  TIP3      H2             -1.2617972669      -29.2202962375      -29.4473290125  TIP3      3872            0.0000000000
     33937      4065  TIP3      OH2           -17.4520793413      -31.5684571669      -25.7115029125  TIP3      3873            0.0000000000
     33938      4065  TIP3      H1            -16.5151911776      -31.7967401780      -25.5525718903  TIP3      3873            0.0000000000
     33939      4065  TIP3      H2            -17.9292961763      -32.3784079243      -25.4328349428  TIP3      3873            0.0000000000
     33940      4066  TIP3      OH2            -1.7422055267      -34.0838391658      -37.4224482660  TIP3      3874            0.0000000000
     33941      4066  TIP3      H1             -1.5436543309      -34.5266001869      -36.5695129639  TIP3      3874            0.0000000000
     33942      4066  TIP3      H2             -2.3333859299      -34.7347507454      -37.8651032390  TIP3      3874            0.0000000000
     33943      4067  TIP3      OH2           -16.2759290570      -33.2280515947      -32.9000934329  TIP3      3875            0.0000000000
     33944      4067  TIP3      H1            -15.8509013254      -34.0617240585      -32.5907478612  TIP3      3875            0.0000000000
     33945      4067  TIP3      H2            -15.7351589461      -32.5781247657      -32.4393870877  TIP3      3875            0.0000000000
     33946      4068  TIP3      OH2           -17.9732038108      -30.2621617242      -31.8242695630  TIP3      3876            0.0000000000
     33947      4068  TIP3      H1            -17.4104377261      -30.5114187599      -32.5842278291  TIP3      3876            0.0000000000
     33948      4068  TIP3      H2            -17.5089513292      -29.4558554306      -31.5541593898  TIP3      3876            0.0000000000
     33949      4069  TIP3      OH2             0.0634624924      -33.9648934611      -40.9085836369  TIP3      3877            0.0000000000
     33950      4069  TIP3      H1              0.5128280165      -34.7428614691      -41.3149057465  TIP3      3877            0.0000000000
     33951      4069  TIP3      H2              0.8189938980      -33.3603767072      -40.8525344872  TIP3      3877            0.0000000000
     33952      4070  TIP3      OH2           -17.5635727299      -34.0170423146      -37.7544729151  TIP3      3878            0.0000000000
     33953      4070  TIP3      H1            -18.5193884424      -33.8329140345      -37.8656284319  TIP3      3878            0.0000000000
     33954      4070  TIP3      H2            -17.1994373148      -33.5053636492      -38.4957987490  TIP3      3878            0.0000000000
     33955      4071  TIP3      OH2            -2.8786995320      -19.0500895077      -35.7907466143  TIP3      3879            0.0000000000
     33956      4071  TIP3      H1             -2.1936126914      -19.3499603347      -36.4154136930  TIP3      3879            0.0000000000
     33957      4071  TIP3      H2             -2.3620641841      -18.5497635252      -35.1421017281  TIP3      3879            0.0000000000
     33958      4072  TIP3      OH2           -17.6660910595      -35.3108198924      -29.4578571784  TIP3      3880            0.0000000000
     33959      4072  TIP3      H1            -18.3189869248      -35.5034014782      -28.7697939589  TIP3      3880            0.0000000000
     33960      4072  TIP3      H2            -18.1338491677      -34.6721599986      -30.0223433799  TIP3      3880            0.0000000000
     33961      4073  TIP3      OH2           -12.5427164918      -21.1434254636      -29.0050736655  TIP3      3881            0.0000000000
     33962      4073  TIP3      H1            -12.8557648891      -20.2747545744      -29.2959768496  TIP3      3881            0.0000000000
     33963      4073  TIP3      H2            -11.6088763683      -21.0674877268      -29.3052736733  TIP3      3881            0.0000000000
     33964      4074  TIP3      OH2            -8.1803808674      -19.7208181288      -26.1147039159  TIP3      3882            0.0000000000
     33965      4074  TIP3      H1             -8.0489154079      -20.0342893320      -25.1862783799  TIP3      3882            0.0000000000
     33966      4074  TIP3      H2             -7.2865529446      -19.3961261382      -26.3568348595  TIP3      3882            0.0000000000
     33967      4075  TIP3      OH2            -5.9191354846      -18.4431328319      -26.7826979614  TIP3      3883            0.0000000000
     33968      4075  TIP3      H1             -5.1914475570      -19.0252831993      -27.0432288136  TIP3      3883            0.0000000000
     33969      4075  TIP3      H2             -5.5308725359      -18.0150518818      -25.9938808327  TIP3      3883            0.0000000000
     33970      4076  TIP3      OH2            -0.9123107624      -35.8130939966      -27.6939338425  TIP3      3884            0.0000000000
     33971      4076  TIP3      H1             -1.7174460450      -35.4844071581      -28.1122364749  TIP3      3884            0.0000000000
     33972      4076  TIP3      H2             -0.7066754392      -36.6133540566      -28.2141738125  TIP3      3884            0.0000000000
     33973      4077  TIP3      OH2           -15.1014820077      -17.9059885712      -29.0240140543  TIP3      3885            0.0000000000
     33974      4077  TIP3      H1            -15.8344054703      -17.3940884567      -29.3921279280  TIP3      3885            0.0000000000
     33975      4077  TIP3      H2            -15.3980881386      -18.0888081519      -28.1227340301  TIP3      3885            0.0000000000
     33976      4078  TIP3      OH2           -12.6316694948      -18.3247652394      -29.9445711767  TIP3      3886            0.0000000000
     33977      4078  TIP3      H1            -13.5222617431      -18.1600338992      -29.5552517123  TIP3      3886            0.0000000000
     33978      4078  TIP3      H2            -12.6814949960      -17.7369342486      -30.7197806474  TIP3      3886            0.0000000000
     33979      4079  TIP3      OH2            -7.9249663919      -18.4182408335      -30.7733727187  TIP3      3887            0.0000000000
     33980      4079  TIP3      H1             -8.3841348924      -17.8576502816      -31.4202305197  TIP3      3887            0.0000000000
     33981      4079  TIP3      H2             -7.7987348539      -17.7878445447      -30.0322815161  TIP3      3887            0.0000000000
     33982      4080  TIP3      OH2            -5.6413523521      -19.6105540507      -29.7376192887  TIP3      3888            0.0000000000
     33983      4080  TIP3      H1             -6.4896569375      -19.3288530308      -30.1170559398  TIP3      3888            0.0000000000
     33984      4080  TIP3      H2             -5.1529085682      -18.7761322673      -29.8301301426  TIP3      3888            0.0000000000
     33985      4081  TIP3      OH2            -3.0586445256      -18.0431706337      -29.5283979843  TIP3      3889            0.0000000000
     33986      4081  TIP3      H1             -3.0995567300      -17.0816488936      -29.7579633191  TIP3      3889            0.0000000000
     33987      4081  TIP3      H2             -2.8309063382      -18.4163701878      -30.4021368847  TIP3      3889            0.0000000000
     33988      4082  TIP3      OH2           -15.6845094715      -19.3079245301      -32.1040386071  TIP3      3890            0.0000000000
     33989      4082  TIP3      H1            -15.6949636367      -19.7308563499      -31.2128401742  TIP3      3890            0.0000000000
     33990      4082  TIP3      H2            -14.8212563307      -19.6212447293      -32.4588224211  TIP3      3890            0.0000000000
     33991      4083  TIP3      OH2           -13.5912334928      -20.5387294131      -33.4089404931  TIP3      3891            0.0000000000
     33992      4083  TIP3      H1            -13.7166401899      -21.4819684087      -33.1850492782  TIP3      3891            0.0000000000
     33993      4083  TIP3      H2            -12.7223175034      -20.3785253853      -32.9804029954  TIP3      3891            0.0000000000
     33994      4084  TIP3      OH2           -10.9669220501      -20.0581134380      -32.5422315468  TIP3      3892            0.0000000000
     33995      4084  TIP3      H1            -10.8098796876      -20.9836257513      -32.8047740005  TIP3      3892            0.0000000000
     33996      4084  TIP3      H2            -10.9141864834      -20.1136066732      -31.5767779165  TIP3      3892            0.0000000000
     33997      4085  TIP3      OH2            -7.5601484586      -34.3023289811      -33.4733003341  TIP3      3893            0.0000000000
     33998      4085  TIP3      H1             -8.1506989035      -35.0069638944      -33.1215504036  TIP3      3893            0.0000000000
     33999      4085  TIP3      H2             -6.9124432500      -34.8571516926      -33.9269737591  TIP3      3893            0.0000000000
     34000      4086  TIP3      OH2            -2.3856940309      -36.3273112568      -33.3175037625  TIP3      3894            0.0000000000
     34001      4086  TIP3      H1             -1.7684194292      -35.7981793105      -33.8698570475  TIP3      3894            0.0000000000
     34002      4086  TIP3      H2             -3.2547476997      -35.9996230163      -33.5698089319  TIP3      3894            0.0000000000
     34003      4087  TIP3      OH2            -0.6811522674      -35.0828033789      -35.0984547146  TIP3      3895            0.0000000000
     34004      4087  TIP3      H1             -0.0022958013      -35.6888584870      -35.4467335156  TIP3      3895            0.0000000000
     34005      4087  TIP3      H2             -0.1753004532      -34.2549696026      -34.9680277857  TIP3      3895            0.0000000000
     34006      4088  TIP3      OH2           -15.0858457201      -35.7571754375      -35.6713335550  TIP3      3896            0.0000000000
     34007      4088  TIP3      H1            -15.9655567135      -35.9894165323      -36.0336609891  TIP3      3896            0.0000000000
     34008      4088  TIP3      H2            -14.7539787037      -36.6535567173      -35.4971249901  TIP3      3896            0.0000000000
     34009      4089  TIP3      OH2           -16.6302256941      -35.5805469039      -40.4027305717  TIP3      3897            0.0000000000
     34010      4089  TIP3      H1            -15.7795281716      -35.1088711316      -40.5326538935  TIP3      3897            0.0000000000
     34011      4089  TIP3      H2            -16.9033819609      -35.3093313128      -39.5160513788  TIP3      3897            0.0000000000
     34012      4090  TIP3      OH2           -10.4132753612      -35.3771994168      -35.4099308485  TIP3      3898            0.0000000000
     34013      4090  TIP3      H1             -9.4816877643      -35.4608932517      -35.6986918628  TIP3      3898            0.0000000000
     34014      4090  TIP3      H2            -10.5094030277      -36.1021245825      -34.7779761410  TIP3      3898            0.0000000000
     34015      4091  TIP3      OH2            -5.1532146047      -35.5893134117      -34.0972304949  TIP3      3899            0.0000000000
     34016      4091  TIP3      H1             -5.0121244331      -35.5912413912      -35.0480356232  TIP3      3899            0.0000000000
     34017      4091  TIP3      H2             -5.2379542798      -36.5630228236      -33.9559535726  TIP3      3899            0.0000000000
     34018      4092  TIP3      OH2            -3.6992874842      -35.8013835486      -38.3884528871  TIP3      3900            0.0000000000
     34019      4092  TIP3      H1             -4.4175398887      -35.2056980888      -38.6601506229  TIP3      3900            0.0000000000
     34020      4092  TIP3      H2             -4.1048367247      -36.6769272658      -38.3473964857  TIP3      3900            0.0000000000
     34021      4093  TIP3      OH2           -16.4501119937      -20.0664561472      -38.8190443853  TIP3      3901            0.0000000000
     34022      4093  TIP3      H1            -17.1266068255      -20.0753350344      -39.5240062113  TIP3      3901            0.0000000000
     34023      4093  TIP3      H2            -16.4023624642      -19.1097110795      -38.6919031137  TIP3      3901            0.0000000000
     34024      4094  TIP3      OH2           -14.5351222240      -34.1786708571      -41.2645870253  TIP3      3902            0.0000000000
     34025      4094  TIP3      H1            -14.0193110697      -34.6404518844      -41.9323024608  TIP3      3902            0.0000000000
     34026      4094  TIP3      H2            -13.8514874920      -33.7470839668      -40.7367203634  TIP3      3902            0.0000000000
     34027      4095  TIP3      OH2            -9.6450383366      -33.8726553083      -38.8468912888  TIP3      3903            0.0000000000
     34028      4095  TIP3      H1             -9.1694428390      -34.4058244790      -38.1864094918  TIP3      3903            0.0000000000
     34029      4095  TIP3      H2             -9.4104600976      -32.9884346740      -38.4825251833  TIP3      3903            0.0000000000
     34030      4096  TIP3      OH2            -7.6182872758      -18.4668256553      -40.4673813644  TIP3      3904            0.0000000000
     34031      4096  TIP3      H1             -6.6516180860      -18.4945391171      -40.6048427016  TIP3      3904            0.0000000000
     34032      4096  TIP3      H2             -7.7876505305      -19.2140137928      -41.0909179278  TIP3      3904            0.0000000000
     34033      4097  TIP3      OH2            -0.8881189164      -19.2655096816      -37.7568691736  TIP3      3905            0.0000000000
     34034      4097  TIP3      H1             -1.0812559742      -20.0466579172      -38.3326721138  TIP3      3905            0.0000000000
     34035      4097  TIP3      H2             -0.9720173847      -18.5338335089      -38.3974424209  TIP3      3905            0.0000000000
     34036      4098  TIP3      OH2           -15.3427238840      -35.2199706947      -26.1667989013  TIP3      3906            0.0000000000
     34037      4098  TIP3      H1            -15.6489434754      -36.0056448273      -25.7022304662  TIP3      3906            0.0000000000
     34038      4098  TIP3      H2            -14.4204102823      -35.2586049968      -25.8128285336  TIP3      3906            0.0000000000
     34039      4099  TIP3      OH2           -13.4466062254      -35.7728649238      -24.6005990272  TIP3      3907            0.0000000000
     34040      4099  TIP3      H1            -12.4862463312      -35.9172623837      -24.6791341833  TIP3      3907            0.0000000000
     34041      4099  TIP3      H2            -13.6249447621      -36.5704964453      -24.0839452273  TIP3      3907            0.0000000000
     34042      4100  TIP3      OH2           -14.6183218520      -19.0921408250      -41.8561722611  TIP3      3908            0.0000000000
     34043      4100  TIP3      H1            -14.9289527439      -18.8259250061      -40.9830760295  TIP3      3908            0.0000000000
     34044      4100  TIP3      H2            -13.8649992145      -19.6525254945      -41.6887183807  TIP3      3908            0.0000000000
     34045      4101  TIP3      OH2            -4.7143528788       37.0760950869      -24.2373030756  TIP3      3909            0.0000000000
     34046      4101  TIP3      H1             -4.7880659526       36.4451915173      -23.5055774810  TIP3      3909            0.0000000000
     34047      4101  TIP3      H2             -3.9284495194       36.8394170970      -24.7364737613  TIP3      3909            0.0000000000
     34048      4102  TIP3      OH2            -1.6300403368      -20.5170774651      -25.6835038358  TIP3      3910            0.0000000000
     34049      4102  TIP3      H1             -2.4394619655      -20.6518283591      -26.2113753511  TIP3      3910            0.0000000000
     34050      4102  TIP3      H2             -1.7387191704      -19.5802806943      -25.4278780905  TIP3      3910            0.0000000000
     34051      4103  TIP3      OH2            12.7789109397      -26.6536849513      -35.6796043222  TIP3      3911            0.0000000000
     34052      4103  TIP3      H1             12.8097670056      -25.6755793553      -35.7686153109  TIP3      3911            0.0000000000
     34053      4103  TIP3      H2             12.0918385016      -26.8694430586      -36.3205021735  TIP3      3911            0.0000000000
     34054      4104  TIP3      OH2            11.6550096678      -27.3872496052      -32.1961006516  TIP3      3912            0.0000000000
     34055      4104  TIP3      H1             11.6534216411      -28.0401129678      -31.4817567850  TIP3      3912            0.0000000000
     34056      4104  TIP3      H2             11.3155873512      -27.8969625403      -32.9470007195  TIP3      3912            0.0000000000
     34057      4105  TIP3      OH2             4.0066434030      -27.7173795871      -30.6456530784  TIP3      3913            0.0000000000
     34058      4105  TIP3      H1              4.0984605122      -28.4025457848      -29.9533896463  TIP3      3913            0.0000000000
     34059      4105  TIP3      H2              4.7588924848      -27.1444404496      -30.4269764642  TIP3      3913            0.0000000000
     34060      4106  TIP3      OH2            15.3499779560      -24.4395969418      -33.9101922755  TIP3      3914            0.0000000000
     34061      4106  TIP3      H1             14.9365181679      -25.1567983954      -33.4198566991  TIP3      3914            0.0000000000
     34062      4106  TIP3      H2             15.3722355067      -23.7310781078      -33.2400248039  TIP3      3914            0.0000000000
     34063      4107  TIP3      OH2             4.9398493909      -23.2561898847      -32.1682735207  TIP3      3915            0.0000000000
     34064      4107  TIP3      H1              4.6300827908      -24.1330942463      -32.4678975006  TIP3      3915            0.0000000000
     34065      4107  TIP3      H2              5.8935868428      -23.4445347187      -32.1049135117  TIP3      3915            0.0000000000
     34066      4108  TIP3      OH2             1.5757875938      -29.7107471860      -36.6579838733  TIP3      3916            0.0000000000
     34067      4108  TIP3      H1              1.1428035536      -28.8380122587      -36.7153331090  TIP3      3916            0.0000000000
     34068      4108  TIP3      H2              1.0152446091      -30.2445859243      -37.2388123409  TIP3      3916            0.0000000000
     34069      4109  TIP3      OH2             2.2960465628      -27.4719141703      -34.5068084432  TIP3      3917            0.0000000000
     34070      4109  TIP3      H1              2.5675658519      -28.3009084536      -34.0632346444  TIP3      3917            0.0000000000
     34071      4109  TIP3      H2              2.9838237250      -27.3723608926      -35.1804339807  TIP3      3917            0.0000000000
     34072      4110  TIP3      OH2            12.4657032555      -19.2799263270      -33.6779403884  TIP3      3918            0.0000000000
     34073      4110  TIP3      H1             13.1149119978      -19.9672690322      -33.9671443644  TIP3      3918            0.0000000000
     34074      4110  TIP3      H2             12.2476746843      -19.6222011903      -32.8112765625  TIP3      3918            0.0000000000
     34075      4111  TIP3      OH2            10.0373675273      -24.9954154285      -31.7234322997  TIP3      3919            0.0000000000
     34076      4111  TIP3      H1             10.3742509805      -25.6159806792      -32.3877845777  TIP3      3919            0.0000000000
     34077      4111  TIP3      H2             10.8510087767      -24.8329194242      -31.2146024345  TIP3      3919            0.0000000000
     34078      4112  TIP3      OH2            18.6507344691      -33.3429095715      -31.0079395548  TIP3      3920            0.0000000000
     34079      4112  TIP3      H1             18.8043065403      -32.7294212977      -30.2496652597  TIP3      3920            0.0000000000
     34080      4112  TIP3      H2             19.1987458104      -32.9138805549      -31.6766887852  TIP3      3920            0.0000000000
     34081      4113  TIP3      OH2            13.2056183819      -30.5215400828      -31.4038224785  TIP3      3921            0.0000000000
     34082      4113  TIP3      H1             13.3641976865      -31.4870427240      -31.4004917258  TIP3      3921            0.0000000000
     34083      4113  TIP3      H2             13.0996442924      -30.3767963240      -32.3643789270  TIP3      3921            0.0000000000
     34084      4114  TIP3      OH2             6.3188512477      -32.3957436779      -34.1966640951  TIP3      3922            0.0000000000
     34085      4114  TIP3      H1              6.4345954602      -31.5726921370      -34.7128005067  TIP3      3922            0.0000000000
     34086      4114  TIP3      H2              5.9232834200      -32.9912212676      -34.8684809796  TIP3      3922            0.0000000000
     34087      4115  TIP3      OH2            14.0661000051      -32.3768668191      -35.8493527721  TIP3      3923            0.0000000000
     34088      4115  TIP3      H1             14.6896280402      -32.6605388378      -35.1396625242  TIP3      3923            0.0000000000
     34089      4115  TIP3      H2             14.6130365077      -31.7667071969      -36.3539599759  TIP3      3923            0.0000000000
     34090      4116  TIP3      OH2             2.9368911612      -30.0205690571      -33.4609873556  TIP3      3924            0.0000000000
     34091      4116  TIP3      H1              3.6102298566      -30.5638035508      -33.0109510175  TIP3      3924            0.0000000000
     34092      4116  TIP3      H2              3.0438860515      -30.3313840877      -34.3757059218  TIP3      3924            0.0000000000
     34093      4117  TIP3      OH2             8.1077455206      -28.4615434857      -34.1539705493  TIP3      3925            0.0000000000
     34094      4117  TIP3      H1              8.7754543728      -29.0459417404      -33.7548069723  TIP3      3925            0.0000000000
     34095      4117  TIP3      H2              7.5890685448      -29.1165806074      -34.6606502742  TIP3      3925            0.0000000000
     34096      4118  TIP3      OH2            19.0590423791      -31.9436822752      -28.7136602407  TIP3      3926            0.0000000000
     34097      4118  TIP3      H1             18.4724924954      -31.1638641498      -28.8330592707  TIP3      3926            0.0000000000
     34098      4118  TIP3      H2             19.1187633778      -32.0077942116      -27.7538820828  TIP3      3926            0.0000000000
     34099      4119  TIP3      OH2             5.2442428852      -33.4866633313      -30.1575879175  TIP3      3927            0.0000000000
     34100      4119  TIP3      H1              4.9256286906      -32.9595234052      -30.9186284668  TIP3      3927            0.0000000000
     34101      4119  TIP3      H2              4.5427141302      -33.3088831366      -29.4866440031  TIP3      3927            0.0000000000
     34102      4120  TIP3      OH2            12.4749190296      -24.0522298419      -36.5793515549  TIP3      3928            0.0000000000
     34103      4120  TIP3      H1             12.3185344438      -24.3538740680      -37.4997642152  TIP3      3928            0.0000000000
     34104      4120  TIP3      H2             12.1962503345      -23.1109419974      -36.5915665945  TIP3      3928            0.0000000000
     34105      4121  TIP3      OH2             7.7388285421      -25.8891946218      -29.9257556911  TIP3      3929            0.0000000000
     34106      4121  TIP3      H1              7.0366429644      -25.2435018366      -29.6989757286  TIP3      3929            0.0000000000
     34107      4121  TIP3      H2              8.4492026692      -25.2924806301      -30.2134461781  TIP3      3929            0.0000000000
     34108      4122  TIP3      OH2            15.8627683474      -32.9936575904      -33.8458532899  TIP3      3930            0.0000000000
     34109      4122  TIP3      H1             15.6396094220      -33.7602311943      -33.3056806728  TIP3      3930            0.0000000000
     34110      4122  TIP3      H2             16.5586471439      -32.5757500916      -33.3094504545  TIP3      3930            0.0000000000
     34111      4123  TIP3      OH2             4.7896765736      -31.6653077041      -32.1420742616  TIP3      3931            0.0000000000
     34112      4123  TIP3      H1              5.4261668764      -30.9940015046      -31.8103192513  TIP3      3931            0.0000000000
     34113      4123  TIP3      H2              5.3218875961      -32.0934381443      -32.8572039644  TIP3      3931            0.0000000000
     34114      4124  TIP3      OH2             6.1854632274      -23.8828105812      -29.1133259347  TIP3      3932            0.0000000000
     34115      4124  TIP3      H1              6.1411197857      -22.9633655442      -29.4344813886  TIP3      3932            0.0000000000
     34116      4124  TIP3      H2              5.3112356084      -23.9595507474      -28.6533765387  TIP3      3932            0.0000000000
     34117      4125  TIP3      OH2             2.2470593959      -24.2761636049      -38.3195548307  TIP3      3933            0.0000000000
     34118      4125  TIP3      H1              2.0493256439      -23.9270805895      -39.2118766834  TIP3      3933            0.0000000000
     34119      4125  TIP3      H2              2.3333475594      -23.4523982785      -37.7943561573  TIP3      3933            0.0000000000
     34120      4126  TIP3      OH2            15.8754068659      -22.6015561168      -31.5491440292  TIP3      3934            0.0000000000
     34121      4126  TIP3      H1             14.9067941350      -22.4891312854      -31.4290150627  TIP3      3934            0.0000000000
     34122      4126  TIP3      H2             16.1447280926      -21.6867729916      -31.7547046792  TIP3      3934            0.0000000000
     34123      4127  TIP3      OH2            16.2185210505      -34.3037492792      -30.0928981140  TIP3      3935            0.0000000000
     34124      4127  TIP3      H1             15.4789025807      -33.7058964039      -30.2802390154  TIP3      3935            0.0000000000
     34125      4127  TIP3      H2             16.9093339932      -33.9359672766      -30.6848497270  TIP3      3935            0.0000000000
     34126      4128  TIP3      OH2             9.4512271935      -36.0067043915      -32.7199909071  TIP3      3936            0.0000000000
     34127      4128  TIP3      H1              9.3307646989      -36.9599082605      -32.7390164216  TIP3      3936            0.0000000000
     34128      4128  TIP3      H2              8.5389470245      -35.7539299539      -32.4934062895  TIP3      3936            0.0000000000
     34129      4129  TIP3      OH2            14.1344924402      -20.8149325303      -34.9627609005  TIP3      3937            0.0000000000
     34130      4129  TIP3      H1             14.5639947376      -21.5369572500      -35.4692104554  TIP3      3937            0.0000000000
     34131      4129  TIP3      H2             14.5839170350      -20.0321313334      -35.3439742880  TIP3      3937            0.0000000000
     34132      4130  TIP3      OH2            15.3652829284      -22.8786300082      -36.4381222829  TIP3      3938            0.0000000000
     34133      4130  TIP3      H1             15.0639088050      -23.5624346690      -37.0763448380  TIP3      3938            0.0000000000
     34134      4130  TIP3      H2             15.3738029393      -23.4014359309      -35.6176328880  TIP3      3938            0.0000000000
     34135      4131  TIP3      OH2            16.9610475411      -24.2886445214      -27.9485668233  TIP3      3939            0.0000000000
     34136      4131  TIP3      H1             17.1082449750      -24.9547674794      -28.6556942630  TIP3      3939            0.0000000000
     34137      4131  TIP3      H2             17.1740677242      -23.4533867392      -28.4029895838  TIP3      3939            0.0000000000
     34138      4132  TIP3      OH2            11.0539773474      -27.6564585751      -38.1816970603  TIP3      3940            0.0000000000
     34139      4132  TIP3      H1             10.6486225084      -26.8174284496      -38.4847176083  TIP3      3940            0.0000000000
     34140      4132  TIP3      H2             11.9079305344      -27.4395877796      -38.6202288700  TIP3      3940            0.0000000000
     34141      4133  TIP3      OH2            11.4502220319      -28.9068416632      -41.2290853975  TIP3      3941            0.0000000000
     34142      4133  TIP3      H1             12.1143009819      -28.7866615616      -40.5148432189  TIP3      3941            0.0000000000
     34143      4133  TIP3      H2             11.9339329741      -29.5910308110      -41.7028966475  TIP3      3941            0.0000000000
     34144      4134  TIP3      OH2            18.8510283213      -27.9853418910      -29.9219206238  TIP3      3942            0.0000000000
     34145      4134  TIP3      H1             18.1941043042      -27.2603614515      -29.8729926695  TIP3      3942            0.0000000000
     34146      4134  TIP3      H2             19.3523363470      -27.7439283693      -30.7210082809  TIP3      3942            0.0000000000
     34147      4135  TIP3      OH2            15.0287267554      -27.1986412145      -37.1536718153  TIP3      3943            0.0000000000
     34148      4135  TIP3      H1             14.2004049275      -26.9456958294      -36.6864931127  TIP3      3943            0.0000000000
     34149      4135  TIP3      H2             15.4035015496      -27.9170031990      -36.6382287719  TIP3      3943            0.0000000000
     34150      4136  TIP3      OH2            14.8232254141      -29.0437155784      -28.1422988219  TIP3      3944            0.0000000000
     34151      4136  TIP3      H1             14.8608785961      -28.2234739145      -27.6123516353  TIP3      3944            0.0000000000
     34152      4136  TIP3      H2             14.2096021450      -28.7307686735      -28.8345069092  TIP3      3944            0.0000000000
     34153      4137  TIP3      OH2             6.5203853381      -26.5296346421      -35.3495221163  TIP3      3945            0.0000000000
     34154      4137  TIP3      H1              6.2037309174      -26.9253568349      -36.1968245018  TIP3      3945            0.0000000000
     34155      4137  TIP3      H2              7.1339858603      -27.2225523471      -35.0131257309  TIP3      3945            0.0000000000
     34156      4138  TIP3      OH2             7.8401049376      -23.1591144479      -32.6688466997  TIP3      3946            0.0000000000
     34157      4138  TIP3      H1              7.8413401892      -23.6768983510      -33.4835332813  TIP3      3946            0.0000000000
     34158      4138  TIP3      H2              8.6251245031      -23.5113283570      -32.2105446279  TIP3      3946            0.0000000000
     34159      4139  TIP3      OH2             6.8499534166      -27.7905422649      -31.6839358688  TIP3      3947            0.0000000000
     34160      4139  TIP3      H1              7.3980089842      -27.6917286229      -32.4865341277  TIP3      3947            0.0000000000
     34161      4139  TIP3      H2              7.2441840745      -27.1253180687      -31.0763501767  TIP3      3947            0.0000000000
     34162      4140  TIP3      OH2            13.2771746335      -22.2168435163      -30.9774319375  TIP3      3948            0.0000000000
     34163      4140  TIP3      H1             12.9823461856      -21.5785807754      -30.3223485145  TIP3      3948            0.0000000000
     34164      4140  TIP3      H2             13.0160425178      -23.0688855859      -30.5563045425  TIP3      3948            0.0000000000
     34165      4141  TIP3      OH2             7.7943013090      -23.3669220881      -26.9580651775  TIP3      3949            0.0000000000
     34166      4141  TIP3      H1              7.3775961043      -22.6125314496      -26.4993232377  TIP3      3949            0.0000000000
     34167      4141  TIP3      H2              7.1417236195      -23.5658930996      -27.6735271172  TIP3      3949            0.0000000000
     34168      4142  TIP3      OH2            14.4242159058      -28.4680467143      -39.8278246194  TIP3      3950            0.0000000000
     34169      4142  TIP3      H1             14.3512768387      -28.0018885817      -38.9602508815  TIP3      3950            0.0000000000
     34170      4142  TIP3      H2             14.1977677399      -27.6230450027      -40.3087704660  TIP3      3950            0.0000000000
     34171      4143  TIP3      OH2             4.7450052635      -27.1857334319      -27.8462906717  TIP3      3951            0.0000000000
     34172      4143  TIP3      H1              4.7952093340      -26.5680793798      -27.0858820523  TIP3      3951            0.0000000000
     34173      4143  TIP3      H2              3.8064332274      -27.1008550474      -28.0753942162  TIP3      3951            0.0000000000
     34174      4144  TIP3      OH2            11.4922418651      -21.2749786530      -36.1110679488  TIP3      3952            0.0000000000
     34175      4144  TIP3      H1             11.9295035701      -20.9579301877      -35.3137343076  TIP3      3952            0.0000000000
     34176      4144  TIP3      H2             10.9453082366      -20.5248040226      -36.3779996727  TIP3      3952            0.0000000000
     34177      4145  TIP3      OH2             6.0440153644      -21.3531884712      -26.2409901440  TIP3      3953            0.0000000000
     34178      4145  TIP3      H1              6.0001289332      -21.4369824503      -27.2071868859  TIP3      3953            0.0000000000
     34179      4145  TIP3      H2              5.1102725416      -21.4712353542      -25.9858282686  TIP3      3953            0.0000000000
     34180      4146  TIP3      OH2            17.5279189823      -36.1445572804      -39.7172558409  TIP3      3954            0.0000000000
     34181      4146  TIP3      H1             16.5815971535      -36.1577931005      -39.4757645851  TIP3      3954            0.0000000000
     34182      4146  TIP3      H2             17.6835165267      -35.3238906388      -40.1827839891  TIP3      3954            0.0000000000
     34183      4147  TIP3      OH2             5.4858623058      -27.5163092980      -37.7365298299  TIP3      3955            0.0000000000
     34184      4147  TIP3      H1              5.2214781723      -26.7406453574      -38.2672190420  TIP3      3955            0.0000000000
     34185      4147  TIP3      H2              4.8283606601      -28.1798308722      -37.9718517213  TIP3      3955            0.0000000000
     34186      4148  TIP3      OH2            18.6081550056      -21.9370968717      -41.3257367314  TIP3      3956            0.0000000000
     34187      4148  TIP3      H1             18.7371589321      -20.9776520530      -41.2068519701  TIP3      3956            0.0000000000
     34188      4148  TIP3      H2             19.5386193209      -22.2143462171      -41.3964012911  TIP3      3956            0.0000000000
     34189      4149  TIP3      OH2             1.5942416827      -25.0848723061      -28.8543343981  TIP3      3957            0.0000000000
     34190      4149  TIP3      H1              1.1359382028      -25.1705888435      -29.7070439899  TIP3      3957            0.0000000000
     34191      4149  TIP3      H2              1.6633948770      -26.0301666129      -28.6198287542  TIP3      3957            0.0000000000
     34192      4150  TIP3      OH2             1.3396408256      -22.3491410168      -32.0576468977  TIP3      3958            0.0000000000
     34193      4150  TIP3      H1              2.2977935100      -22.4669033671      -32.0795607920  TIP3      3958            0.0000000000
     34194      4150  TIP3      H2              1.2598634181      -21.5299228685      -31.5535893175  TIP3      3958            0.0000000000
     34195      4151  TIP3      OH2            19.5640499625      -21.6621976120      -26.4000419899  TIP3      3959            0.0000000000
     34196      4151  TIP3      H1             19.4481419210      -22.6239973313      -26.4064516493  TIP3      3959            0.0000000000
     34197      4151  TIP3      H2             18.7167083167      -21.3992372207      -25.9675888684  TIP3      3959            0.0000000000
     34198      4152  TIP3      OH2            10.5397088363      -22.0960808222      -27.5176381866  TIP3      3960            0.0000000000
     34199      4152  TIP3      H1             10.6049204426      -21.2704416388      -26.9850983520  TIP3      3960            0.0000000000
     34200      4152  TIP3      H2              9.6842008231      -22.4711745808      -27.2432994189  TIP3      3960            0.0000000000
     34201      4153  TIP3      OH2            10.9710594254      -18.3635893189      -37.7191316814  TIP3      3961            0.0000000000
     34202      4153  TIP3      H1             10.8966600205      -18.4194536212      -38.6881949721  TIP3      3961            0.0000000000
     34203      4153  TIP3      H2             11.0085594625      -17.4021151024      -37.5502763663  TIP3      3961            0.0000000000
     34204      4154  TIP3      OH2             4.6210295129      -19.4828536705      -35.8855655665  TIP3      3962            0.0000000000
     34205      4154  TIP3      H1              4.7665533778      -19.8951178487      -35.0032679305  TIP3      3962            0.0000000000
     34206      4154  TIP3      H2              3.7723736682      -19.8914747439      -36.1233130792  TIP3      3962            0.0000000000
     34207      4155  TIP3      OH2            13.9988996490      -19.1561030854      -40.7512481466  TIP3      3963            0.0000000000
     34208      4155  TIP3      H1             14.4802070984      -19.9132886105      -41.1596203246  TIP3      3963            0.0000000000
     34209      4155  TIP3      H2             14.0800497531      -19.3921262072      -39.8097411924  TIP3      3963            0.0000000000
     34210      4156  TIP3      OH2            13.7189464876      -19.2081816038      -37.9485905431  TIP3      3964            0.0000000000
     34211      4156  TIP3      H1             12.7612318033      -19.1448223413      -37.7654461072  TIP3      3964            0.0000000000
     34212      4156  TIP3      H2             13.9688810952      -19.9481216671      -37.3773780891  TIP3      3964            0.0000000000
     34213      4157  TIP3      OH2            16.7577408394      -30.2020750568      -25.9411993653  TIP3      3965            0.0000000000
     34214      4157  TIP3      H1             16.2391661765      -29.7061859159      -26.5971946245  TIP3      3965            0.0000000000
     34215      4157  TIP3      H2             16.7312514391      -31.1080734291      -26.2515050913  TIP3      3965            0.0000000000
     34216      4158  TIP3      OH2             3.8562002285      -23.7972688432      -27.8922119600  TIP3      3966            0.0000000000
     34217      4158  TIP3      H1              4.0673318230      -24.1532089201      -26.9983601768  TIP3      3966            0.0000000000
     34218      4158  TIP3      H2              2.9801480427      -24.1812772414      -28.1019070527  TIP3      3966            0.0000000000
     34219      4159  TIP3      OH2             6.5076736332      -35.1261540980      -31.8915723956  TIP3      3967            0.0000000000
     34220      4159  TIP3      H1              5.6374332480      -35.3273892650      -32.2961363974  TIP3      3967            0.0000000000
     34221      4159  TIP3      H2              6.3188286842      -34.3212401100      -31.4027068889  TIP3      3967            0.0000000000
     34222      4160  TIP3      OH2            11.1738488326      -35.6278952924      -28.5504497697  TIP3      3968            0.0000000000
     34223      4160  TIP3      H1             11.5739400937      -36.0235366389      -27.7786497681  TIP3      3968            0.0000000000
     34224      4160  TIP3      H2             10.2133046019      -35.7090597800      -28.3983777994  TIP3      3968            0.0000000000
     34225      4161  TIP3      OH2            14.4571998174      -31.8173316257      -27.7056093025  TIP3      3969            0.0000000000
     34226      4161  TIP3      H1             13.8950973117      -31.9660473012      -26.9133940848  TIP3      3969            0.0000000000
     34227      4161  TIP3      H2             14.3250407790      -30.8730237628      -27.9285478648  TIP3      3969            0.0000000000
     34228      4162  TIP3      OH2            15.3458619864      -26.9261571354      -41.8335510553  TIP3      3970            0.0000000000
     34229      4162  TIP3      H1             15.3622470053      -27.0656439631      -42.7820058713  TIP3      3970            0.0000000000
     34230      4162  TIP3      H2             16.1770922618      -26.4614257782      -41.6548506616  TIP3      3970            0.0000000000
     34231      4163  TIP3      OH2            10.8042865464      -33.0426990855      -41.2404962750  TIP3      3971            0.0000000000
     34232      4163  TIP3      H1             10.5469774449      -33.0862226214      -40.3025011531  TIP3      3971            0.0000000000
     34233      4163  TIP3      H2             10.6018836110      -33.9444092975      -41.5315007728  TIP3      3971            0.0000000000
     34234      4164  TIP3      OH2             6.6529901867      -30.3171593472      -30.6814502351  TIP3      3972            0.0000000000
     34235      4164  TIP3      H1              5.9146413551      -30.3253656699      -30.0467101183  TIP3      3972            0.0000000000
     34236      4164  TIP3      H2              6.6037945055      -29.4117500851      -31.0604955659  TIP3      3972            0.0000000000
     34237      4165  TIP3      OH2             6.5958033882      -30.2361089624      -35.8159896942  TIP3      3973            0.0000000000
     34238      4165  TIP3      H1              5.6559127427      -30.4621053454      -35.9647506957  TIP3      3973            0.0000000000
     34239      4165  TIP3      H2              6.9818567862      -30.4976496062      -36.6733040228  TIP3      3973            0.0000000000
     34240      4166  TIP3      OH2            12.1650628436      -29.7270883209      -37.0858911898  TIP3      3974            0.0000000000
     34241      4166  TIP3      H1             11.7037489989      -28.9082598763      -37.3906445886  TIP3      3974            0.0000000000
     34242      4166  TIP3      H2             12.8246220744      -29.8484350508      -37.7805268966  TIP3      3974            0.0000000000
     34243      4167  TIP3      OH2            11.2088196303      -29.5148610801      -25.6328557353  TIP3      3975            0.0000000000
     34244      4167  TIP3      H1             10.6556491449      -30.2631991065      -25.3048574329  TIP3      3975            0.0000000000
     34245      4167  TIP3      H2             12.0313312931      -29.6071399667      -25.1416811259  TIP3      3975            0.0000000000
     34246      4168  TIP3      OH2            13.1748996615      -30.1930848111      -34.2225902296  TIP3      3976            0.0000000000
     34247      4168  TIP3      H1             12.8866043744      -29.6351358055      -34.9648381296  TIP3      3976            0.0000000000
     34248      4168  TIP3      H2             13.2632956680      -31.0503847823      -34.6778583049  TIP3      3976            0.0000000000
     34249      4169  TIP3      OH2             4.2703243919      -30.0658020459      -29.0110600964  TIP3      3977            0.0000000000
     34250      4169  TIP3      H1              4.3679871637      -29.6822288796      -28.1203805796  TIP3      3977            0.0000000000
     34251      4169  TIP3      H2              3.8477419288      -30.9151788909      -28.8150032739  TIP3      3977            0.0000000000
     34252      4170  TIP3      OH2             7.8178901367      -32.4261649490      -41.8446289345  TIP3      3978            0.0000000000
     34253      4170  TIP3      H1              7.2930110146      -33.0749563571      -41.3195639543  TIP3      3978            0.0000000000
     34254      4170  TIP3      H2              7.1775868329      -32.0876740356      -42.4652382088  TIP3      3978            0.0000000000
     34255      4171  TIP3      OH2             0.9472468508      -32.9359759523      -35.0476846690  TIP3      3979            0.0000000000
     34256      4171  TIP3      H1              1.6208996422      -32.9857999759      -34.3359402829  TIP3      3979            0.0000000000
     34257      4171  TIP3      H2              1.3835794851      -33.3333888760      -35.8133863309  TIP3      3979            0.0000000000
     34258      4172  TIP3      OH2             2.2468202157      -32.2081563006      -39.6092668995  TIP3      3980            0.0000000000
     34259      4172  TIP3      H1              2.7128149602      -31.6453610941      -40.2624285509  TIP3      3980            0.0000000000
     34260      4172  TIP3      H2              1.5332656191      -31.6002852003      -39.3294856632  TIP3      3980            0.0000000000
     34261      4173  TIP3      OH2            12.3600473635      -28.6252684055      -29.6681923684  TIP3      3981            0.0000000000
     34262      4173  TIP3      H1             12.7458561461      -29.3123328583      -30.2490583127  TIP3      3981            0.0000000000
     34263      4173  TIP3      H2             11.8891929399      -29.1564583404      -29.0015341641  TIP3      3981            0.0000000000
     34264      4174  TIP3      OH2             9.1656566944      -32.6501075002      -34.8244158572  TIP3      3982            0.0000000000
     34265      4174  TIP3      H1              8.2334101484      -32.6956048206      -34.5234129040  TIP3      3982            0.0000000000
     34266      4174  TIP3      H2              9.6514760347      -32.8033677274      -34.0035346443  TIP3      3982            0.0000000000
     34267      4175  TIP3      OH2             3.9792921592      -31.1283246249      -35.9502045585  TIP3      3983            0.0000000000
     34268      4175  TIP3      H1              3.0996453823      -30.9498317289      -36.3450742359  TIP3      3983            0.0000000000
     34269      4175  TIP3      H2              4.2636833944      -31.9722778005      -36.3556958203  TIP3      3983            0.0000000000
     34270      4176  TIP3      OH2             7.6106811644      -31.0661902916      -38.3412993268  TIP3      3984            0.0000000000
     34271      4176  TIP3      H1              8.5531678788      -30.9231394983      -38.1273631605  TIP3      3984            0.0000000000
     34272      4176  TIP3      H2              7.3680204509      -30.3806109826      -38.9894344270  TIP3      3984            0.0000000000
     34273      4177  TIP3      OH2            13.5766503609      -33.4236949089      -31.5961100215  TIP3      3985            0.0000000000
     34274      4177  TIP3      H1             12.8861827312      -33.3708968335      -30.9024945853  TIP3      3985            0.0000000000
     34275      4177  TIP3      H2             13.0738799403      -33.6699753557      -32.3867366077  TIP3      3985            0.0000000000
     34276      4178  TIP3      OH2             6.3024924226      -29.8807671481      -40.7330190638  TIP3      3986            0.0000000000
     34277      4178  TIP3      H1              5.7344346007      -30.2345787684      -41.4396950921  TIP3      3986            0.0000000000
     34278      4178  TIP3      H2              7.1268870540      -29.6774789588      -41.1929597256  TIP3      3986            0.0000000000
     34279      4179  TIP3      OH2            16.7817620852      -17.7341021176      -25.2007652689  TIP3      3987            0.0000000000
     34280      4179  TIP3      H1             17.0746943521      -17.4154315813      -26.0946429297  TIP3      3987            0.0000000000
     34281      4179  TIP3      H2             17.5772154296      -17.4477134542      -24.7174436865  TIP3      3987            0.0000000000
     34282      4180  TIP3      OH2             4.4614080314      -25.3092625895      -25.6656722100  TIP3      3988            0.0000000000
     34283      4180  TIP3      H1              5.1544141498      -25.0366625423      -25.0428899806  TIP3      3988            0.0000000000
     34284      4180  TIP3      H2              3.6858240277      -25.2030848515      -25.0790739047  TIP3      3988            0.0000000000
     34285      4181  TIP3      OH2            10.4576860581      -29.9071295281      -32.9310084025  TIP3      3989            0.0000000000
     34286      4181  TIP3      H1             11.0301800866      -30.4768857446      -33.4611693617  TIP3      3989            0.0000000000
     34287      4181  TIP3      H2             10.2960848253      -30.4426171541      -32.1437937936  TIP3      3989            0.0000000000
     34288      4182  TIP3      OH2             5.4449277389      -33.7057195659      -36.4994614072  TIP3      3990            0.0000000000
     34289      4182  TIP3      H1              5.1099580209      -34.6228512660      -36.4747689455  TIP3      3990            0.0000000000
     34290      4182  TIP3      H2              6.2327707897      -33.8068642441      -37.0482290128  TIP3      3990            0.0000000000
     34291      4183  TIP3      OH2             9.0815839970      -31.5791008709      -30.5189325521  TIP3      3991            0.0000000000
     34292      4183  TIP3      H1              8.2609651393      -31.0502375442      -30.4301758880  TIP3      3991            0.0000000000
     34293      4183  TIP3      H2              9.6445496761      -31.2192795337      -29.8037593964  TIP3      3991            0.0000000000
     34294      4184  TIP3      OH2             9.6468916574      -25.3496971020      -38.7966272220  TIP3      3992            0.0000000000
     34295      4184  TIP3      H1              8.8481734246      -25.8109492266      -39.1172383922  TIP3      3992            0.0000000000
     34296      4184  TIP3      H2              9.4533612993      -25.2313848122      -37.8508811943  TIP3      3992            0.0000000000
     34297      4185  TIP3      OH2            16.8653700223      -26.1377520621      -30.0234149302  TIP3      3993            0.0000000000
     34298      4185  TIP3      H1             17.4254840028      -25.6525180664      -30.6558095079  TIP3      3993            0.0000000000
     34299      4185  TIP3      H2             16.0020613518      -26.0967069463      -30.4813506265  TIP3      3993            0.0000000000
     34300      4186  TIP3      OH2            13.5443584797      -32.5182307740      -40.6623727022  TIP3      3994            0.0000000000
     34301      4186  TIP3      H1             12.5916214846      -32.4161698070      -40.8283303151  TIP3      3994            0.0000000000
     34302      4186  TIP3      H2             13.7990705734      -31.6554433437      -40.2909901040  TIP3      3994            0.0000000000
     34303      4187  TIP3      OH2            11.1436098845      -25.0724812414      -27.6139641046  TIP3      3995            0.0000000000
     34304      4187  TIP3      H1             10.8234266416      -25.5025295818      -26.8093867422  TIP3      3995            0.0000000000
     34305      4187  TIP3      H2             10.9138906297      -24.1505681367      -27.4711031033  TIP3      3995            0.0000000000
     34306      4188  TIP3      OH2            14.2784348565      -30.7898468668      -38.9304893887  TIP3      3996            0.0000000000
     34307      4188  TIP3      H1             15.0995344427      -30.7230832008      -38.4438405047  TIP3      3996            0.0000000000
     34308      4188  TIP3      H2             14.2887474842      -29.9270984429      -39.4221076785  TIP3      3996            0.0000000000
     34309      4189  TIP3      OH2             4.7861720070      -25.9504372253      -33.0173358543  TIP3      3997            0.0000000000
     34310      4189  TIP3      H1              5.4668021954      -26.0316904427      -33.7117563680  TIP3      3997            0.0000000000
     34311      4189  TIP3      H2              4.8424570179      -26.8068884109      -32.5604524873  TIP3      3997            0.0000000000
     34312      4190  TIP3      OH2            11.6005697021      -23.6749755630      -39.9211575430  TIP3      3998            0.0000000000
     34313      4190  TIP3      H1             11.3181775248      -22.9464943409      -39.3516410479  TIP3      3998            0.0000000000
     34314      4190  TIP3      H2             11.1206420429      -24.4709308187      -39.5731524040  TIP3      3998            0.0000000000
     34315      4191  TIP3      OH2             1.7650096892      -27.5347878375      -27.7578526420  TIP3      3999            0.0000000000
     34316      4191  TIP3      H1              1.9693138292      -27.9821943300      -26.9127312322  TIP3      3999            0.0000000000
     34317      4191  TIP3      H2              1.1425997285      -28.1532095337      -28.1794357452  TIP3      3999            0.0000000000
     34318      4192  TIP3      OH2             8.8326526259      -27.9650940469      -25.6086890466  TIP3      4000            0.0000000000
     34319      4192  TIP3      H1              8.4761080853      -28.3088701347      -26.4411605406  TIP3      4000            0.0000000000
     34320      4192  TIP3      H2              9.7324353399      -28.3251036181      -25.5909379065  TIP3      4000            0.0000000000
     34321      4193  TIP3      OH2            13.4769677766      -22.6225750592      -27.6026925719  TIP3      4001            0.0000000000
     34322      4193  TIP3      H1             12.5499663687      -22.4683236660      -27.8462274045  TIP3      4001            0.0000000000
     34323      4193  TIP3      H2             13.4279082548      -22.3561172342      -26.6599112610  TIP3      4001            0.0000000000
     34324      4194  TIP3      OH2            19.1113508417      -30.4116721179      -39.1973277525  TIP3      4002            0.0000000000
     34325      4194  TIP3      H1             18.8642153818      -30.7587324057      -40.0638575814  TIP3      4002            0.0000000000
     34326      4194  TIP3      H2             19.3120227305      -29.4762790006      -39.4592414720  TIP3      4002            0.0000000000
     34327      4195  TIP3      OH2            19.1334019828      -24.5998449010      -26.4114752829  TIP3      4003            0.0000000000
     34328      4195  TIP3      H1             18.2357279021      -24.4056228885      -26.7802133238  TIP3      4003            0.0000000000
     34329      4195  TIP3      H2             19.6744948555      -24.6551056153      -27.2247621992  TIP3      4003            0.0000000000
     34330      4196  TIP3      OH2            17.4188068871      -21.6619467125      -38.8429611476  TIP3      4004            0.0000000000
     34331      4196  TIP3      H1             17.0340278686      -22.4958728029      -38.5349654509  TIP3      4004            0.0000000000
     34332      4196  TIP3      H2             17.7340315396      -21.8463943319      -39.7493910897  TIP3      4004            0.0000000000
     34333      4197  TIP3      OH2            14.6383819318      -26.8319565811      -31.7236112065  TIP3      4005            0.0000000000
     34334      4197  TIP3      H1             13.6983540317      -27.0377362423      -31.8472766284  TIP3      4005            0.0000000000
     34335      4197  TIP3      H2             15.0703004206      -27.5834800916      -32.1723537486  TIP3      4005            0.0000000000
     34336      4198  TIP3      OH2             7.1553597863      -22.4908778479      -35.6272409978  TIP3      4006            0.0000000000
     34337      4198  TIP3      H1              7.6561486539      -21.6875973440      -35.8360203566  TIP3      4006            0.0000000000
     34338      4198  TIP3      H2              6.2783288247      -22.2615934827      -35.9634202631  TIP3      4006            0.0000000000
     34339      4199  TIP3      OH2             2.8935869236      -27.6374772872      -41.1082558760  TIP3      4007            0.0000000000
     34340      4199  TIP3      H1              3.5118766400      -27.0141141366      -40.6819054359  TIP3      4007            0.0000000000
     34341      4199  TIP3      H2              2.0233217435      -27.3649440111      -40.7669471279  TIP3      4007            0.0000000000
     34342      4200  TIP3      OH2             8.5506072125      -24.8231977186      -36.0885290973  TIP3      4008            0.0000000000
     34343      4200  TIP3      H1              8.2342223246      -23.9020640409      -36.0225987307  TIP3      4008            0.0000000000
     34344      4200  TIP3      H2              7.8330737130      -25.3230367527      -35.6563901147  TIP3      4008            0.0000000000
     34345      4201  TIP3      OH2             9.0257103810      -20.6493141193      -29.7128089706  TIP3      4009            0.0000000000
     34346      4201  TIP3      H1              9.4845732794      -19.8394769275      -29.9801309771  TIP3      4009            0.0000000000
     34347      4201  TIP3      H2              9.6354483331      -20.9923526230      -29.0323361964  TIP3      4009            0.0000000000
     34348      4202  TIP3      OH2             7.2520959563      -19.8335479713      -36.6033200211  TIP3      4010            0.0000000000
     34349      4202  TIP3      H1              6.2902253740      -19.6994916580      -36.4441760720  TIP3      4010            0.0000000000
     34350      4202  TIP3      H2              7.6136220484      -19.0030449920      -36.2395881699  TIP3      4010            0.0000000000
     34351      4203  TIP3      OH2            12.5379518923      -24.6520660602      -30.0901201938  TIP3      4011            0.0000000000
     34352      4203  TIP3      H1             12.2223545009      -24.8412705719      -29.1808455497  TIP3      4011            0.0000000000
     34353      4203  TIP3      H2             13.1838363769      -25.3592700073      -30.2535206338  TIP3      4011            0.0000000000
     34354      4204  TIP3      OH2            14.8140662628      -23.5911410202      -40.9307560397  TIP3      4012            0.0000000000
     34355      4204  TIP3      H1             15.0988408508      -24.0954389155      -40.1378711257  TIP3      4012            0.0000000000
     34356      4204  TIP3      H2             13.8721787358      -23.8265573445      -40.8745178898  TIP3      4012            0.0000000000
     34357      4205  TIP3      OH2            15.3485270126      -20.0436756263      -27.5629433643  TIP3      4013            0.0000000000
     34358      4205  TIP3      H1             14.6802509829      -20.5553569907      -28.0593470255  TIP3      4013            0.0000000000
     34359      4205  TIP3      H2             15.5571367946      -19.3590750581      -28.2380852932  TIP3      4013            0.0000000000
     34360      4206  TIP3      OH2            19.3581996904      -19.1904416397      -40.7394711055  TIP3      4014            0.0000000000
     34361      4206  TIP3      H1             20.0468452187      -18.5518903719      -40.9965960645  TIP3      4014            0.0000000000
     34362      4206  TIP3      H2             18.6387460075      -18.5905175093      -40.4436276914  TIP3      4014            0.0000000000
     34363      4207  TIP3      OH2             3.4302047312      -32.8173728422      -28.1747301260  TIP3      4015            0.0000000000
     34364      4207  TIP3      H1              2.5233501336      -32.4767156146      -28.2492720196  TIP3      4015            0.0000000000
     34365      4207  TIP3      H2              3.2954567963      -33.7013079675      -27.7825565890  TIP3      4015            0.0000000000
     34366      4208  TIP3      OH2            15.7672062983      -24.8517973379      -38.6930230432  TIP3      4016            0.0000000000
     34367      4208  TIP3      H1             15.3855831328      -25.6867493177      -38.3302516500  TIP3      4016            0.0000000000
     34368      4208  TIP3      H2             16.7083840378      -24.9364685584      -38.5098425596  TIP3      4016            0.0000000000
     34369      4209  TIP3      OH2             3.0414385431      -21.0299114856      -29.7749131678  TIP3      4017            0.0000000000
     34370      4209  TIP3      H1              3.3449865355      -21.9503463785      -29.7718618728  TIP3      4017            0.0000000000
     34371      4209  TIP3      H2              3.3079154790      -20.7375742672      -28.8948369522  TIP3      4017            0.0000000000
     34372      4210  TIP3      OH2             7.7807629171      -22.9386526832      -40.0621943067  TIP3      4018            0.0000000000
     34373      4210  TIP3      H1              8.0881465952      -23.5088722858      -39.3408972340  TIP3      4018            0.0000000000
     34374      4210  TIP3      H2              7.8755148658      -22.0304584109      -39.7114166228  TIP3      4018            0.0000000000
     34375      4211  TIP3      OH2             4.2714029539      -25.7129076066      -39.6262114696  TIP3      4019            0.0000000000
     34376      4211  TIP3      H1              3.6189868684      -25.3066309649      -39.0152220495  TIP3      4019            0.0000000000
     34377      4211  TIP3      H2              4.8495919202      -24.9584912789      -39.8331270031  TIP3      4019            0.0000000000
     34378      4212  TIP3      OH2            12.1485063217      -33.0686530273      -29.2156345510  TIP3      4020            0.0000000000
     34379      4212  TIP3      H1             12.8965676447      -32.9948347316      -28.6083631095  TIP3      4020            0.0000000000
     34380      4212  TIP3      H2             11.8001642703      -33.9678060490      -29.0703661080  TIP3      4020            0.0000000000
     34381      4213  TIP3      OH2            12.9666512760      -33.4905215883      -38.1441843280  TIP3      4021            0.0000000000
     34382      4213  TIP3      H1             13.1256074063      -32.9867383620      -38.9656992316  TIP3      4021            0.0000000000
     34383      4213  TIP3      H2             13.4422387971      -32.9707107350      -37.4828512291  TIP3      4021            0.0000000000
     34384      4214  TIP3      OH2            10.5764687702      -21.2333540268      -39.2827947018  TIP3      4022            0.0000000000
     34385      4214  TIP3      H1              9.7427107224      -20.7407630462      -39.2845770040  TIP3      4022            0.0000000000
     34386      4214  TIP3      H2             11.1275909593      -20.8181677076      -39.9689370998  TIP3      4022            0.0000000000
     34387      4215  TIP3      OH2            10.1327971448      -31.7512640125      -37.3470098011  TIP3      4023            0.0000000000
     34388      4215  TIP3      H1             10.8982761829      -31.1437397043      -37.3315214275  TIP3      4023            0.0000000000
     34389      4215  TIP3      H2              9.8734415013      -31.8366788308      -36.4077024027  TIP3      4023            0.0000000000
     34390      4216  TIP3      OH2            10.7025279737      -30.6822578543      -28.1932514278  TIP3      4024            0.0000000000
     34391      4216  TIP3      H1             10.7396064656      -30.1387665834      -27.3827087226  TIP3      4024            0.0000000000
     34392      4216  TIP3      H2             11.3362172980      -31.3976619831      -28.0553354773  TIP3      4024            0.0000000000
     34393      4217  TIP3      OH2            10.9967644991      -34.6782610153      -36.3925429748  TIP3      4025            0.0000000000
     34394      4217  TIP3      H1             10.6568972099      -33.9900208419      -35.7965920453  TIP3      4025            0.0000000000
     34395      4217  TIP3      H2             11.6399329214      -34.1442118913      -36.9184422240  TIP3      4025            0.0000000000
     34396      4218  TIP3      OH2             7.9608669298      -20.2553485743      -39.3039300763  TIP3      4026            0.0000000000
     34397      4218  TIP3      H1              8.1393943620      -19.4363325187      -39.8106605708  TIP3      4026            0.0000000000
     34398      4218  TIP3      H2              7.7100227341      -19.9123679095      -38.4150476378  TIP3      4026            0.0000000000
     34399      4219  TIP3      OH2             6.6585541747      -33.5886248447      -39.7215682119  TIP3      4027            0.0000000000
     34400      4219  TIP3      H1              6.5712766305      -32.6752283780      -39.3772547874  TIP3      4027            0.0000000000
     34401      4219  TIP3      H2              7.5770919032      -33.7484668185      -39.4360840195  TIP3      4027            0.0000000000
     34402      4220  TIP3      OH2            16.8396328400      -32.8562196744      -27.2482565067  TIP3      4028            0.0000000000
     34403      4220  TIP3      H1             15.9311382815      -32.5123700319      -27.4292105861  TIP3      4028            0.0000000000
     34404      4220  TIP3      H2             17.1765645537      -32.8547809216      -28.1658885183  TIP3      4028            0.0000000000
     34405      4221  TIP3      OH2            15.4816387410      -29.0380961625      -33.2934996457  TIP3      4029            0.0000000000
     34406      4221  TIP3      H1             14.6550192592      -29.4854213985      -33.5566114123  TIP3      4029            0.0000000000
     34407      4221  TIP3      H2             15.9641296609      -29.7200621434      -32.7738116552  TIP3      4029            0.0000000000
     34408      4222  TIP3      OH2             4.8767737085      -23.1029160584      -40.7023087511  TIP3      4030            0.0000000000
     34409      4222  TIP3      H1              5.5221089987      -22.4678948854      -40.3715414417  TIP3      4030            0.0000000000
     34410      4222  TIP3      H2              5.4108640185      -23.5800933060      -41.3687041053  TIP3      4030            0.0000000000
     34411      4223  TIP3      OH2             3.2822123865      -30.4190810837      -41.5038643025  TIP3      4031            0.0000000000
     34412      4223  TIP3      H1              3.2436914606      -29.4536133196      -41.3867511385  TIP3      4031            0.0000000000
     34413      4223  TIP3      H2              2.4102229592      -30.6227863311      -41.8660168007  TIP3      4031            0.0000000000
     34414      4224  TIP3      OH2            16.5407352877      -19.7726994447      -31.6251092822  TIP3      4032            0.0000000000
     34415      4224  TIP3      H1             16.4531751464      -19.0922221054      -32.3196965998  TIP3      4032            0.0000000000
     34416      4224  TIP3      H2             17.5051525554      -19.7224636715      -31.4508201443  TIP3      4032            0.0000000000
     34417      4225  TIP3      OH2             3.8116914115      -35.5107003866      -32.7963572054  TIP3      4033            0.0000000000
     34418      4225  TIP3      H1              3.8460545682      -35.6089681374      -33.7740625684  TIP3      4033            0.0000000000
     34419      4225  TIP3      H2              3.7232996804      -36.4436110906      -32.5590707567  TIP3      4033            0.0000000000
     34420      4226  TIP3      OH2             2.9856647974      -21.7298949476      -36.6669754403  TIP3      4034            0.0000000000
     34421      4226  TIP3      H1              2.1286994473      -21.2916589059      -36.7144544835  TIP3      4034            0.0000000000
     34422      4226  TIP3      H2              3.4540701095      -21.2731429662      -37.3807315052  TIP3      4034            0.0000000000
     34423      4227  TIP3      OH2             2.2634105553      -19.1144276915      -25.4417030879  TIP3      4035            0.0000000000
     34424      4227  TIP3      H1              2.7453841837      -19.3046761192      -24.6239182337  TIP3      4035            0.0000000000
     34425      4227  TIP3      H2              1.7464780170      -19.9311556424      -25.5560693413  TIP3      4035            0.0000000000
     34426      4228  TIP3      OH2            11.3864819427      -20.6052249781      -41.7817472412  TIP3      4036            0.0000000000
     34427      4228  TIP3      H1             10.5425619949      -21.0800512562      -41.8914916308  TIP3      4036            0.0000000000
     34428      4228  TIP3      H2             11.8880211899      -21.0463529291      -42.4718906207  TIP3      4036            0.0000000000
     34429      4229  TIP3      OH2            13.3904570347      -21.7822438016      -25.0719661568  TIP3      4037            0.0000000000
     34430      4229  TIP3      H1             13.0304847607      -22.6332957345      -24.7466171475  TIP3      4037            0.0000000000
     34431      4229  TIP3      H2             14.1263522629      -21.6523343777      -24.4484192815  TIP3      4037            0.0000000000
     34432      4230  TIP3      OH2            15.5874731880      -20.8801068132      -42.1802836469  TIP3      4038            0.0000000000
     34433      4230  TIP3      H1             15.8139056790      -21.7014920155      -41.6937705203  TIP3      4038            0.0000000000
     34434      4230  TIP3      H2             16.3740271006      -20.6921100520      -42.7119043363  TIP3      4038            0.0000000000
     34435      4231  TIP3      OH2             2.0758271501      -25.3403446969      -24.3987711462  TIP3      4039            0.0000000000
     34436      4231  TIP3      H1              2.2648295623      -26.2404780243      -24.7272629301  TIP3      4039            0.0000000000
     34437      4231  TIP3      H2              1.3397404971      -25.0610961815      -24.9770461582  TIP3      4039            0.0000000000
     34438      4232  TIP3      OH2             6.5487831178      -24.8952236922      -42.2345000360  TIP3      4040            0.0000000000
     34439      4232  TIP3      H1              6.5856247333      -25.7221909432      -41.7527964190  TIP3      4040            0.0000000000
     34440      4232  TIP3      H2              7.0955591509      -25.1059328188      -43.0103194239  TIP3      4040            0.0000000000
     34441      4233  TIP3      OH2             8.8913506988      -25.3024130034      -25.0297886092  TIP3      4041            0.0000000000
     34442      4233  TIP3      H1              8.4829263325      -25.0145727479      -25.8649232897  TIP3      4041            0.0000000000
     34443      4233  TIP3      H2              8.8669877805      -26.2894542137      -25.0989970593  TIP3      4041            0.0000000000
     34444      4234  TIP3      OH2            14.5078409443      -25.4470743118      -27.6430604274  TIP3      4042            0.0000000000
     34445      4234  TIP3      H1             15.3091036070      -24.8804513418      -27.6703953283  TIP3      4042            0.0000000000
     34446      4234  TIP3      H2             13.8206721504      -24.7754569707      -27.5558162418  TIP3      4042            0.0000000000
     34447      4235  TIP3      OH2             2.9224706462      -28.0962939596      -25.0370990982  TIP3      4043            0.0000000000
     34448      4235  TIP3      H1              3.4469736994      -28.8991228145      -25.1412558668  TIP3      4043            0.0000000000
     34449      4235  TIP3      H2              2.8194579179      -28.0870488152      -24.0820994013  TIP3      4043            0.0000000000
     34450      4236  TIP3      OH2             7.6558775914      -26.9369587576      -39.9394232217  TIP3      4044            0.0000000000
     34451      4236  TIP3      H1              7.1398579726      -27.4573522408      -39.3052090674  TIP3      4044            0.0000000000
     34452      4236  TIP3      H2              7.9547751676      -27.6283706123      -40.5627978551  TIP3      4044            0.0000000000
     34453      4237  TIP3      OH2             6.9200180244      -29.1553469660      -27.6496414864  TIP3      4045            0.0000000000
     34454      4237  TIP3      H1              6.3380319175      -28.4355525689      -27.3586498748  TIP3      4045            0.0000000000
     34455      4237  TIP3      H2              7.3100719920      -28.7751158900      -28.4580726251  TIP3      4045            0.0000000000
     34456      4238  TIP3      OH2             8.7124711349      -28.7342429219      -41.7007413019  TIP3      4046            0.0000000000
     34457      4238  TIP3      H1              8.4906320390      -28.9133328729      -42.6305516735  TIP3      4046            0.0000000000
     34458      4238  TIP3      H2              9.6753312170      -28.6162833378      -41.5040739349  TIP3      4046            0.0000000000
     34459      4239  TIP3      OH2            11.9929970005      -26.5519101708      -24.2362456108  TIP3      4047            0.0000000000
     34460      4239  TIP3      H1             12.9381796713      -26.6020783167      -24.4756234152  TIP3      4047            0.0000000000
     34461      4239  TIP3      H2             11.8026582033      -27.3716506782      -23.7816154402  TIP3      4047            0.0000000000
     34462      4240  TIP3      OH2            17.9680398850      -26.2825623608       42.7576441395  TIP3      4048            0.0000000000
     34463      4240  TIP3      H1             17.8238737422      -26.7493270148       41.9196006744  TIP3      4048            0.0000000000
     34464      4240  TIP3      H2             18.1325956299      -25.3679793110       42.5034366567  TIP3      4048            0.0000000000
     34465      4241  TIP3      OH2             7.3375968195      -31.7663474744      -26.6011407630  TIP3      4049            0.0000000000
     34466      4241  TIP3      H1              7.4382322656      -32.4671057024      -27.2625583012  TIP3      4049            0.0000000000
     34467      4241  TIP3      H2              7.2612936176      -30.9478720100      -27.1306701733  TIP3      4049            0.0000000000
     34468      4242  TIP3      OH2             7.7427059046      -33.3664477193      -29.0391280235  TIP3      4050            0.0000000000
     34469      4242  TIP3      H1              8.2468155486      -32.8923736142      -29.7415474628  TIP3      4050            0.0000000000
     34470      4242  TIP3      H2              6.8410412174      -33.4764999371      -29.4258949344  TIP3      4050            0.0000000000
     34471      4243  TIP3      OH2             9.2719044528      -27.8865664366      -28.8080787627  TIP3      4051            0.0000000000
     34472      4243  TIP3      H1             10.0314759551      -28.0492812521      -29.3742969190  TIP3      4051            0.0000000000
     34473      4243  TIP3      H2              8.9061863750      -27.0506035257      -29.1379249201  TIP3      4051            0.0000000000
     34474      4244  TIP3      OH2            14.9731444209      -27.3528515975      -25.7422660897  TIP3      4052            0.0000000000
     34475      4244  TIP3      H1             14.7746399376      -26.5857568826      -26.3059056746  TIP3      4052            0.0000000000
     34476      4244  TIP3      H2             15.9471657285      -27.3492146527      -25.8152775479  TIP3      4052            0.0000000000
     34477      4245  TIP3      OH2             5.7399153404      -30.4426048952      -24.7512666593  TIP3      4053            0.0000000000
     34478      4245  TIP3      H1              5.0408403922      -31.1096082596      -24.7893003504  TIP3      4053            0.0000000000
     34479      4245  TIP3      H2              6.4466027560      -30.8925619907      -25.2486283317  TIP3      4053            0.0000000000
     34480      4246  TIP3      OH2             8.4401064713      -35.7957160309      -28.4639529760  TIP3      4054            0.0000000000
     34481      4246  TIP3      H1              8.3476193323      -34.8399725454      -28.7068407354  TIP3      4054            0.0000000000
     34482      4246  TIP3      H2              7.7904683800      -36.1830647735      -29.0728063563  TIP3      4054            0.0000000000
     34483      4247  TIP3      OH2             9.7758753691      -31.6512647028      -25.0461682021  TIP3      4055            0.0000000000
     34484      4247  TIP3      H1              9.4595137281      -31.8318928454      -24.1430194572  TIP3      4055            0.0000000000
     34485      4247  TIP3      H2              8.9554497033      -31.8110178557      -25.5679765770  TIP3      4055            0.0000000000
     34486      4248  TIP3      OH2            12.4938062028      -32.4388960997      -25.9274700343  TIP3      4056            0.0000000000
     34487      4248  TIP3      H1             11.5188999010      -32.4236853056      -25.8369106829  TIP3      4056            0.0000000000
     34488      4248  TIP3      H2             12.7258112401      -33.1463970149      -25.3169202305  TIP3      4056            0.0000000000
     34489      4249  TIP3      OH2             3.8322366236      -32.6111066437      -24.9909216460  TIP3      4057            0.0000000000
     34490      4249  TIP3      H1              4.1973028452      -33.3146602854      -25.5484936424  TIP3      4057            0.0000000000
     34491      4249  TIP3      H2              3.9393634299      -32.9903247515      -24.1019697541  TIP3      4057            0.0000000000
     34492      4250  TIP3      OH2             8.7190434485       36.8076670500      -25.9314905192  TIP3      4058            0.0000000000
     34493      4250  TIP3      H1              9.4376813372       36.1829388522      -25.9468369387  TIP3      4058            0.0000000000
     34494      4250  TIP3      H2              8.6206208260       37.0999942927      -26.8659853290  TIP3      4058            0.0000000000
     34495      4251  TIP3      OH2             8.5601656186      -18.0284186667      -40.7320702743  TIP3      4059            0.0000000000
     34496      4251  TIP3      H1              9.5323132776      -17.9321972254      -40.5994273688  TIP3      4059            0.0000000000
     34497      4251  TIP3      H2              8.3972413712      -17.3550486246      -41.3915008207  TIP3      4059            0.0000000000
     34498      4252  TIP3      OH2             2.1353505459      -23.4383311949      -41.1792531733  TIP3      4060            0.0000000000
     34499      4252  TIP3      H1              3.0981825171      -23.3441951043      -40.9842224753  TIP3      4060            0.0000000000
     34500      4252  TIP3      H2              2.1617763633      -24.0107718574      -41.9542867568  TIP3      4060            0.0000000000
     34501      4253  TIP3      OH2             0.8962398011      -18.0656184936      -36.2309135045  TIP3      4061            0.0000000000
     34502      4253  TIP3      H1              0.1783965013      -18.5526940903      -36.6923774385  TIP3      4061            0.0000000000
     34503      4253  TIP3      H2              1.1774142891      -18.7191520326      -35.5656141198  TIP3      4061            0.0000000000
     34504      4254  TIP3      OH2             1.7213295877      -19.9263818612      -34.3501840481  TIP3      4062            0.0000000000
     34505      4254  TIP3      H1              1.3655037702      -20.8035334340      -34.1476689313  TIP3      4062            0.0000000000
     34506      4254  TIP3      H2              1.9487352255      -19.5953630692      -33.4670578519  TIP3      4062            0.0000000000
     34507      4255  TIP3      OH2            19.2692690433      -19.1522011520      -31.4384578835  TIP3      4063            0.0000000000
     34508      4255  TIP3      H1             19.2781088814      -18.9679372307      -30.4778090601  TIP3      4063            0.0000000000
     34509      4255  TIP3      H2             19.9571199435      -18.5344224737      -31.7111445512  TIP3      4063            0.0000000000
     34510      4256  TIP3      OH2            18.8252959301      -19.5486510731      -28.4964476385  TIP3      4064            0.0000000000
     34511      4256  TIP3      H1             18.3684204216      -20.3278498259      -28.8636564208  TIP3      4064            0.0000000000
     34512      4256  TIP3      H2             19.3205956738      -19.9435589692      -27.7595990192  TIP3      4064            0.0000000000
     34513      4257  TIP3      OH2            17.3240141881      -23.7982987820      -23.7924388595  TIP3      4065            0.0000000000
     34514      4257  TIP3      H1             16.4149903313      -23.8928969141      -23.4601517145  TIP3      4065            0.0000000000
     34515      4257  TIP3      H2             17.6108810603      -22.9627560271      -23.3869634997  TIP3      4065            0.0000000000
     34516      4258  TIP3      OH2            18.6464655840      -25.5168369316      -38.4062705884  TIP3      4066            0.0000000000
     34517      4258  TIP3      H1             19.4732482361      -25.0836730477      -38.1529935556  TIP3      4066            0.0000000000
     34518      4258  TIP3      H2             18.5596030500      -26.1864340836      -37.6962395395  TIP3      4066            0.0000000000
     34519      4259  TIP3      OH2            18.9679908461      -27.4357712095      -36.4952665190  TIP3      4067            0.0000000000
     34520      4259  TIP3      H1             18.2026697939      -27.8879380588      -36.0800061684  TIP3      4067            0.0000000000
     34521      4259  TIP3      H2             19.5521782598      -27.2705186064      -35.7296903803  TIP3      4067            0.0000000000
     34522      4260  TIP3      OH2            18.7072188394      -24.7236931500      -31.5109023161  TIP3      4068            0.0000000000
     34523      4260  TIP3      H1             19.5240423941      -25.0961589068      -31.8868683010  TIP3      4068            0.0000000000
     34524      4260  TIP3      H2             18.8546993307      -23.7680499009      -31.6698702070  TIP3      4068            0.0000000000
     34525      4261  TIP3      OH2            17.2578390160      -21.8210639523      -29.2359498105  TIP3      4069            0.0000000000
     34526      4261  TIP3      H1             16.5742865787      -21.4624885037      -28.6526083025  TIP3      4069            0.0000000000
     34527      4261  TIP3      H2             16.7144332124      -22.2098673590      -29.9530384245  TIP3      4069            0.0000000000
     34528      4262  TIP3      OH2            19.1830851811      -27.6222680902      -40.0984278312  TIP3      4070            0.0000000000
     34529      4262  TIP3      H1             18.6480674787      -27.2061041658      -40.8059130994  TIP3      4070            0.0000000000
     34530      4262  TIP3      H2             19.1889546363      -26.8826330234      -39.4479381668  TIP3      4070            0.0000000000
     34531      4263  TIP3      OH2            17.2398182633      -30.3139856671      -41.5873459214  TIP3      4071            0.0000000000
     34532      4263  TIP3      H1             17.7048783694      -29.7016970841      -42.1911250274  TIP3      4071            0.0000000000
     34533      4263  TIP3      H2             17.4296355805      -31.1478073163      -42.0770585697  TIP3      4071            0.0000000000
     34534      4264  TIP3      OH2            16.7781197222      -28.9749960833      -35.9240566806  TIP3      4072            0.0000000000
     34535      4264  TIP3      H1             16.6085057214      -29.9175403818      -35.9066508880  TIP3      4072            0.0000000000
     34536      4264  TIP3      H2             16.4598094260      -28.7077838956      -35.0364535815  TIP3      4072            0.0000000000
     34537      4265  TIP3      OH2             1.7810229381      -26.8492802734      -31.8598779623  TIP3      4073            0.0000000000
     34538      4265  TIP3      H1              1.9557568372      -26.9316682150      -32.8234755982  TIP3      4073            0.0000000000
     34539      4265  TIP3      H2              2.6744571321      -27.0306683907      -31.5077124357  TIP3      4073            0.0000000000
     34540      4266  TIP3      OH2            17.6200938234      -26.9836525556      -26.2840236506  TIP3      4074            0.0000000000
     34541      4266  TIP3      H1             18.2337659916      -27.7065858537      -26.0608954570  TIP3      4074            0.0000000000
     34542      4266  TIP3      H2             18.1914139082      -26.1967058983      -26.2177088365  TIP3      4074            0.0000000000
     34543      4267  TIP3      OH2            19.1537996033      -29.0841577991      -25.6081436992  TIP3      4075            0.0000000000
     34544      4267  TIP3      H1             18.2502065763      -29.4570866209      -25.7329616057  TIP3      4075            0.0000000000
     34545      4267  TIP3      H2             19.6940602534      -29.8826632535      -25.6962587964  TIP3      4075            0.0000000000
     34546      4268  TIP3      OH2            16.8372363245      -32.8706138104      -42.3920855474  TIP3      4076            0.0000000000
     34547      4268  TIP3      H1             17.4683914721      -33.3950785387      -41.8587183342  TIP3      4076            0.0000000000
     34548      4268  TIP3      H2             15.9776501326      -33.3143053353      -42.2931585812  TIP3      4076            0.0000000000
     34549      4269  TIP3      OH2            16.4594935960      -31.3618827946      -37.5157643127  TIP3      4077            0.0000000000
     34550      4269  TIP3      H1             16.7251425901      -32.2807725880      -37.2620922091  TIP3      4077            0.0000000000
     34551      4269  TIP3      H2             17.3137585366      -30.9244797365      -37.6051319027  TIP3      4077            0.0000000000
     34552      4270  TIP3      OH2            17.0819514042      -30.7894823299      -32.0264166689  TIP3      4078            0.0000000000
     34553      4270  TIP3      H1             18.0460881063      -30.5773124905      -32.0326743716  TIP3      4078            0.0000000000
     34554      4270  TIP3      H2             16.8946230036      -30.6784691771      -31.0803933413  TIP3      4078            0.0000000000
     34555      4271  TIP3      OH2            17.1374680625      -30.0649573830      -29.2720269450  TIP3      4079            0.0000000000
     34556      4271  TIP3      H1             16.2784211484      -29.7906147877      -28.8859094783  TIP3      4079            0.0000000000
     34557      4271  TIP3      H2             17.5822404103      -29.2072329830      -29.4549718583  TIP3      4079            0.0000000000
     34558      4272  TIP3      OH2             1.3942234142      -31.5842321187      -25.7509060970  TIP3      4080            0.0000000000
     34559      4272  TIP3      H1              2.3446231754      -31.7707469518      -25.5775643721  TIP3      4080            0.0000000000
     34560      4272  TIP3      H2              0.9886545587      -32.3694319545      -25.4128589883  TIP3      4080            0.0000000000
     34561      4273  TIP3      OH2            19.4496412284      -36.0672609377      -23.9061089812  TIP3      4081            0.0000000000
     34562      4273  TIP3      H1             19.7349200188      -36.7090341109      -24.5617826834  TIP3      4081            0.0000000000
     34563      4273  TIP3      H2             19.4907773248      -35.2165355627      -24.3770074409  TIP3      4081            0.0000000000
     34564      4274  TIP3      OH2            17.1050984460      -34.0623275675      -37.4333104879  TIP3      4082            0.0000000000
     34565      4274  TIP3      H1             17.3175835126      -34.5150876919      -36.5818157407  TIP3      4082            0.0000000000
     34566      4274  TIP3      H2             16.5262374191      -34.7435530776      -37.8583438068  TIP3      4082            0.0000000000
     34567      4275  TIP3      OH2             2.5546361826      -33.2311587392      -32.8596257189  TIP3      4083            0.0000000000
     34568      4275  TIP3      H1              3.0230390848      -34.0578833833      -32.6067184199  TIP3      4083            0.0000000000
     34569      4275  TIP3      H2              3.1455769272      -32.5755623577      -32.4735152209  TIP3      4083            0.0000000000
     34570      4276  TIP3      OH2             0.8802364509      -30.2578815133      -31.8217240978  TIP3      4084            0.0000000000
     34571      4276  TIP3      H1              1.4441754904      -30.5117793315      -32.5810199554  TIP3      4084            0.0000000000
     34572      4276  TIP3      H2              1.3495751945      -29.4542329085      -31.5538872439  TIP3      4084            0.0000000000
     34573      4277  TIP3      OH2            18.9431161196      -33.9472673706      -25.5703153268  TIP3      4085            0.0000000000
     34574      4277  TIP3      H1             18.0115390138      -33.6865247459      -25.6472746208  TIP3      4085            0.0000000000
     34575      4277  TIP3      H2             19.0002320926      -34.5294493875      -26.3493257883  TIP3      4085            0.0000000000
     34576      4278  TIP3      OH2            18.9246727593      -33.9418055320      -40.9158543936  TIP3      4086            0.0000000000
     34577      4278  TIP3      H1             19.3512944110      -34.7461950997      -41.3076832476  TIP3      4086            0.0000000000
     34578      4278  TIP3      H2             19.7151510338      -33.3839167455      -40.8634656513  TIP3      4086            0.0000000000
     34579      4279  TIP3      OH2             1.2825940016      -34.0438276557      -37.7619879032  TIP3      4087            0.0000000000
     34580      4279  TIP3      H1              0.3309547975      -33.8451790423      -37.8516739471  TIP3      4087            0.0000000000
     34581      4279  TIP3      H2              1.6552996420      -33.5050321650      -38.4810001811  TIP3      4087            0.0000000000
     34582      4280  TIP3      OH2            15.9775671303      -19.0501202727      -35.7911004178  TIP3      4088            0.0000000000
     34583      4280  TIP3      H1             16.6623899643      -19.3532420370      -36.4151471313  TIP3      4088            0.0000000000
     34584      4280  TIP3      H2             16.4939273103      -18.5506953141      -35.1418896952  TIP3      4088            0.0000000000
     34585      4281  TIP3      OH2             1.1927790203      -35.3136563651      -29.4513287759  TIP3      4089            0.0000000000
     34586      4281  TIP3      H1              0.5357327319      -35.5057310212      -28.7710609123  TIP3      4089            0.0000000000
     34587      4281  TIP3      H2              0.7260829313      -34.6748768164      -30.0140046754  TIP3      4089            0.0000000000
     34588      4282  TIP3      OH2             3.4249335946      -22.1245099577      -25.2586628964  TIP3      4090            0.0000000000
     34589      4282  TIP3      H1              2.5865330435      -21.9379164730      -25.7144327980  TIP3      4090            0.0000000000
     34590      4282  TIP3      H2              3.1441626060      -22.1985756761      -24.3357158689  TIP3      4090            0.0000000000
     34591      4283  TIP3      OH2             6.3221910083      -21.1434716002      -29.0233915731  TIP3      4091            0.0000000000
     34592      4283  TIP3      H1              6.0013266896      -20.2689757994      -29.2878067551  TIP3      4091            0.0000000000
     34593      4283  TIP3      H2              7.2557161239      -21.0571369347      -29.3145988660  TIP3      4091            0.0000000000
     34594      4284  TIP3      OH2            10.6640339407      -19.7109057797      -26.0888006559  TIP3      4092            0.0000000000
     34595      4284  TIP3      H1             10.8631383049      -20.0617010842      -25.2038102159  TIP3      4092            0.0000000000
     34596      4284  TIP3      H2             11.5567468571      -19.4077366800      -26.3561490229  TIP3      4092            0.0000000000
     34597      4285  TIP3      OH2            12.9489028599      -18.4304043767      -26.7750192227  TIP3      4093            0.0000000000
     34598      4285  TIP3      H1             13.6547740062      -19.0418013821      -27.0317039926  TIP3      4093            0.0000000000
     34599      4285  TIP3      H2             13.3117580391      -18.0285702904      -25.9606503362  TIP3      4093            0.0000000000
     34600      4286  TIP3      OH2            17.9672655606      -35.8040615218      -27.7171306580  TIP3      4094            0.0000000000
     34601      4286  TIP3      H1             17.1363421815      -35.4949272375      -28.0981459480  TIP3      4094            0.0000000000
     34602      4286  TIP3      H2             18.1309608735      -36.6326785507      -28.2098763858  TIP3      4094            0.0000000000
     34603      4287  TIP3      OH2             3.7509122055      -17.9096593936      -29.0388129330  TIP3      4095            0.0000000000
     34604      4287  TIP3      H1              3.0224794344      -17.3961680265      -29.4227268942  TIP3      4095            0.0000000000
     34605      4287  TIP3      H2              3.4405642966      -18.0842854871      -28.1409134604  TIP3      4095            0.0000000000
     34606      4288  TIP3      OH2             6.2246306727      -18.3239473950      -29.9578491123  TIP3      4096            0.0000000000
     34607      4288  TIP3      H1              5.3389107810      -18.1654101411      -29.5506749739  TIP3      4096            0.0000000000
     34608      4288  TIP3      H2              6.1670804729      -17.7334638057      -30.7294449916  TIP3      4096            0.0000000000
     34609      4289  TIP3      OH2            10.9305445642      -18.4177331233      -30.7691823958  TIP3      4097            0.0000000000
     34610      4289  TIP3      H1             10.4726959356      -17.8595734287      -31.4189952544  TIP3      4097            0.0000000000
     34611      4289  TIP3      H2             11.0591502555      -17.7844916443      -30.0312078329  TIP3      4097            0.0000000000
     34612      4290  TIP3      OH2            13.2122600898      -19.6118730859      -29.7379808918  TIP3      4098            0.0000000000
     34613      4290  TIP3      H1             12.3660103802      -19.3268049778      -30.1182794596  TIP3      4098            0.0000000000
     34614      4290  TIP3      H2             13.7061426601      -18.7782608882      -29.8292703291  TIP3      4098            0.0000000000
     34615      4291  TIP3      OH2            15.7457969515      -18.0492975763      -29.5567057844  TIP3      4099            0.0000000000
     34616      4291  TIP3      H1             15.7709608397      -17.0799640353      -29.7506635808  TIP3      4099            0.0000000000
     34617      4291  TIP3      H2             16.0214017637      -18.4144051991      -30.4164511867  TIP3      4099            0.0000000000
     34618      4292  TIP3      OH2             3.2211104874      -19.2561038742      -32.0749856539  TIP3      4100            0.0000000000
     34619      4292  TIP3      H1              3.1316999766      -19.7132787284      -31.2105402526  TIP3      4100            0.0000000000
     34620      4292  TIP3      H2              4.0352314269      -19.6384249749      -32.4617731834  TIP3      4100            0.0000000000
     34621      4293  TIP3      OH2             5.2946751738      -20.5444438222      -33.4228555383  TIP3      4101            0.0000000000
     34622      4293  TIP3      H1              5.1309319696      -21.4778771196      -33.1861564255  TIP3      4101            0.0000000000
     34623      4293  TIP3      H2              6.1514513583      -20.3881177728      -32.9735987859  TIP3      4101            0.0000000000
     34624      4294  TIP3      OH2             7.9048149510      -20.0555026658      -32.5412169078  TIP3      4102            0.0000000000
     34625      4294  TIP3      H1              8.0529667411      -20.9818920788      -32.8052563676  TIP3      4102            0.0000000000
     34626      4294  TIP3      H2              7.9432480562      -20.1138608744      -31.5758408863  TIP3      4102            0.0000000000
     34627      4295  TIP3      OH2            11.3223086368      -34.3151837483      -33.4416353202  TIP3      4103            0.0000000000
     34628      4295  TIP3      H1             10.6987336646      -35.0060570508      -33.1292614772  TIP3      4103            0.0000000000
     34629      4295  TIP3      H2             11.9491754047      -34.8657962564      -33.9285837737  TIP3      4103            0.0000000000
     34630      4296  TIP3      OH2            16.4702301877      -36.3305069727      -33.3203309898  TIP3      4104            0.0000000000
     34631      4296  TIP3      H1             17.0857599174      -35.7975659218      -33.8702184657  TIP3      4104            0.0000000000
     34632      4296  TIP3      H2             15.6000205882      -36.0001361497      -33.5669358844  TIP3      4104            0.0000000000
     34633      4297  TIP3      OH2            18.1756623710      -35.0832937760      -35.0991257390  TIP3      4105            0.0000000000
     34634      4297  TIP3      H1             18.8533434911      -35.6897281192      -35.4482600570  TIP3      4105            0.0000000000
     34635      4297  TIP3      H2             18.6870012227      -34.2644978668      -34.9458364072  TIP3      4105            0.0000000000
     34636      4298  TIP3      OH2             3.7669671139      -35.7400516838      -35.6965577706  TIP3      4106            0.0000000000
     34637      4298  TIP3      H1              2.8871239013      -35.9904033463      -36.0369269678  TIP3      4106            0.0000000000
     34638      4298  TIP3      H2              4.1196211166      -36.6235814856      -35.5030377455  TIP3      4106            0.0000000000
     34639      4299  TIP3      OH2             2.2079565425      -35.5526998387      -40.4026954391  TIP3      4107            0.0000000000
     34640      4299  TIP3      H1              3.0782041310      -35.1238971524      -40.5065231240  TIP3      4107            0.0000000000
     34641      4299  TIP3      H2              1.9457872653      -35.3290410707      -39.4964678003  TIP3      4107            0.0000000000
     34642      4300  TIP3      OH2             8.4612267057      -35.4234745627      -35.4268629215  TIP3      4108            0.0000000000
     34643      4300  TIP3      H1              9.4003155797      -35.4508251543      -35.6845497218  TIP3      4108            0.0000000000
     34644      4300  TIP3      H2              8.3577915439      -36.1016476490      -34.7557987463  TIP3      4108            0.0000000000
     34645      4301  TIP3      OH2            13.7081400362      -35.5908768434      -34.1103818576  TIP3      4109            0.0000000000
     34646      4301  TIP3      H1             13.8454135292      -35.5922916537      -35.0591802687  TIP3      4109            0.0000000000
     34647      4301  TIP3      H2             13.6068388431      -36.5610790664      -33.9699864492  TIP3      4109            0.0000000000
     34648      4302  TIP3      OH2            15.1665046882      -35.7606562362      -38.4020662714  TIP3      4110            0.0000000000
     34649      4302  TIP3      H1             14.4180931014      -35.2040403998      -38.6600709668  TIP3      4110            0.0000000000
     34650      4302  TIP3      H2             14.7833938381      -36.6459234879      -38.3432981113  TIP3      4110            0.0000000000
     34651      4303  TIP3      OH2             2.4073559132      -20.0683909889      -38.8198083781  TIP3      4111            0.0000000000
     34652      4303  TIP3      H1              1.7302520235      -20.0733325802      -39.5238625440  TIP3      4111            0.0000000000
     34653      4303  TIP3      H2              2.4388107743      -19.1153922910      -38.6693858718  TIP3      4111            0.0000000000
     34654      4304  TIP3      OH2             4.3239740484      -34.1305090254      -41.3412213305  TIP3      4112            0.0000000000
     34655      4304  TIP3      H1              4.8526293798      -34.6835194919      -41.9104502866  TIP3      4112            0.0000000000
     34656      4304  TIP3      H2              4.9761000033      -33.7452077661      -40.7316807149  TIP3      4112            0.0000000000
     34657      4305  TIP3      OH2             9.2545770620      -33.8766732551      -38.8791387453  TIP3      4113            0.0000000000
     34658      4305  TIP3      H1              9.6721902851      -34.3881649488      -38.1687333589  TIP3      4113            0.0000000000
     34659      4305  TIP3      H2              9.4015387510      -32.9867873849      -38.4767228516  TIP3      4113            0.0000000000
     34660      4306  TIP3      OH2            11.2367303391      -18.4671661991      -40.4668047586  TIP3      4114            0.0000000000
     34661      4306  TIP3      H1             12.2033058246      -18.4963595150      -40.6050824355  TIP3      4114            0.0000000000
     34662      4306  TIP3      H2             11.0685310428      -19.2168607084      -41.0917607484  TIP3      4114            0.0000000000
     34663      4307  TIP3      OH2            17.9698559102      -19.2673562876      -37.7575776543  TIP3      4115            0.0000000000
     34664      4307  TIP3      H1             17.7728737228      -20.0480466330      -38.3320546841  TIP3      4115            0.0000000000
     34665      4307  TIP3      H2             17.8839660820      -18.5346900423      -38.3971911572  TIP3      4115            0.0000000000
     34666      4308  TIP3      OH2             3.4591726609      -35.2284078465      -26.1412883664  TIP3      4116            0.0000000000
     34667      4308  TIP3      H1              3.2287480498      -36.0367251658      -25.6823690355  TIP3      4116            0.0000000000
     34668      4308  TIP3      H2              4.4020037699      -35.2382637871      -25.8199288806  TIP3      4116            0.0000000000
     34669      4309  TIP3      OH2             5.4285090542      -35.7027683116      -24.6716941419  TIP3      4117            0.0000000000
     34670      4309  TIP3      H1              6.3757340974      -35.8904824090      -24.6964890466  TIP3      4117            0.0000000000
     34671      4309  TIP3      H2              5.2352112246      -36.4622978471      -24.0941597364  TIP3      4117            0.0000000000
     34672      4310  TIP3      OH2             4.2337375849      -19.0911760891      -41.8614122713  TIP3      4118            0.0000000000
     34673      4310  TIP3      H1              3.9268034388      -18.8262393886      -40.9859231013  TIP3      4118            0.0000000000
     34674      4310  TIP3      H2              4.9907113990      -19.6504604536      -41.6917222959  TIP3      4118            0.0000000000
     34675      4311  TIP3      OH2            13.9508690308       37.1927303575      -24.3429707493  TIP3      4119            0.0000000000
     34676      4311  TIP3      H1             14.0054146183       36.5310583955      -23.6244348267  TIP3      4119            0.0000000000
     34677      4311  TIP3      H2             14.7975210409       36.9286754661      -24.7325425869  TIP3      4119            0.0000000000
     34678      4312  TIP3      OH2            17.2008182114      -20.5320466549      -25.6206693215  TIP3      4120            0.0000000000
     34679      4312  TIP3      H1             16.4218109205      -20.6641961691      -26.2024839880  TIP3      4120            0.0000000000
     34680      4312  TIP3      H2             17.1294775830      -19.5701712698      -25.4768983723  TIP3      4120            0.0000000000
     34681      4313  TIP3      OH2            31.6603888823      -26.6603211801      -35.7062500407  TIP3      4121            0.0000000000
     34682      4313  TIP3      H1             31.6549442372      -25.6786602380      -35.7387096135  TIP3      4121            0.0000000000
     34683      4313  TIP3      H2             30.9306883905      -26.8790357214      -36.3061247971  TIP3      4121            0.0000000000
     34684      4314  TIP3      OH2            30.5228744557      -27.3929304876      -32.2124483467  TIP3      4122            0.0000000000
     34685      4314  TIP3      H1             30.5022874031      -28.0340199366      -31.4829732416  TIP3      4122            0.0000000000
     34686      4314  TIP3      H2             30.1731638320      -27.9060247329      -32.9584860624  TIP3      4122            0.0000000000
     34687      4315  TIP3      OH2            22.8649220489      -27.7132291920      -30.6456280589  TIP3      4123            0.0000000000
     34688      4315  TIP3      H1             22.9540778234      -28.4017023152      -29.9571254610  TIP3      4123            0.0000000000
     34689      4315  TIP3      H2             23.6187719179      -27.1425285416      -30.4272444693  TIP3      4123            0.0000000000
     34690      4316  TIP3      OH2            34.2187034892      -24.4661689618      -33.8964287240  TIP3      4124            0.0000000000
     34691      4316  TIP3      H1             33.7938305417      -25.1719571051      -33.4025189607  TIP3      4124            0.0000000000
     34692      4316  TIP3      H2             34.2838353188      -23.7688534109      -33.2249498524  TIP3      4124            0.0000000000
     34693      4317  TIP3      OH2            23.7966326816      -23.2569470979      -32.1623183874  TIP3      4125            0.0000000000
     34694      4317  TIP3      H1             23.4884061419      -24.1331269267      -32.4649049621  TIP3      4125            0.0000000000
     34695      4317  TIP3      H2             24.7513803466      -23.4421532038      -32.1061596653  TIP3      4125            0.0000000000
     34696      4318  TIP3      OH2            20.4438678281      -29.7168808806      -36.6614802857  TIP3      4126            0.0000000000
     34697      4318  TIP3      H1             20.0310848856      -28.8273748899      -36.7047080162  TIP3      4126            0.0000000000
     34698      4318  TIP3      H2             19.8750140038      -30.2417273220      -37.2318181584  TIP3      4126            0.0000000000
     34699      4319  TIP3      OH2            21.1504655846      -27.4707837637      -34.5056627126  TIP3      4127            0.0000000000
     34700      4319  TIP3      H1             21.4244155862      -28.2972237888      -34.0589154960  TIP3      4127            0.0000000000
     34701      4319  TIP3      H2             21.8388140753      -27.3726781077      -35.1794529708  TIP3      4127            0.0000000000
     34702      4320  TIP3      OH2            31.3511017412      -19.2720105313      -33.6835340989  TIP3      4128            0.0000000000
     34703      4320  TIP3      H1             31.9841907745      -19.9760887314      -33.9714480704  TIP3      4128            0.0000000000
     34704      4320  TIP3      H2             31.1092246991      -19.6233595354      -32.8242553888  TIP3      4128            0.0000000000
     34705      4321  TIP3      OH2            28.8938697336      -24.9962897910      -31.7223119075  TIP3      4129            0.0000000000
     34706      4321  TIP3      H1             29.2298533076      -25.6159618279      -32.3875888520  TIP3      4129            0.0000000000
     34707      4321  TIP3      H2             29.7076660150      -24.8318565872      -31.2149517353  TIP3      4129            0.0000000000
     34708      4322  TIP3      OH2            32.0459229809      -30.5255029075      -31.4098724190  TIP3      4130            0.0000000000
     34709      4322  TIP3      H1             32.2346159113      -31.4885876370      -31.4102605778  TIP3      4130            0.0000000000
     34710      4322  TIP3      H2             31.9545967763      -30.3811836290      -32.3717669939  TIP3      4130            0.0000000000
     34711      4323  TIP3      OH2            25.1742149228      -32.3956115902      -34.1969372639  TIP3      4131            0.0000000000
     34712      4323  TIP3      H1             25.2912616924      -31.5733610693      -34.7124027503  TIP3      4131            0.0000000000
     34713      4323  TIP3      H2             24.7790811293      -32.9915145921      -34.8690228120  TIP3      4131            0.0000000000
     34714      4324  TIP3      OH2            32.9217533235      -32.3448190752      -35.8253959611  TIP3      4132            0.0000000000
     34715      4324  TIP3      H1             33.5755526415      -32.6640462336      -35.1553429072  TIP3      4132            0.0000000000
     34716      4324  TIP3      H2             33.4762178564      -31.7849512336      -36.3836248911  TIP3      4132            0.0000000000
     34717      4325  TIP3      OH2            21.7923570083      -30.0239497291      -33.4554912615  TIP3      4133            0.0000000000
     34718      4325  TIP3      H1             22.4686456726      -30.5663946118      -33.0088590714  TIP3      4133            0.0000000000
     34719      4325  TIP3      H2             21.8993942088      -30.3305085990      -34.3713163172  TIP3      4133            0.0000000000
     34720      4326  TIP3      OH2            26.9479203310      -28.4649364684      -34.1435548821  TIP3      4134            0.0000000000
     34721      4326  TIP3      H1             27.6267026541      -29.0451955013      -33.7561321920  TIP3      4134            0.0000000000
     34722      4326  TIP3      H2             26.4399333089      -29.1188963899      -34.6603656421  TIP3      4134            0.0000000000
     34723      4327  TIP3      OH2            24.0946429731      -33.4941459324      -30.1356957531  TIP3      4135            0.0000000000
     34724      4327  TIP3      H1             23.7895396104      -32.9702471767      -30.9063587207  TIP3      4135            0.0000000000
     34725      4327  TIP3      H2             23.3878552826      -33.2964672272      -29.4778116210  TIP3      4135            0.0000000000
     34726      4328  TIP3      OH2            31.3429922536      -24.0684261305      -36.6135064926  TIP3      4136            0.0000000000
     34727      4328  TIP3      H1             31.1080011027      -24.3169182311      -37.5220236917  TIP3      4136            0.0000000000
     34728      4328  TIP3      H2             31.0627988111      -23.1280605199      -36.5664096389  TIP3      4136            0.0000000000
     34729      4329  TIP3      OH2            26.5962877166      -25.8910833104      -29.9248472859  TIP3      4137            0.0000000000
     34730      4329  TIP3      H1             25.8939223852      -25.2453561641      -29.7017870041  TIP3      4137            0.0000000000
     34731      4329  TIP3      H2             27.3014163667      -25.2920405661      -30.2174200616  TIP3      4137            0.0000000000
     34732      4330  TIP3      OH2            34.5308303724      -33.0349485922      -33.7841985195  TIP3      4138            0.0000000000
     34733      4330  TIP3      H1             34.4537238551      -33.8204959357      -33.2470324570  TIP3      4138            0.0000000000
     34734      4330  TIP3      H2             35.2588161899      -32.5624454664      -33.3288462515  TIP3      4138            0.0000000000
     34735      4331  TIP3      OH2            23.6466764107      -31.6673200396      -32.1387542068  TIP3      4139            0.0000000000
     34736      4331  TIP3      H1             24.2821384144      -30.9940302030      -31.8098343781  TIP3      4139            0.0000000000
     34737      4331  TIP3      H2             24.1767325403      -32.0939373912      -32.8558058980  TIP3      4139            0.0000000000
     34738      4332  TIP3      OH2            25.0429055358      -23.8852064439      -29.1145130610  TIP3      4140            0.0000000000
     34739      4332  TIP3      H1             24.9931663719      -22.9674841332      -29.4391010046  TIP3      4140            0.0000000000
     34740      4332  TIP3      H2             24.1697398165      -23.9637738428      -28.6536514689  TIP3      4140            0.0000000000
     34741      4333  TIP3      OH2            21.1059934864      -24.2747501555      -38.3193870016  TIP3      4141            0.0000000000
     34742      4333  TIP3      H1             20.9048680677      -23.9267111976      -39.2106549409  TIP3      4141            0.0000000000
     34743      4333  TIP3      H2             21.1897886782      -23.4509523825      -37.7938579804  TIP3      4141            0.0000000000
     34744      4334  TIP3      OH2            34.6481795105      -22.6493982169      -31.4758859394  TIP3      4142            0.0000000000
     34745      4334  TIP3      H1             33.6802050168      -22.5056253456      -31.4153887588  TIP3      4142            0.0000000000
     34746      4334  TIP3      H2             34.9753315426      -21.7673441736      -31.7393966769  TIP3      4142            0.0000000000
     34747      4335  TIP3      OH2            34.9681566404      -34.1374305175      -30.1935677754  TIP3      4143            0.0000000000
     34748      4335  TIP3      H1             34.2053401478      -33.5439889248      -30.3017606504  TIP3      4143            0.0000000000
     34749      4335  TIP3      H2             35.6539885606      -33.7717626814      -30.7639070130  TIP3      4143            0.0000000000
     34750      4336  TIP3      OH2            28.3021968769      -36.0004467161      -32.7389335242  TIP3      4144            0.0000000000
     34751      4336  TIP3      H1             28.1904499395      -36.9554104990      -32.7310991948  TIP3      4144            0.0000000000
     34752      4336  TIP3      H2             27.3930916421      -35.7519035695      -32.4954778273  TIP3      4144            0.0000000000
     34753      4337  TIP3      OH2            32.9527720143      -20.8564352529      -34.9593324283  TIP3      4145            0.0000000000
     34754      4337  TIP3      H1             33.4160643998      -21.5562139088      -35.4595686629  TIP3      4145            0.0000000000
     34755      4337  TIP3      H2             33.4201636628      -20.0660456110      -35.3120013735  TIP3      4145            0.0000000000
     34756      4338  TIP3      OH2            34.1861222464      -22.9201701691      -36.4731978343  TIP3      4146            0.0000000000
     34757      4338  TIP3      H1             33.9067065359      -23.6221369870      -37.0820638346  TIP3      4146            0.0000000000
     34758      4338  TIP3      H2             34.2412452133      -23.4091034941      -35.6268533797  TIP3      4146            0.0000000000
     34759      4339  TIP3      OH2            35.5963046154      -24.1981730966      -27.8741047084  TIP3      4147            0.0000000000
     34760      4339  TIP3      H1             35.9016791420      -24.8863046262      -28.4943016941  TIP3      4147            0.0000000000
     34761      4339  TIP3      H2             36.0055153277      -23.4163815114      -28.3049127375  TIP3      4147            0.0000000000
     34762      4340  TIP3      OH2            30.3060971172      -27.4084905803      -38.2124654981  TIP3      4148            0.0000000000
     34763      4340  TIP3      H1             29.6240846342      -26.8169933510      -38.5936477396  TIP3      4148            0.0000000000
     34764      4340  TIP3      H2             31.0242946237      -27.3052452571      -38.8609131105  TIP3      4148            0.0000000000
     34765      4341  TIP3      OH2            30.3668119878      -28.8669092978      -41.1091624841  TIP3      4149            0.0000000000
     34766      4341  TIP3      H1             31.0994668734      -28.8557139358      -40.4750533212  TIP3      4149            0.0000000000
     34767      4341  TIP3      H2             30.6945902172      -29.5107431908      -41.7424341971  TIP3      4149            0.0000000000
     34768      4342  TIP3      OH2            33.7567334644      -27.1829974734      -37.2816152353  TIP3      4150            0.0000000000
     34769      4342  TIP3      H1             33.0358236414      -26.9301040215      -36.6623690298  TIP3      4150            0.0000000000
     34770      4342  TIP3      H2             34.2300423967      -27.8450753552      -36.7224454450  TIP3      4150            0.0000000000
     34771      4343  TIP3      OH2            33.6403813858      -29.0647848048      -28.1496293710  TIP3      4151            0.0000000000
     34772      4343  TIP3      H1             33.6852817630      -28.2456329390      -27.6295904241  TIP3      4151            0.0000000000
     34773      4343  TIP3      H2             33.0582172420      -28.7423357468      -28.8639583320  TIP3      4151            0.0000000000
     34774      4344  TIP3      OH2            25.3664910154      -26.5335097826      -35.3510996242  TIP3      4152            0.0000000000
     34775      4344  TIP3      H1             25.0554765424      -26.9276903982      -36.2005640229  TIP3      4152            0.0000000000
     34776      4344  TIP3      H2             25.9873988475      -27.2210851245      -35.0158130786  TIP3      4152            0.0000000000
     34777      4345  TIP3      OH2            26.6937853921      -23.1597472369      -32.6675690938  TIP3      4153            0.0000000000
     34778      4345  TIP3      H1             26.6958591275      -23.6760830168      -33.4828391568  TIP3      4153            0.0000000000
     34779      4345  TIP3      H2             27.4795246343      -23.5105780504      -32.2100560020  TIP3      4153            0.0000000000
     34780      4346  TIP3      OH2            25.7052504024      -27.7904055319      -31.6830070426  TIP3      4154            0.0000000000
     34781      4346  TIP3      H1             26.2535025154      -27.6941582602      -32.4864858693  TIP3      4154            0.0000000000
     34782      4346  TIP3      H2             26.0996474330      -27.1239644301      -31.0770051858  TIP3      4154            0.0000000000
     34783      4347  TIP3      OH2            32.0791784539      -22.2140869966      -30.9902177434  TIP3      4155            0.0000000000
     34784      4347  TIP3      H1             31.8578071792      -21.5786818601      -30.3050320521  TIP3      4155            0.0000000000
     34785      4347  TIP3      H2             31.8732732489      -23.0735316287      -30.5561822039  TIP3      4155            0.0000000000
     34786      4348  TIP3      OH2            26.6608981427      -23.3497199257      -26.9770120297  TIP3      4156            0.0000000000
     34787      4348  TIP3      H1             26.2215828745      -22.6173906881      -26.5065834314  TIP3      4156            0.0000000000
     34788      4348  TIP3      H2             25.9929788352      -23.5691697132      -27.6702906708  TIP3      4156            0.0000000000
     34789      4349  TIP3      OH2            32.6718959921      -28.0262042690      -39.6166510631  TIP3      4157            0.0000000000
     34790      4349  TIP3      H1             33.1765413867      -27.7983308534      -38.7971855891  TIP3      4157            0.0000000000
     34791      4349  TIP3      H2             33.0518316086      -27.4540681086      -40.3135543646  TIP3      4157            0.0000000000
     34792      4350  TIP3      OH2            23.6032939114      -27.1974078147      -27.8118418981  TIP3      4158            0.0000000000
     34793      4350  TIP3      H1             23.6415003591      -26.5346206005      -27.0944911877  TIP3      4158            0.0000000000
     34794      4350  TIP3      H2             22.6720858273      -27.1040296905      -28.0602435612  TIP3      4158            0.0000000000
     34795      4351  TIP3      OH2            30.3424855740      -21.2792993905      -36.1175488868  TIP3      4159            0.0000000000
     34796      4351  TIP3      H1             30.7829510525      -20.9630978333      -35.3186419514  TIP3      4159            0.0000000000
     34797      4351  TIP3      H2             29.7936362034      -20.5311089334      -36.3801279103  TIP3      4159            0.0000000000
     34798      4352  TIP3      OH2            24.9137616747      -21.3619267409      -26.2443139357  TIP3      4160            0.0000000000
     34799      4352  TIP3      H1             24.8477295058      -21.4304015695      -27.2114882846  TIP3      4160            0.0000000000
     34800      4352  TIP3      H2             23.9723326861      -21.4563080226      -25.9908184406  TIP3      4160            0.0000000000
     34801      4353  TIP3      OH2            35.9111375030      -36.2390218978      -40.0611111306  TIP3      4161            0.0000000000
     34802      4353  TIP3      H1             35.2455673140      -36.0784357858      -39.3686448991  TIP3      4161            0.0000000000
     34803      4353  TIP3      H2             36.4360092051      -35.4434913479      -40.1529052819  TIP3      4161            0.0000000000
     34804      4354  TIP3      OH2            24.3355092820      -27.5111831666      -37.7313880861  TIP3      4162            0.0000000000
     34805      4354  TIP3      H1             24.0631396331      -26.7395072526      -38.2654475681  TIP3      4162            0.0000000000
     34806      4354  TIP3      H2             23.6937760355      -28.1820656971      -37.9724287954  TIP3      4162            0.0000000000
     34807      4355  TIP3      OH2            20.4552226285      -25.0856418716      -28.8625919619  TIP3      4163            0.0000000000
     34808      4355  TIP3      H1             19.9832963069      -25.1763169617      -29.7063261077  TIP3      4163            0.0000000000
     34809      4355  TIP3      H2             20.5194974917      -26.0264997131      -28.6131122355  TIP3      4163            0.0000000000
     34810      4356  TIP3      OH2            20.1966009220      -22.3475071621      -32.0570765859  TIP3      4164            0.0000000000
     34811      4356  TIP3      H1             21.1552401746      -22.4616583099      -32.0739968831  TIP3      4164            0.0000000000
     34812      4356  TIP3      H2             20.1135361560      -21.5274610684      -31.5551123618  TIP3      4164            0.0000000000
     34813      4357  TIP3      OH2            29.4033020639      -22.1040454369      -27.4776450632  TIP3      4165            0.0000000000
     34814      4357  TIP3      H1             29.4385658171      -21.2510758128      -26.9911984980  TIP3      4165            0.0000000000
     34815      4357  TIP3      H2             28.5249906789      -22.4718043904      -27.2598011084  TIP3      4165            0.0000000000
     34816      4358  TIP3      OH2            29.8423175345      -18.3669068786      -37.7186124715  TIP3      4166            0.0000000000
     34817      4358  TIP3      H1             29.7538450435      -18.4193980122      -38.6863026369  TIP3      4166            0.0000000000
     34818      4358  TIP3      H2             29.8809504703      -17.4037002781      -37.5507884269  TIP3      4166            0.0000000000
     34819      4359  TIP3      OH2            23.4770419965      -19.4831243472      -35.8868316938  TIP3      4167            0.0000000000
     34820      4359  TIP3      H1             23.6238641690      -19.8985305252      -35.0058070678  TIP3      4167            0.0000000000
     34821      4359  TIP3      H2             22.6281415212      -19.8923321646      -36.1250941538  TIP3      4167            0.0000000000
     34822      4360  TIP3      OH2            32.9070535436      -19.1566941764      -40.7517686032  TIP3      4168            0.0000000000
     34823      4360  TIP3      H1             33.3385743100      -19.9408025947      -41.1637566469  TIP3      4168            0.0000000000
     34824      4360  TIP3      H2             32.9225884899      -19.4047388997      -39.8094096997  TIP3      4168            0.0000000000
     34825      4361  TIP3      OH2            32.5683619352      -19.2081094783      -37.9455966913  TIP3      4169            0.0000000000
     34826      4361  TIP3      H1             31.6120227369      -19.1493069834      -37.7597027629  TIP3      4169            0.0000000000
     34827      4361  TIP3      H2             32.8332069371      -19.9488369081      -37.3804964014  TIP3      4169            0.0000000000
     34828      4362  TIP3      OH2            35.2761842858      -30.0556177319      -25.8400497043  TIP3      4170            0.0000000000
     34829      4362  TIP3      H1             35.0650361566      -29.6916177654      -26.7059330209  TIP3      4170            0.0000000000
     34830      4362  TIP3      H2             35.6310008325      -30.9333364969      -26.1084045465  TIP3      4170            0.0000000000
     34831      4363  TIP3      OH2            22.7269090835      -23.7836828313      -27.8985830148  TIP3      4171            0.0000000000
     34832      4363  TIP3      H1             22.9426432506      -24.1302130216      -27.0036908076  TIP3      4171            0.0000000000
     34833      4363  TIP3      H2             21.8493054407      -24.1687092254      -28.1027922294  TIP3      4171            0.0000000000
     34834      4364  TIP3      OH2            25.3623291610      -35.1256207358      -31.8905427018  TIP3      4172            0.0000000000
     34835      4364  TIP3      H1             24.4929540901      -35.3272702247      -32.2967555578  TIP3      4172            0.0000000000
     34836      4364  TIP3      H2             25.1747503657      -34.3210275914      -31.4023903230  TIP3      4172            0.0000000000
     34837      4365  TIP3      OH2            30.0107714673      -35.6486663957      -28.5502127030  TIP3      4173            0.0000000000
     34838      4365  TIP3      H1             30.4036926405      -36.0060205671      -27.7512009571  TIP3      4173            0.0000000000
     34839      4365  TIP3      H2             29.0481753159      -35.7173607892      -28.3928849612  TIP3      4173            0.0000000000
     34840      4366  TIP3      OH2            33.2960878690      -31.8247030117      -27.7386882816  TIP3      4174            0.0000000000
     34841      4366  TIP3      H1             32.7763287792      -31.9769340240      -26.9154980578  TIP3      4174            0.0000000000
     34842      4366  TIP3      H2             33.1733706345      -30.8696254099      -27.9005445905  TIP3      4174            0.0000000000
     34843      4367  TIP3      OH2            34.2003459617      -26.9654152938      -41.7552822910  TIP3      4175            0.0000000000
     34844      4367  TIP3      H1             34.1628288090      -27.0733666423      -42.7234514439  TIP3      4175            0.0000000000
     34845      4367  TIP3      H2             35.0008580398      -26.4414510217      -41.6746186079  TIP3      4175            0.0000000000
     34846      4368  TIP3      OH2            29.7043628488      -33.0696238683      -41.2323476734  TIP3      4176            0.0000000000
     34847      4368  TIP3      H1             29.3932982501      -33.0884078690      -40.3111144375  TIP3      4176            0.0000000000
     34848      4368  TIP3      H2             29.4361727941      -33.9490378130      -41.5250661008  TIP3      4176            0.0000000000
     34849      4369  TIP3      OH2            25.5113945209      -30.3154007639      -30.6811185095  TIP3      4177            0.0000000000
     34850      4369  TIP3      H1             24.7702091955      -30.3265206437      -30.0495657424  TIP3      4177            0.0000000000
     34851      4369  TIP3      H2             25.4591173020      -29.4107328003      -31.0647094493  TIP3      4177            0.0000000000
     34852      4370  TIP3      OH2            25.4706644223      -30.2223831728      -35.8246738982  TIP3      4178            0.0000000000
     34853      4370  TIP3      H1             24.5272891672      -30.4538751756      -35.9611971447  TIP3      4178            0.0000000000
     34854      4370  TIP3      H2             25.8440087779      -30.4997308246      -36.6836947315  TIP3      4178            0.0000000000
     34855      4371  TIP3      OH2            31.0112878915      -29.7027403830      -37.0880258613  TIP3      4179            0.0000000000
     34856      4371  TIP3      H1             30.5993867490      -28.8722230680      -37.4169557747  TIP3      4179            0.0000000000
     34857      4371  TIP3      H2             31.6960152927      -29.8680573638      -37.7563500159  TIP3      4179            0.0000000000
     34858      4372  TIP3      OH2            30.0508883544      -29.4770443226      -25.6123801148  TIP3      4180            0.0000000000
     34859      4372  TIP3      H1             29.5334060982      -30.2624310366      -25.3106316850  TIP3      4180            0.0000000000
     34860      4372  TIP3      H2             30.8847576472      -29.6160899457      -25.1338519212  TIP3      4180            0.0000000000
     34861      4373  TIP3      OH2            32.0262729741      -30.1826463333      -34.1965467438  TIP3      4181            0.0000000000
     34862      4373  TIP3      H1             31.7439293374      -29.6376175861      -34.9478162838  TIP3      4181            0.0000000000
     34863      4373  TIP3      H2             32.1166244780      -31.0412185032      -34.6595274890  TIP3      4181            0.0000000000
     34864      4374  TIP3      OH2            23.1236669497      -30.0739308474      -29.0243953296  TIP3      4182            0.0000000000
     34865      4374  TIP3      H1             23.2177379884      -29.6490455879      -28.1532900086  TIP3      4182            0.0000000000
     34866      4374  TIP3      H2             22.6958398746      -30.9153000374      -28.7988207472  TIP3      4182            0.0000000000
     34867      4375  TIP3      OH2            26.6622202555      -32.4549341388      -41.8384509309  TIP3      4183            0.0000000000
     34868      4375  TIP3      H1             26.1146775961      -33.0809764829      -41.3191643085  TIP3      4183            0.0000000000
     34869      4375  TIP3      H2             26.0624120968      -32.0577888063      -42.4698225915  TIP3      4183            0.0000000000
     34870      4376  TIP3      OH2            19.7992767307      -32.9190471827      -35.0661057459  TIP3      4184            0.0000000000
     34871      4376  TIP3      H1             20.4604354637      -32.9765030237      -34.3407733864  TIP3      4184            0.0000000000
     34872      4376  TIP3      H2             20.2504282692      -33.3482220753      -35.8036264159  TIP3      4184            0.0000000000
     34873      4377  TIP3      OH2            21.0666626670      -32.2169788660      -39.6404383706  TIP3      4185            0.0000000000
     34874      4377  TIP3      H1             21.5916957629      -31.6596898611      -40.2585731551  TIP3      4185            0.0000000000
     34875      4377  TIP3      H2             20.4328367679      -31.5743116132      -39.2967668761  TIP3      4185            0.0000000000
     34876      4378  TIP3      OH2            31.2213060760      -28.6368579193      -29.6710528067  TIP3      4186            0.0000000000
     34877      4378  TIP3      H1             31.6116763908      -29.3323969245      -30.2451707760  TIP3      4186            0.0000000000
     34878      4378  TIP3      H2             30.7533945740      -29.1564122792      -28.9910096181  TIP3      4186            0.0000000000
     34879      4379  TIP3      OH2            28.0257262109      -32.6491605060      -34.8319887880  TIP3      4187            0.0000000000
     34880      4379  TIP3      H1             27.0951735847      -32.6962028090      -34.5295749388  TIP3      4187            0.0000000000
     34881      4379  TIP3      H2             28.5065633416      -32.8016984087      -34.0068793010  TIP3      4187            0.0000000000
     34882      4380  TIP3      OH2            22.8501609016      -31.1291387325      -35.9454125222  TIP3      4188            0.0000000000
     34883      4380  TIP3      H1             21.9700648554      -30.9409008367      -36.3321684904  TIP3      4188            0.0000000000
     34884      4380  TIP3      H2             23.1226867423      -31.9746683903      -36.3544397814  TIP3      4188            0.0000000000
     34885      4381  TIP3      OH2            26.4757798245      -31.0567216400      -38.3532171378  TIP3      4189            0.0000000000
     34886      4381  TIP3      H1             27.4237969691      -30.9174000677      -38.1529490020  TIP3      4189            0.0000000000
     34887      4381  TIP3      H2             26.2362189629      -30.3782977604      -39.0072924779  TIP3      4189            0.0000000000
     34888      4382  TIP3      OH2            32.3884002597      -33.4198086064      -31.5987666437  TIP3      4190            0.0000000000
     34889      4382  TIP3      H1             31.7116176692      -33.3752318361      -30.8965972892  TIP3      4190            0.0000000000
     34890      4382  TIP3      H2             31.8910115706      -33.6512368902      -32.3994834208  TIP3      4190            0.0000000000
     34891      4383  TIP3      OH2            25.1707661642      -29.8755866846      -40.7248951537  TIP3      4191            0.0000000000
     34892      4383  TIP3      H1             24.6194472885      -30.2242849857      -41.4462187477  TIP3      4191            0.0000000000
     34893      4383  TIP3      H2             25.9979821803      -29.6607812352      -41.1850014346  TIP3      4191            0.0000000000
     34894      4384  TIP3      OH2            35.5873634471      -17.7616177885      -25.2340140804  TIP3      4192            0.0000000000
     34895      4384  TIP3      H1             35.8702382535      -17.4151447420      -26.0961791912  TIP3      4192            0.0000000000
     34896      4384  TIP3      H2             36.3323168352      -17.4647451075      -24.7067509165  TIP3      4192            0.0000000000
     34897      4385  TIP3      OH2            23.2992113931      -25.2925562746      -25.6539435650  TIP3      4193            0.0000000000
     34898      4385  TIP3      H1             24.0343775996      -25.0568933927      -25.0604932600  TIP3      4193            0.0000000000
     34899      4385  TIP3      H2             22.5451565050      -25.1782521202      -25.0311921963  TIP3      4193            0.0000000000
     34900      4386  TIP3      OH2            29.3153079193      -29.9122533564      -32.9390774210  TIP3      4194            0.0000000000
     34901      4386  TIP3      H1             29.9209427813      -30.4705625479      -33.4472430886  TIP3      4194            0.0000000000
     34902      4386  TIP3      H2             29.1545902095      -30.4414691292      -32.1465519661  TIP3      4194            0.0000000000
     34903      4387  TIP3      OH2            24.3002883274      -33.7059843507      -36.4979017418  TIP3      4195            0.0000000000
     34904      4387  TIP3      H1             23.9656061244      -34.6232037484      -36.4736683831  TIP3      4195            0.0000000000
     34905      4387  TIP3      H2             25.0879112180      -33.8066078725      -37.0472050615  TIP3      4195            0.0000000000
     34906      4388  TIP3      OH2            27.9391417889      -31.5768691021      -30.5199000879  TIP3      4196            0.0000000000
     34907      4388  TIP3      H1             27.1169395453      -31.0502442884      -30.4300498462  TIP3      4196            0.0000000000
     34908      4388  TIP3      H2             28.5007815924      -31.2190912610      -29.8038130856  TIP3      4196            0.0000000000
     34909      4389  TIP3      OH2            28.5347068352      -25.3707936001      -38.7855842141  TIP3      4197            0.0000000000
     34910      4389  TIP3      H1             27.7321670360      -25.8163602902      -39.1315488079  TIP3      4197            0.0000000000
     34911      4389  TIP3      H2             28.3001867027      -25.2302145984      -37.8482549695  TIP3      4197            0.0000000000
     34912      4390  TIP3      OH2            35.5747765428      -26.0912754326      -30.0102275905  TIP3      4198            0.0000000000
     34913      4390  TIP3      H1             36.2095208250      -25.9039969735      -30.7304611890  TIP3      4198            0.0000000000
     34914      4390  TIP3      H2             34.7473539160      -26.1163457974      -30.5300672734  TIP3      4198            0.0000000000
     34915      4391  TIP3      OH2            32.3856569027      -32.5325415898      -40.6454253574  TIP3      4199            0.0000000000
     34916      4391  TIP3      H1             31.4401014262      -32.3924612044      -40.8201956551  TIP3      4199            0.0000000000
     34917      4391  TIP3      H2             32.6537138611      -31.6577519060      -40.3138241566  TIP3      4199            0.0000000000
     34918      4392  TIP3      OH2            30.0534850804      -25.0856153594      -27.5681028304  TIP3      4200            0.0000000000
     34919      4392  TIP3      H1             29.6797615600      -25.5085593469      -26.7859544810  TIP3      4200            0.0000000000
     34920      4392  TIP3      H2             29.7767129436      -24.1671056774      -27.4817930230  TIP3      4200            0.0000000000
     34921      4393  TIP3      OH2            33.0996186957      -30.6057301821      -39.0366809150  TIP3      4201            0.0000000000
     34922      4393  TIP3      H1             33.9606849019      -30.7250875755      -38.5942052741  TIP3      4201            0.0000000000
     34923      4393  TIP3      H2             33.1702507181      -29.7438480887      -39.4778412714  TIP3      4201            0.0000000000
     34924      4394  TIP3      OH2            23.6434939971      -25.9484483262      -33.0152270416  TIP3      4202            0.0000000000
     34925      4394  TIP3      H1             24.3226921149      -26.0313380194      -33.7111099488  TIP3      4202            0.0000000000
     34926      4394  TIP3      H2             23.6984282058      -26.8063471728      -32.5605741013  TIP3      4202            0.0000000000
     34927      4395  TIP3      OH2            30.6240922246      -23.8723859099      -39.7377329913  TIP3      4203            0.0000000000
     34928      4395  TIP3      H1             30.2453841035      -23.0249878460      -39.4162969702  TIP3      4203            0.0000000000
     34929      4395  TIP3      H2             29.8901200394      -24.5063775543      -39.5717909356  TIP3      4203            0.0000000000
     34930      4396  TIP3      OH2            20.6210589486      -27.5480663898      -27.7603576838  TIP3      4204            0.0000000000
     34931      4396  TIP3      H1             20.8046759525      -27.9884046419      -26.9135695340  TIP3      4204            0.0000000000
     34932      4396  TIP3      H2             19.9959294377      -28.1620286694      -28.1856497098  TIP3      4204            0.0000000000
     34933      4397  TIP3      OH2            27.6381686924      -27.9859452471      -25.5845921382  TIP3      4205            0.0000000000
     34934      4397  TIP3      H1             27.3261065030      -28.2961963187      -26.4481015486  TIP3      4205            0.0000000000
     34935      4397  TIP3      H2             28.5633824788      -28.2984447026      -25.5750828977  TIP3      4205            0.0000000000
     34936      4398  TIP3      OH2            32.3161331589      -22.6799519497      -27.6030472708  TIP3      4206            0.0000000000
     34937      4398  TIP3      H1             31.4058435421      -22.4795334990      -27.8682943859  TIP3      4206            0.0000000000
     34938      4398  TIP3      H2             32.3004651291      -22.3423328193      -26.6986378868  TIP3      4206            0.0000000000
     34939      4399  TIP3      OH2            36.1684315349      -21.6464511239      -38.8359609571  TIP3      4207            0.0000000000
     34940      4399  TIP3      H1             35.8767862807      -22.4884310691      -38.4890111677  TIP3      4207            0.0000000000
     34941      4399  TIP3      H2             36.5730337300      -21.8304992920      -39.6935179685  TIP3      4207            0.0000000000
     34942      4400  TIP3      OH2            33.4319433796      -26.8546555257      -31.7079688711  TIP3      4208            0.0000000000
     34943      4400  TIP3      H1             32.4913330188      -27.0653746242      -31.8683926488  TIP3      4208            0.0000000000
     34944      4400  TIP3      H2             33.9034799792      -27.5812347402      -32.1619516639  TIP3      4208            0.0000000000
     34945      4401  TIP3      OH2            26.0150606997      -22.4922592098      -35.6305379256  TIP3      4209            0.0000000000
     34946      4401  TIP3      H1             26.5128456490      -21.6858701131      -35.8362000629  TIP3      4209            0.0000000000
     34947      4401  TIP3      H2             25.1361635745      -22.2622644888      -35.9622158933  TIP3      4209            0.0000000000
     34948      4402  TIP3      OH2            21.7281192251      -27.6532845310      -41.0856101335  TIP3      4210            0.0000000000
     34949      4402  TIP3      H1             22.3614174958      -27.0279682564      -40.6898791840  TIP3      4210            0.0000000000
     34950      4402  TIP3      H2             20.8704089621      -27.3330710197      -40.7667871756  TIP3      4210            0.0000000000
     34951      4403  TIP3      OH2            27.4260331390      -24.8293466355      -36.1076125443  TIP3      4211            0.0000000000
     34952      4403  TIP3      H1             27.1092591529      -23.9107071664      -36.0301612054  TIP3      4211            0.0000000000
     34953      4403  TIP3      H2             26.7098719716      -25.3242863725      -35.6653800205  TIP3      4211            0.0000000000
     34954      4404  TIP3      OH2            27.8767242968      -20.6394782369      -29.7018782710  TIP3      4212            0.0000000000
     34955      4404  TIP3      H1             28.3410990981      -19.8390117131      -29.9907761157  TIP3      4212            0.0000000000
     34956      4404  TIP3      H2             28.4983627872      -20.9919767616      -29.0432529371  TIP3      4212            0.0000000000
     34957      4405  TIP3      OH2            26.1188742440      -19.8348859428      -36.5921267062  TIP3      4213            0.0000000000
     34958      4405  TIP3      H1             25.1533921878      -19.7012811021      -36.4440499798  TIP3      4213            0.0000000000
     34959      4405  TIP3      H2             26.4722556782      -18.9988723440      -36.2373383335  TIP3      4213            0.0000000000
     34960      4406  TIP3      OH2            31.4081459667      -24.6561045879      -30.0837962584  TIP3      4214            0.0000000000
     34961      4406  TIP3      H1             31.0785106408      -24.8454339598      -29.1780685055  TIP3      4214            0.0000000000
     34962      4406  TIP3      H2             32.0417693178      -25.3716783194      -30.2534281625  TIP3      4214            0.0000000000
     34963      4407  TIP3      OH2            33.7009514400      -23.6090080600      -40.9556501364  TIP3      4215            0.0000000000
     34964      4407  TIP3      H1             33.9854966126      -24.0615412422      -40.1381976892  TIP3      4215            0.0000000000
     34965      4407  TIP3      H2             32.7455492484      -23.7532478605      -40.9021060420  TIP3      4215            0.0000000000
     34966      4408  TIP3      OH2            34.1746535582      -20.0288420364      -27.5831724382  TIP3      4216            0.0000000000
     34967      4408  TIP3      H1             33.5226940925      -20.5526200499      -28.0865009516  TIP3      4216            0.0000000000
     34968      4408  TIP3      H2             34.4183022227      -19.3663165817      -28.2634248062  TIP3      4216            0.0000000000
     34969      4409  TIP3      OH2            22.2854333555      -32.8212324775      -28.1579512621  TIP3      4217            0.0000000000
     34970      4409  TIP3      H1             21.3753296937      -32.4874945716      -28.2534099344  TIP3      4217            0.0000000000
     34971      4409  TIP3      H2             22.1520886453      -33.7125604075      -27.7902560868  TIP3      4217            0.0000000000
     34972      4410  TIP3      OH2            34.5200806139      -24.9647563290      -38.7444555632  TIP3      4218            0.0000000000
     34973      4410  TIP3      H1             34.2637509077      -25.7653141724      -38.2247378167  TIP3      4218            0.0000000000
     34974      4410  TIP3      H2             35.4569897455      -24.8907227736      -38.5087099577  TIP3      4218            0.0000000000
     34975      4411  TIP3      OH2            21.8909931544      -21.0264065496      -29.7763863316  TIP3      4219            0.0000000000
     34976      4411  TIP3      H1             22.2047700465      -21.9448028142      -29.7627326595  TIP3      4219            0.0000000000
     34977      4411  TIP3      H2             22.1366879935      -20.7111675365      -28.8952305466  TIP3      4219            0.0000000000
     34978      4412  TIP3      OH2            26.6402239633      -22.9341753274      -40.0662231040  TIP3      4220            0.0000000000
     34979      4412  TIP3      H1             26.9069040872      -23.5022997425      -39.3304200766  TIP3      4220            0.0000000000
     34980      4412  TIP3      H2             26.7300287726      -22.0274129491      -39.7117295733  TIP3      4220            0.0000000000
     34981      4413  TIP3      OH2            23.1259414266      -25.7133020749      -39.6273298488  TIP3      4221            0.0000000000
     34982      4413  TIP3      H1             22.4766550812      -25.3084405942      -39.0117898462  TIP3      4221            0.0000000000
     34983      4413  TIP3      H2             23.7050392676      -24.9592082138      -39.8331753231  TIP3      4221            0.0000000000
     34984      4414  TIP3      OH2            30.9960271728      -33.0783534748      -29.2213517369  TIP3      4222            0.0000000000
     34985      4414  TIP3      H1             31.7525895136      -32.9767631590      -28.6224961123  TIP3      4222            0.0000000000
     34986      4414  TIP3      H2             30.6599059907      -33.9756842488      -29.0480192318  TIP3      4222            0.0000000000
     34987      4415  TIP3      OH2            31.7914329845      -33.4822532564      -38.1424437317  TIP3      4223            0.0000000000
     34988      4415  TIP3      H1             31.9838217783      -32.9927329822      -38.9695818403  TIP3      4223            0.0000000000
     34989      4415  TIP3      H2             32.3055015572      -32.9863476716      -37.4910877700  TIP3      4223            0.0000000000
     34990      4416  TIP3      OH2            29.4405463480      -21.2903139362      -39.3238226241  TIP3      4224            0.0000000000
     34991      4416  TIP3      H1             28.6212772833      -20.7721101611      -39.2710252719  TIP3      4224            0.0000000000
     34992      4416  TIP3      H2             29.9860629869      -20.8014900169      -39.9649085886  TIP3      4224            0.0000000000
     34993      4417  TIP3      OH2            28.9814679742      -31.7561049266      -37.3467786990  TIP3      4225            0.0000000000
     34994      4417  TIP3      H1             29.7502581073      -31.1568539174      -37.3275693356  TIP3      4225            0.0000000000
     34995      4417  TIP3      H2             28.7255582859      -31.8411651999      -36.4065211532  TIP3      4225            0.0000000000
     34996      4418  TIP3      OH2            29.5700565966      -30.6849752318      -28.1605528812  TIP3      4226            0.0000000000
     34997      4418  TIP3      H1             29.6414918689      -30.1476321299      -27.3446252463  TIP3      4226            0.0000000000
     34998      4418  TIP3      H2             30.2114792924      -31.4028497082      -28.0615768759  TIP3      4226            0.0000000000
     34999      4419  TIP3      OH2            29.8211772085      -34.6773954540      -36.3998343221  TIP3      4227            0.0000000000
     35000      4419  TIP3      H1             29.5215848522      -33.9860218095      -35.7882543523  TIP3      4227            0.0000000000
     35001      4419  TIP3      H2             30.4832669668      -34.1550346504      -36.9173488412  TIP3      4227            0.0000000000
     35002      4420  TIP3      OH2            26.8191754600      -20.2556494318      -39.3006589048  TIP3      4228            0.0000000000
     35003      4420  TIP3      H1             26.9792464395      -19.4369798657      -39.8113464221  TIP3      4228            0.0000000000
     35004      4420  TIP3      H2             26.5661464436      -19.9128719184      -38.4141087765  TIP3      4228            0.0000000000
     35005      4421  TIP3      OH2            25.5127453205      -33.5904713282      -39.7139936789  TIP3      4229            0.0000000000
     35006      4421  TIP3      H1             25.4289753532      -32.6746771063      -39.3754932842  TIP3      4229            0.0000000000
     35007      4421  TIP3      H2             26.4354582388      -33.7492381887      -39.4373450965  TIP3      4229            0.0000000000
     35008      4422  TIP3      OH2            35.7318011968      -32.8776722947      -27.3467479679  TIP3      4230            0.0000000000
     35009      4422  TIP3      H1             34.8121202793      -32.5276107316      -27.4285202625  TIP3      4230            0.0000000000
     35010      4422  TIP3      H2             36.0183829130      -32.8358365662      -28.2684548952  TIP3      4230            0.0000000000
     35011      4423  TIP3      OH2            34.3486043402      -29.0245048065      -33.2421997418  TIP3      4231            0.0000000000
     35012      4423  TIP3      H1             33.5245939812      -29.4471771968      -33.5627436227  TIP3      4231            0.0000000000
     35013      4423  TIP3      H2             34.7391127816      -29.7693694309      -32.7570306611  TIP3      4231            0.0000000000
     35014      4424  TIP3      OH2            23.7361587056      -23.1032094577      -40.7012350770  TIP3      4232            0.0000000000
     35015      4424  TIP3      H1             24.4028546161      -22.4899221203      -40.3748610494  TIP3      4232            0.0000000000
     35016      4424  TIP3      H2             24.2547975266      -23.5835247478      -41.3761091479  TIP3      4232            0.0000000000
     35017      4425  TIP3      OH2            22.1115029041      -30.4268347033      -41.4606504322  TIP3      4233            0.0000000000
     35018      4425  TIP3      H1             22.1167621850      -29.4540005499      -41.3993749993  TIP3      4233            0.0000000000
     35019      4425  TIP3      H2             21.2750563428      -30.6176644491      -41.8962531799  TIP3      4233            0.0000000000
     35020      4426  TIP3      OH2            35.4440709595      -19.7684929339      -31.6157622863  TIP3      4234            0.0000000000
     35021      4426  TIP3      H1             35.2743294139      -19.0799755398      -32.2868113962  TIP3      4234            0.0000000000
     35022      4426  TIP3      H2             36.3825476021      -19.6751306350      -31.4388560484  TIP3      4234            0.0000000000
     35023      4427  TIP3      OH2            22.6677060587      -35.5112598633      -32.7956248621  TIP3      4235            0.0000000000
     35024      4427  TIP3      H1             22.7018005198      -35.6082338327      -33.7735857900  TIP3      4235            0.0000000000
     35025      4427  TIP3      H2             22.5791841819      -36.4444231040      -32.5598332408  TIP3      4235            0.0000000000
     35026      4428  TIP3      OH2            21.8438241479      -21.7316309415      -36.6701091839  TIP3      4236            0.0000000000
     35027      4428  TIP3      H1             20.9862538513      -21.2902067442      -36.7126249158  TIP3      4236            0.0000000000
     35028      4428  TIP3      H2             22.3110666298      -21.2721616050      -37.3817138825  TIP3      4236            0.0000000000
     35029      4429  TIP3      OH2            21.1600881050      -19.1513131790      -25.4647660503  TIP3      4237            0.0000000000
     35030      4429  TIP3      H1             21.6397045815      -19.2529418446      -24.6280012085  TIP3      4237            0.0000000000
     35031      4429  TIP3      H2             20.5924465777      -19.9189494393      -25.5319161116  TIP3      4237            0.0000000000
     35032      4430  TIP3      OH2            25.7475975945      -20.1413937108      -23.7977057427  TIP3      4238            0.0000000000
     35033      4430  TIP3      H1             26.4369104766      -20.7086665841      -23.4644959431  TIP3      4238            0.0000000000
     35034      4430  TIP3      H2             25.6533097962      -20.4558434375      -24.7164683762  TIP3      4238            0.0000000000
     35035      4431  TIP3      OH2            30.2425025129      -20.6056763068      -41.7861299217  TIP3      4239            0.0000000000
     35036      4431  TIP3      H1             29.3970909628      -21.0788953955      -41.8910562946  TIP3      4239            0.0000000000
     35037      4431  TIP3      H2             30.7400058052      -21.0478669922      -42.4784751234  TIP3      4239            0.0000000000
     35038      4432  TIP3      OH2            32.2608603819      -21.7761631466      -25.0382480153  TIP3      4240            0.0000000000
     35039      4432  TIP3      H1             31.8923306099      -22.6481110727      -24.7867053435  TIP3      4240            0.0000000000
     35040      4432  TIP3      H2             33.0293803590      -21.6184278326      -24.4697884574  TIP3      4240            0.0000000000
     35041      4433  TIP3      OH2            34.3838461975      -20.9204023598      -42.2007453531  TIP3      4241            0.0000000000
     35042      4433  TIP3      H1             34.6700546967      -21.6977450248      -41.7014652550  TIP3      4241            0.0000000000
     35043      4433  TIP3      H2             35.1713708331      -20.6163696173      -42.6693578275  TIP3      4241            0.0000000000
     35044      4434  TIP3      OH2            20.9569047031      -25.3545494984      -24.4044186718  TIP3      4242            0.0000000000
     35045      4434  TIP3      H1             21.1327331760      -26.2250049460      -24.7897329588  TIP3      4242            0.0000000000
     35046      4434  TIP3      H2             20.2395433108      -25.0201389526      -24.9752624365  TIP3      4242            0.0000000000
     35047      4435  TIP3      OH2            25.3996454217      -24.8865143006      -42.2291085970  TIP3      4243            0.0000000000
     35048      4435  TIP3      H1             25.4527562562      -25.7213475134      -41.7557354776  TIP3      4243            0.0000000000
     35049      4435  TIP3      H2             25.9459851728      -25.1179829080      -43.0063392532  TIP3      4243            0.0000000000
     35050      4436  TIP3      OH2            27.7221892586      -25.3251223907      -25.0003060513  TIP3      4244            0.0000000000
     35051      4436  TIP3      H1             27.3426433084      -25.0015608756      -25.8375668650  TIP3      4244            0.0000000000
     35052      4436  TIP3      H2             27.7315978497      -26.3029804367      -25.1073094059  TIP3      4244            0.0000000000
     35053      4437  TIP3      OH2            33.3422195876      -25.4890603042      -27.6204842592  TIP3      4245            0.0000000000
     35054      4437  TIP3      H1             34.1272302727      -24.8958126664      -27.7213791720  TIP3      4245            0.0000000000
     35055      4437  TIP3      H2             32.6630035879      -24.8012420661      -27.5830211601  TIP3      4245            0.0000000000
     35056      4438  TIP3      OH2            21.8909117170      -28.0815845049      -24.9883858413  TIP3      4246            0.0000000000
     35057      4438  TIP3      H1             22.2922164233      -28.9427988082      -25.1438556982  TIP3      4246            0.0000000000
     35058      4438  TIP3      H2             21.6128207510      -28.0984714537      -24.0794485889  TIP3      4246            0.0000000000
     35059      4439  TIP3      OH2            26.5319153611      -26.9275543359      -39.9387367212  TIP3      4247            0.0000000000
     35060      4439  TIP3      H1             26.0133807233      -27.4620901996      -39.3184976697  TIP3      4247            0.0000000000
     35061      4439  TIP3      H2             26.8347511241      -27.6136325462      -40.5808016631  TIP3      4247            0.0000000000
     35062      4440  TIP3      OH2            25.7723865777      -29.1431332362      -27.6618652102  TIP3      4248            0.0000000000
     35063      4440  TIP3      H1             25.1843239814      -28.4124438687      -27.4071639414  TIP3      4248            0.0000000000
     35064      4440  TIP3      H2             26.1785657921      -28.7732797974      -28.4645636272  TIP3      4248            0.0000000000
     35065      4441  TIP3      OH2            27.5972594796      -28.6956071445      -41.7527218247  TIP3      4249            0.0000000000
     35066      4441  TIP3      H1             27.4942495855      -28.9037947511      -42.6909826471  TIP3      4249            0.0000000000
     35067      4441  TIP3      H2             28.5777143159      -28.6260561889      -41.6422229917  TIP3      4249            0.0000000000
     35068      4442  TIP3      OH2            30.8518344923      -26.5251791846      -24.1855332774  TIP3      4250            0.0000000000
     35069      4442  TIP3      H1             31.7585666619      -26.6292457483      -24.5076328791  TIP3      4250            0.0000000000
     35070      4442  TIP3      H2             30.6723305410      -27.3764744510      -23.7531171426  TIP3      4250            0.0000000000
     35071      4443  TIP3      OH2            26.1619765854      -31.7410542143      -26.5761629575  TIP3      4251            0.0000000000
     35072      4443  TIP3      H1             26.2984987322      -32.4623320504      -27.2185060865  TIP3      4251            0.0000000000
     35073      4443  TIP3      H2             26.1358523367      -30.9439114450      -27.1434209026  TIP3      4251            0.0000000000
     35074      4444  TIP3      OH2            26.5984855072      -33.3656014803      -29.0511898149  TIP3      4252            0.0000000000
     35075      4444  TIP3      H1             27.1038458115      -32.8892464831      -29.7516105943  TIP3      4252            0.0000000000
     35076      4444  TIP3      H2             25.6990520796      -33.4786155458      -29.4416060121  TIP3      4252            0.0000000000
     35077      4445  TIP3      OH2            28.1228312944      -27.8860461085      -28.7917403804  TIP3      4253            0.0000000000
     35078      4445  TIP3      H1             28.8755090319      -28.0565111490      -29.3681467954  TIP3      4253            0.0000000000
     35079      4445  TIP3      H2             27.7592526902      -27.0560063757      -29.1394275424  TIP3      4253            0.0000000000
     35080      4446  TIP3      OH2            32.5286349222      -30.1260628422      -23.7876516406  TIP3      4254            0.0000000000
     35081      4446  TIP3      H1             32.7475604274      -31.0597521385      -23.9215962607  TIP3      4254            0.0000000000
     35082      4446  TIP3      H2             33.4107718615      -29.7279360120      -23.8514547960  TIP3      4254            0.0000000000
     35083      4447  TIP3      OH2            33.8064780557      -27.2990827574      -25.6740166273  TIP3      4255            0.0000000000
     35084      4447  TIP3      H1             33.5997520088      -26.6103549882      -26.3344063753  TIP3      4255            0.0000000000
     35085      4447  TIP3      H2             34.7676797610      -27.3924706488      -25.8462296801  TIP3      4255            0.0000000000
     35086      4448  TIP3      OH2            24.5980467855      -30.5332316569      -24.6423969930  TIP3      4256            0.0000000000
     35087      4448  TIP3      H1             23.8616361345      -31.1215555298      -24.8897284011  TIP3      4256            0.0000000000
     35088      4448  TIP3      H2             25.2785501354      -30.8447056494      -25.2815661537  TIP3      4256            0.0000000000
     35089      4449  TIP3      OH2            27.3016245576      -35.8015785241      -28.4628907700  TIP3      4257            0.0000000000
     35090      4449  TIP3      H1             27.2054887769      -34.8419891008      -28.6784056381  TIP3      4257            0.0000000000
     35091      4449  TIP3      H2             26.6439544934      -36.1849930659      -29.0592722827  TIP3      4257            0.0000000000
     35092      4450  TIP3      OH2            28.6535389756      -31.6128147949      -25.0458489062  TIP3      4258            0.0000000000
     35093      4450  TIP3      H1             28.3482062916      -31.8763925050      -24.1532202232  TIP3      4258            0.0000000000
     35094      4450  TIP3      H2             27.8548393129      -31.8349035252      -25.5571751229  TIP3      4258            0.0000000000
     35095      4451  TIP3      OH2            31.3526353829      -32.3997150027      -25.9028877614  TIP3      4259            0.0000000000
     35096      4451  TIP3      H1             30.3824851394      -32.4349313387      -25.7942807460  TIP3      4259            0.0000000000
     35097      4451  TIP3      H2             31.6582150869      -33.0819817280      -25.2711241203  TIP3      4259            0.0000000000
     35098      4452  TIP3      OH2            33.0074595652      -33.7619130420      -24.0080032678  TIP3      4260            0.0000000000
     35099      4452  TIP3      H1             32.8787992376      -34.7448307219      -24.0487266070  TIP3      4260            0.0000000000
     35100      4452  TIP3      H2             32.7021205321      -33.5532893627      -23.1038148016  TIP3      4260            0.0000000000
     35101      4453  TIP3      OH2            22.7660561489      -32.5969732278      -24.9146377486  TIP3      4261            0.0000000000
     35102      4453  TIP3      H1             22.9982025436      -33.2981312124      -25.5460055289  TIP3      4261            0.0000000000
     35103      4453  TIP3      H2             22.6987372617      -33.1156780190      -24.0933124665  TIP3      4261            0.0000000000
     35104      4454  TIP3      OH2            27.5302068574       36.8150869144      -25.9440796949  TIP3      4262            0.0000000000
     35105      4454  TIP3      H1             28.2769350259       36.2122630244      -25.8300043486  TIP3      4262            0.0000000000
     35106      4454  TIP3      H2             27.5282121430       37.0866005429      -26.8801618889  TIP3      4262            0.0000000000
     35107      4455  TIP3      OH2            27.4205422366      -18.0289443177      -40.7321772022  TIP3      4263            0.0000000000
     35108      4455  TIP3      H1             28.3933318489      -17.9300164149      -40.5976034218  TIP3      4263            0.0000000000
     35109      4455  TIP3      H2             27.2532733983      -17.3545229581      -41.3896997912  TIP3      4263            0.0000000000
     35110      4456  TIP3      OH2            21.0109656189      -23.4325820369      -41.2140759246  TIP3      4264            0.0000000000
     35111      4456  TIP3      H1             21.9654938324      -23.3456798067      -40.9889512474  TIP3      4264            0.0000000000
     35112      4456  TIP3      H2             21.0377937875      -24.0184209478      -41.9758964754  TIP3      4264            0.0000000000
     35113      4457  TIP3      OH2            19.7552775742      -18.0603099881      -36.2303608118  TIP3      4265            0.0000000000
     35114      4457  TIP3      H1             19.0374914833      -18.5500743759      -36.6933869846  TIP3      4265            0.0000000000
     35115      4457  TIP3      H2             20.0348591496      -18.7171969855      -35.5673594997  TIP3      4265            0.0000000000
     35116      4458  TIP3      OH2            20.5918498428      -19.9399189788      -34.3628837717  TIP3      4266            0.0000000000
     35117      4458  TIP3      H1             20.2200301177      -20.8071745020      -34.1495361055  TIP3      4266            0.0000000000
     35118      4458  TIP3      H2             20.8169652930      -19.6018753172      -33.4772831688  TIP3      4266            0.0000000000
     35119      4459  TIP3      OH2            36.0877399522      -21.8959062762      -29.1720760081  TIP3      4267            0.0000000000
     35120      4459  TIP3      H1             35.4334325187      -21.4353764848      -28.6365555784  TIP3      4267            0.0000000000
     35121      4459  TIP3      H2             35.5651608441      -22.2183544938      -29.9382425377  TIP3      4267            0.0000000000
     35122      4460  TIP3      OH2            36.3583652305      -30.3159868837      -41.5617674289  TIP3      4268            0.0000000000
     35123      4460  TIP3      H1             36.5891390689      -29.6821124042      -42.2547840147  TIP3      4268            0.0000000000
     35124      4460  TIP3      H2             36.2114649045      -31.1687696115      -42.0121084088  TIP3      4268            0.0000000000
     35125      4461  TIP3      OH2            35.2640721194      -28.8840673100      -35.8948696675  TIP3      4269            0.0000000000
     35126      4461  TIP3      H1             35.4138231871      -29.8350711521      -35.8572937339  TIP3      4269            0.0000000000
     35127      4461  TIP3      H2             35.2496231685      -28.6653931720      -34.9454765367  TIP3      4269            0.0000000000
     35128      4462  TIP3      OH2            20.6358157507      -26.8501270774      -31.8599698336  TIP3      4270            0.0000000000
     35129      4462  TIP3      H1             20.8108370482      -26.9331920464      -32.8224769413  TIP3      4270            0.0000000000
     35130      4462  TIP3      H2             21.5291676660      -27.0301056655      -31.5075019811  TIP3      4270            0.0000000000
     35131      4463  TIP3      OH2           -37.0386267020      -26.9110236592      -25.9059761223  TIP3      4271            0.0000000000
     35132      4463  TIP3      H1            -36.4804679004      -27.7051869940      -25.9721358759  TIP3      4271            0.0000000000
     35133      4463  TIP3      H2            -36.4990244644      -26.2200955674      -26.3360447424  TIP3      4271            0.0000000000
     35134      4464  TIP3      OH2            35.6205953007      -32.8444857632      -42.3532254218  TIP3      4272            0.0000000000
     35135      4464  TIP3      H1             36.2760766236      -33.3291287551      -41.8315817215  TIP3      4272            0.0000000000
     35136      4464  TIP3      H2             34.8127713095      -33.3669456295      -42.2745478908  TIP3      4272            0.0000000000
     35137      4465  TIP3      OH2            35.2840476441      -31.3955157347      -37.5672192553  TIP3      4273            0.0000000000
     35138      4465  TIP3      H1             35.5718224178      -32.2607326846      -37.2182831055  TIP3      4273            0.0000000000
     35139      4465  TIP3      H2             36.0760403423      -31.0286943703      -37.9553959559  TIP3      4273            0.0000000000
     35140      4466  TIP3      OH2            35.5112443724      -31.3036612010      -32.0912145344  TIP3      4274            0.0000000000
     35141      4466  TIP3      H1             36.4626734531      -31.2003278087      -32.2448822744  TIP3      4274            0.0000000000
     35142      4466  TIP3      H2             35.5331373972      -30.8343145566      -31.2364914368  TIP3      4274            0.0000000000
     35143      4467  TIP3      OH2            35.9832659004      -30.0781267948      -29.1075043866  TIP3      4275            0.0000000000
     35144      4467  TIP3      H1             35.0835162277      -29.7734675296      -28.9074345032  TIP3      4275            0.0000000000
     35145      4467  TIP3      H2             36.3920385023      -29.3081152762      -29.5364656843  TIP3      4275            0.0000000000
     35146      4468  TIP3      OH2            20.2730987779      -31.5452962752      -25.6712696288  TIP3      4276            0.0000000000
     35147      4468  TIP3      H1             21.2042207152      -31.8121175457      -25.5449750566  TIP3      4276            0.0000000000
     35148      4468  TIP3      H2             19.8082011151      -32.3802249219      -25.4747764157  TIP3      4276            0.0000000000
     35149      4469  TIP3      OH2            35.1848156780      -34.2139950226      -36.9040961794  TIP3      4277            0.0000000000
     35150      4469  TIP3      H1             36.0070492263      -34.5727643030      -36.5374973044  TIP3      4277            0.0000000000
     35151      4469  TIP3      H2             35.0967290768      -34.7752899494      -37.7082297970  TIP3      4277            0.0000000000
     35152      4470  TIP3      OH2            21.4173253793      -33.2312266182      -32.8697151366  TIP3      4278            0.0000000000
     35153      4470  TIP3      H1             21.8810013325      -34.0582468770      -32.6074716899  TIP3      4278            0.0000000000
     35154      4470  TIP3      H2             22.0025213217      -32.5762833667      -32.4728631742  TIP3      4278            0.0000000000
     35155      4471  TIP3      OH2            19.7358315793      -30.2584809592      -31.8198952811  TIP3      4279            0.0000000000
     35156      4471  TIP3      H1             20.3053416116      -30.5125258517      -32.5747944290  TIP3      4279            0.0000000000
     35157      4471  TIP3      H2             20.2044734330      -29.4544929928      -31.5529025263  TIP3      4279            0.0000000000
     35158      4472  TIP3      OH2            20.1219094792      -34.0281509389      -37.7650760389  TIP3      4280            0.0000000000
     35159      4472  TIP3      H1             19.1702439116      -33.8544717045      -37.8593413978  TIP3      4280            0.0000000000
     35160      4472  TIP3      H2             20.5143040673      -33.5120239832      -38.4901315921  TIP3      4280            0.0000000000
     35161      4473  TIP3      OH2            34.7069995988      -19.1700448091      -35.7359778981  TIP3      4281            0.0000000000
     35162      4473  TIP3      H1             35.3569899460      -19.5207684592      -36.3540765558  TIP3      4281            0.0000000000
     35163      4473  TIP3      H2             35.2577238559      -18.6079870770      -35.1578406229  TIP3      4281            0.0000000000
     35164      4474  TIP3      OH2            20.0457622325      -35.3119915997      -29.4558194724  TIP3      4282            0.0000000000
     35165      4474  TIP3      H1             19.3856821157      -35.5008089160      -28.7751375545  TIP3      4282            0.0000000000
     35166      4474  TIP3      H2             19.5814051609      -34.6715785712      -30.0251437303  TIP3      4282            0.0000000000
     35167      4475  TIP3      OH2            22.2935589551      -22.1166248408      -25.3050578769  TIP3      4283            0.0000000000
     35168      4475  TIP3      H1             21.4391164249      -21.9272928017      -25.7217543965  TIP3      4283            0.0000000000
     35169      4475  TIP3      H2             22.0442205016      -22.1759546784      -24.3743314054  TIP3      4283            0.0000000000
     35170      4476  TIP3      OH2            25.1787262290      -21.1590220842      -29.0471602613  TIP3      4284            0.0000000000
     35171      4476  TIP3      H1             24.8653649957      -20.2732210092      -29.2854549920  TIP3      4284            0.0000000000
     35172      4476  TIP3      H2             26.1180847207      -21.0619099798      -29.3118470480  TIP3      4284            0.0000000000
     35173      4477  TIP3      OH2            29.5244979060      -19.7117821211      -26.0680528598  TIP3      4285            0.0000000000
     35174      4477  TIP3      H1             29.7364364182      -20.0912196992      -25.2099824755  TIP3      4285            0.0000000000
     35175      4477  TIP3      H2             30.4069999370      -19.3996890616      -26.3748803426  TIP3      4285            0.0000000000
     35176      4478  TIP3      OH2            31.8020974398      -18.4604266623      -26.7557873884  TIP3      4286            0.0000000000
     35177      4478  TIP3      H1             32.5499624417      -19.0068437814      -27.0463393585  TIP3      4286            0.0000000000
     35178      4478  TIP3      H2             32.1988408362      -17.9813376737      -25.9982976464  TIP3      4286            0.0000000000
     35179      4479  TIP3      OH2            22.5809760413      -17.9058335473      -29.0396472550  TIP3      4287            0.0000000000
     35180      4479  TIP3      H1             21.8496101308      -17.3739887153      -29.3795527636  TIP3      4287            0.0000000000
     35181      4479  TIP3      H2             22.3122985245      -18.0293185283      -28.1086083741  TIP3      4287            0.0000000000
     35182      4480  TIP3      OH2            25.0650917669      -18.3182497048      -29.9393469895  TIP3      4288            0.0000000000
     35183      4480  TIP3      H1             24.1716130329      -18.1490568761      -29.5466394585  TIP3      4288            0.0000000000
     35184      4480  TIP3      H2             25.0277045410      -17.7424671841      -30.7234626561  TIP3      4288            0.0000000000
     35185      4481  TIP3      OH2            29.7911939925      -18.4142546387      -30.7782102867  TIP3      4289            0.0000000000
     35186      4481  TIP3      H1             29.3268481257      -17.8561596143      -31.4218001172  TIP3      4289            0.0000000000
     35187      4481  TIP3      H2             29.9112991451      -17.7857792478      -30.0340377141  TIP3      4289            0.0000000000
     35188      4482  TIP3      OH2            32.0867674355      -19.6136403814      -29.7424928967  TIP3      4290            0.0000000000
     35189      4482  TIP3      H1             31.2305264751      -19.3412447060      -30.1128806805  TIP3      4290            0.0000000000
     35190      4482  TIP3      H2             32.5422399555      -18.7593256712      -29.8180368337  TIP3      4290            0.0000000000
     35191      4483  TIP3      OH2            34.6396162505      -17.9857471714      -29.5090015801  TIP3      4291            0.0000000000
     35192      4483  TIP3      H1             34.5567302925      -17.0443053250      -29.7563307355  TIP3      4291            0.0000000000
     35193      4483  TIP3      H2             34.8969810607      -18.3909408448      -30.3601216787  TIP3      4291            0.0000000000
     35194      4484  TIP3      OH2            22.0788994060      -19.2449778247      -32.0742638589  TIP3      4292            0.0000000000
     35195      4484  TIP3      H1             21.9939344671      -19.7193181213      -31.2192725460  TIP3      4292            0.0000000000
     35196      4484  TIP3      H2             22.8859074894      -19.6382432943      -32.4680312482  TIP3      4292            0.0000000000
     35197      4485  TIP3      OH2            24.1474930768      -20.5446702782      -33.4232212346  TIP3      4293            0.0000000000
     35198      4485  TIP3      H1             23.9864619015      -21.4780276604      -33.1854415225  TIP3      4293            0.0000000000
     35199      4485  TIP3      H2             25.0037275920      -20.3856662298      -32.9707967604  TIP3      4293            0.0000000000
     35200      4486  TIP3      OH2            26.7258170772      -20.0573350250      -32.5457550510  TIP3      4294            0.0000000000
     35201      4486  TIP3      H1             26.9050248003      -20.9771899057      -32.8083765915  TIP3      4294            0.0000000000
     35202      4486  TIP3      H2             26.7936927451      -20.1105487297      -31.5797096515  TIP3      4294            0.0000000000
     35203      4487  TIP3      OH2            30.1827910011      -34.3171293274      -33.4492787047  TIP3      4295            0.0000000000
     35204      4487  TIP3      H1             29.5596289886      -35.0073347859      -33.1321672894  TIP3      4295            0.0000000000
     35205      4487  TIP3      H2             30.8131707531      -34.8662510850      -33.9335370528  TIP3      4295            0.0000000000
     35206      4488  TIP3      OH2            35.2202046622      -36.2408446371      -33.1753088089  TIP3      4296            0.0000000000
     35207      4488  TIP3      H1             35.8790804457      -35.8593331962      -33.7802662364  TIP3      4296            0.0000000000
     35208      4488  TIP3      H2             34.3868152910      -35.9811556139      -33.5723000095  TIP3      4296            0.0000000000
     35209      4489  TIP3      OH2            22.6214787056      -35.7391645319      -35.6979613632  TIP3      4297            0.0000000000
     35210      4489  TIP3      H1             21.7419802093      -35.9917407881      -36.0372312426  TIP3      4297            0.0000000000
     35211      4489  TIP3      H2             22.9757394378      -36.6222523975      -35.5055932858  TIP3      4297            0.0000000000
     35212      4490  TIP3      OH2            21.0659177221      -35.5551435658      -40.4077546859  TIP3      4298            0.0000000000
     35213      4490  TIP3      H1             21.9346161846      -35.1231289282      -40.5100700084  TIP3      4298            0.0000000000
     35214      4490  TIP3      H2             20.8148220028      -35.3511961331      -39.4954164908  TIP3      4298            0.0000000000
     35215      4491  TIP3      OH2            27.3125822905      -35.4231644809      -35.4329779997  TIP3      4299            0.0000000000
     35216      4491  TIP3      H1             28.2537287520      -35.4474919402      -35.6858587611  TIP3      4299            0.0000000000
     35217      4491  TIP3      H2             27.2142258083      -36.0996038952      -34.7559383025  TIP3      4299            0.0000000000
     35218      4492  TIP3      OH2            32.5934246565      -35.6099386789      -34.1162332531  TIP3      4300            0.0000000000
     35219      4492  TIP3      H1             32.7139129760      -35.5654241813      -35.0675470548  TIP3      4300            0.0000000000
     35220      4492  TIP3      H2             32.4810253748      -36.5779681742      -33.9864620510  TIP3      4300            0.0000000000
     35221      4493  TIP3      OH2            33.9359023651      -35.8439938042      -38.4937156966  TIP3      4301            0.0000000000
     35222      4493  TIP3      H1             33.2278519966      -35.2032662077      -38.6586371954  TIP3      4301            0.0000000000
     35223      4493  TIP3      H2             33.5134998254      -36.6921514374      -38.3251146630  TIP3      4301            0.0000000000
     35224      4494  TIP3      OH2            21.2630296928      -20.0680130575      -38.8203110736  TIP3      4302            0.0000000000
     35225      4494  TIP3      H1             20.5862778875      -20.0733316231      -39.5242109186  TIP3      4302            0.0000000000
     35226      4494  TIP3      H2             21.2947433027      -19.1152042581      -38.6693562588  TIP3      4302            0.0000000000
     35227      4495  TIP3      OH2            23.1826857223      -34.1318887925      -41.3382389991  TIP3      4303            0.0000000000
     35228      4495  TIP3      H1             23.7058820038      -34.6806234463      -41.9169450710  TIP3      4303            0.0000000000
     35229      4495  TIP3      H2             23.8408332567      -33.7509012898      -40.7326593272  TIP3      4303            0.0000000000
     35230      4496  TIP3      OH2            28.1082539856      -33.8800349911      -38.8838694873  TIP3      4304            0.0000000000
     35231      4496  TIP3      H1             28.5048704080      -34.4106029314      -38.1737185856  TIP3      4304            0.0000000000
     35232      4496  TIP3      H2             28.2607677179      -32.9940123216      -38.4727588766  TIP3      4304            0.0000000000
     35233      4497  TIP3      OH2            30.1138003727      -18.4662162309      -40.4775708760  TIP3      4305            0.0000000000
     35234      4497  TIP3      H1             31.0798725966      -18.4935526540      -40.6147375481  TIP3      4305            0.0000000000
     35235      4497  TIP3      H2             29.9256804202      -19.2148784055      -41.0953162585  TIP3      4305            0.0000000000
     35236      4498  TIP3      OH2            22.4270637364      -35.2301261624      -26.0575867851  TIP3      4306            0.0000000000
     35237      4498  TIP3      H1             22.0813400096      -36.0400851332      -25.6912508786  TIP3      4306            0.0000000000
     35238      4498  TIP3      H2             23.3679736392      -35.2995007000      -25.7849073476  TIP3      4306            0.0000000000
     35239      4499  TIP3      OH2            24.5392572785      -35.7708276952      -24.5917433376  TIP3      4307            0.0000000000
     35240      4499  TIP3      H1             25.4402306518      -36.0882690750      -24.8136416467  TIP3      4307            0.0000000000
     35241      4499  TIP3      H2             24.1507807765      -36.5714601704      -24.2322446922  TIP3      4307            0.0000000000
     35242      4500  TIP3      OH2            23.0915393631      -19.0904141686      -41.8617680813  TIP3      4308            0.0000000000
     35243      4500  TIP3      H1             22.7827238386      -18.8269386826      -40.9867327639  TIP3      4308            0.0000000000
     35244      4500  TIP3      H2             23.8460239924      -19.6528520141      -41.6921535149  TIP3      4308            0.0000000000
     35245      4501  TIP3      OH2            32.8239288259       37.1312584205      -24.3667929710  TIP3      4309            0.0000000000
     35246      4501  TIP3      H1             32.8349909085       36.5055438553      -23.6145496246  TIP3      4309            0.0000000000
     35247      4501  TIP3      H2             33.6766884794       36.8690169991      -24.7400421616  TIP3      4309            0.0000000000
     35248      4502  TIP3      OH2            35.9466807847      -20.5537947131      -25.5442161251  TIP3      4310            0.0000000000
     35249      4502  TIP3      H1             35.2896268053      -20.6826477595      -26.2591220112  TIP3      4310            0.0000000000
     35250      4502  TIP3      H2             35.8838860650      -19.5718000034      -25.5074495425  TIP3      4310            0.0000000000
     35251      4503  TIP3      OH2           -24.8980162067       -7.7773162140      -35.7055025565  TIP3      4311            0.0000000000
     35252      4503  TIP3      H1            -24.9186243021       -6.7974128991      -35.7380883321  TIP3      4311            0.0000000000
     35253      4503  TIP3      H2            -25.6311521238       -8.0155596220      -36.2984385358  TIP3      4311            0.0000000000
     35254      4504  TIP3      OH2           -26.0474924832       -8.5336934998      -32.2078217269  TIP3      4312            0.0000000000
     35255      4504  TIP3      H1            -26.0590218916       -9.1812647018      -31.4857209422  TIP3      4312            0.0000000000
     35256      4504  TIP3      H2            -26.4122715270       -9.0381206715      -32.9517727957  TIP3      4312            0.0000000000
     35257      4505  TIP3      OH2           -33.6578765409       -8.8628550981      -30.6810632271  TIP3      4313            0.0000000000
     35258      4505  TIP3      H1            -33.6082584769       -9.5488842345      -29.9787892094  TIP3      4313            0.0000000000
     35259      4505  TIP3      H2            -32.9288437374       -8.2817590969      -30.4268288042  TIP3      4313            0.0000000000
     35260      4506  TIP3      OH2           -22.3666430896       -5.5849572007      -33.9148888268  TIP3      4314            0.0000000000
     35261      4506  TIP3      H1            -22.7752667802       -6.3033329047      -33.4215211800  TIP3      4314            0.0000000000
     35262      4506  TIP3      H2            -22.3409095288       -4.8773889157      -33.2447465678  TIP3      4314            0.0000000000
     35263      4507  TIP3      OH2           -32.8158261304       -4.4051349199      -32.1398549660  TIP3      4315            0.0000000000
     35264      4507  TIP3      H1            -33.1175346829       -5.2762007083      -32.4595588121  TIP3      4315            0.0000000000
     35265      4507  TIP3      H2            -31.8566969205       -4.5854773313      -32.1072673519  TIP3      4315            0.0000000000
     35266      4508  TIP3      OH2           -35.9208446575      -10.8182852891      -36.9279236693  TIP3      4316            0.0000000000
     35267      4508  TIP3      H1            -36.4265505311      -10.0290495483      -36.6341093031  TIP3      4316            0.0000000000
     35268      4508  TIP3      H2            -36.6524125265      -11.3983647804      -37.0621750300  TIP3      4316            0.0000000000
     35269      4509  TIP3      OH2           -35.4485212455       -8.6803425742      -34.5551001451  TIP3      4317            0.0000000000
     35270      4509  TIP3      H1            -35.1701690898       -9.4462374079      -34.0369167324  TIP3      4317            0.0000000000
     35271      4509  TIP3      H2            -34.7107916760       -8.5371459677      -35.1580319265  TIP3      4317            0.0000000000
     35272      4510  TIP3      OH2           -25.2432111246       -0.4228799243      -33.6760338945  TIP3      4318            0.0000000000
     35273      4510  TIP3      H1            -24.5960023832       -1.1112232187      -33.9670983860  TIP3      4318            0.0000000000
     35274      4510  TIP3      H2            -25.4647012639       -0.7669062016      -32.8110540001  TIP3      4318            0.0000000000
     35275      4511  TIP3      OH2           -27.6776966032       -6.1347834075      -31.7210980927  TIP3      4319            0.0000000000
     35276      4511  TIP3      H1            -27.3400413755       -6.7583538600      -32.3852119862  TIP3      4319            0.0000000000
     35277      4511  TIP3      H2            -26.8621138785       -5.9759618168      -31.2135615578  TIP3      4319            0.0000000000
     35278      4512  TIP3      OH2           -19.0708942534      -14.4910977876      -31.0289726652  TIP3      4320            0.0000000000
     35279      4512  TIP3      H1            -18.9095750261      -13.9052537029      -30.2576119306  TIP3      4320            0.0000000000
     35280      4512  TIP3      H2            -18.5027059643      -14.0402405572      -31.6677497895  TIP3      4320            0.0000000000
     35281      4513  TIP3      OH2           -24.5068118792      -11.6673823969      -31.4125816953  TIP3      4321            0.0000000000
     35282      4513  TIP3      H1            -24.3378224085      -12.6255020349      -31.4060687059  TIP3      4321            0.0000000000
     35283      4513  TIP3      H2            -24.6099893753      -11.5262220658      -32.3736344775  TIP3      4321            0.0000000000
     35284      4514  TIP3      OH2           -31.3820654175      -13.5796347179      -34.1992807714  TIP3      4322            0.0000000000
     35285      4514  TIP3      H1            -31.2824418786      -12.7450795151      -34.6944851314  TIP3      4322            0.0000000000
     35286      4514  TIP3      H2            -31.7856186145      -14.1497792316      -34.8895721534  TIP3      4322            0.0000000000
     35287      4515  TIP3      OH2           -23.6205711013      -13.5380920106      -35.8886308338  TIP3      4323            0.0000000000
     35288      4515  TIP3      H1            -23.0227039874      -13.8122170884      -35.1484818926  TIP3      4323            0.0000000000
     35289      4515  TIP3      H2            -23.0760821139      -12.8805929710      -36.3339550738  TIP3      4323            0.0000000000
     35290      4516  TIP3      OH2           -34.7477371627      -11.1916295958      -33.5543791144  TIP3      4324            0.0000000000
     35291      4516  TIP3      H1            -34.0803808232      -11.6856523122      -33.0355283298  TIP3      4324            0.0000000000
     35292      4516  TIP3      H2            -34.5885494768      -11.5292792526      -34.4466090594  TIP3      4324            0.0000000000
     35293      4517  TIP3      OH2           -29.6227620605       -9.6105689410      -34.1435510226  TIP3      4325            0.0000000000
     35294      4517  TIP3      H1            -28.9430327146      -10.1893962756      -33.7556772228  TIP3      4325            0.0000000000
     35295      4517  TIP3      H2            -30.1296249716      -10.2647783644      -34.6624670575  TIP3      4325            0.0000000000
     35296      4518  TIP3      OH2           -18.6667549711      -13.0886636754      -28.7242741131  TIP3      4326            0.0000000000
     35297      4518  TIP3      H1            -19.2198858690      -12.2838076018      -28.8599393127  TIP3      4326            0.0000000000
     35298      4518  TIP3      H2            -18.5720506444      -13.1187068527      -27.7653434708  TIP3      4326            0.0000000000
     35299      4519  TIP3      OH2           -32.4796335586      -14.6745591119      -30.1633121857  TIP3      4327            0.0000000000
     35300      4519  TIP3      H1            -32.7570730196      -14.1055525604      -30.9127073880  TIP3      4327            0.0000000000
     35301      4519  TIP3      H2            -33.1700121825      -14.4490803202      -29.4902482560  TIP3      4327            0.0000000000
     35302      4520  TIP3      OH2           -25.2080128713       -5.1985259952      -36.6157912132  TIP3      4328            0.0000000000
     35303      4520  TIP3      H1            -25.4777789020       -5.4694972362      -37.5090198708  TIP3      4328            0.0000000000
     35304      4520  TIP3      H2            -25.5009827419       -4.2565579507      -36.5735771225  TIP3      4328            0.0000000000
     35305      4521  TIP3      OH2           -29.9523368950       -7.0338132215      -29.9225493658  TIP3      4329            0.0000000000
     35306      4521  TIP3      H1            -30.6782221365       -6.4079420009      -29.6987388092  TIP3      4329            0.0000000000
     35307      4521  TIP3      H2            -29.2580051255       -6.4253909178      -30.2164557744  TIP3      4329            0.0000000000
     35308      4522  TIP3      OH2           -21.8327570334      -14.1571566580      -33.8808982012  TIP3      4330            0.0000000000
     35309      4522  TIP3      H1            -22.0897536418      -14.8925032337      -33.3182766407  TIP3      4330            0.0000000000
     35310      4522  TIP3      H2            -21.1851019175      -13.6958716368      -33.3190327022  TIP3      4330            0.0000000000
     35311      4523  TIP3      OH2           -32.9288857803      -12.8601483231      -32.1243056058  TIP3      4331            0.0000000000
     35312      4523  TIP3      H1            -32.3343846480      -12.1442115884      -31.8018105027  TIP3      4331            0.0000000000
     35313      4523  TIP3      H2            -32.3813685467      -13.2286146999      -32.8645587179  TIP3      4331            0.0000000000
     35314      4524  TIP3      OH2           -31.5413251063       -5.0289167571      -29.1384293947  TIP3      4332            0.0000000000
     35315      4524  TIP3      H1            -31.5904413754       -4.1029928897      -29.4387119413  TIP3      4332            0.0000000000
     35316      4524  TIP3      H2            -32.4101341689       -5.1084341187      -28.6741186059  TIP3      4332            0.0000000000
     35317      4525  TIP3      OH2           -35.4391901795       -5.3562527587      -38.3444425469  TIP3      4333            0.0000000000
     35318      4525  TIP3      H1            -35.6559615922       -5.0531951854      -39.2423437166  TIP3      4333            0.0000000000
     35319      4525  TIP3      H2            -35.3801095443       -4.5568355178      -37.7832251150  TIP3      4333            0.0000000000
     35320      4526  TIP3      OH2           -21.8311329213       -3.7371858935      -31.5350426582  TIP3      4334            0.0000000000
     35321      4526  TIP3      H1            -22.8024801500       -3.6322174588      -31.4284089206  TIP3      4334            0.0000000000
     35322      4526  TIP3      H2            -21.5659507196       -2.8257535013      -31.7556690115  TIP3      4334            0.0000000000
     35323      4527  TIP3      OH2           -21.5063562405      -15.4646822176      -30.1445515661  TIP3      4335            0.0000000000
     35324      4527  TIP3      H1            -22.2388192737      -14.8482353710      -30.2866561918  TIP3      4335            0.0000000000
     35325      4527  TIP3      H2            -20.8011586716      -15.0413912800      -30.6803031986  TIP3      4335            0.0000000000
     35326      4528  TIP3      OH2           -28.5456996675      -17.3313270630      -32.7086138693  TIP3      4336            0.0000000000
     35327      4528  TIP3      H1            -28.6878846581      -18.2963711357      -32.7743020689  TIP3      4336            0.0000000000
     35328      4528  TIP3      H2            -29.4237421827      -17.0335142617      -32.3895026038  TIP3      4336            0.0000000000
     35329      4529  TIP3      OH2           -23.5729633607       -1.9647293398      -34.9560603117  TIP3      4337            0.0000000000
     35330      4529  TIP3      H1            -23.1500167393       -2.6829229499      -35.4713395950  TIP3      4337            0.0000000000
     35331      4529  TIP3      H2            -23.1300740394       -1.1766710675      -35.3416256823  TIP3      4337            0.0000000000
     35332      4530  TIP3      OH2           -22.3607518447       -4.0369306629      -36.4511018945  TIP3      4338            0.0000000000
     35333      4530  TIP3      H1            -22.6576881475       -4.7264429233      -37.0702114786  TIP3      4338            0.0000000000
     35334      4530  TIP3      H2            -22.3323619334       -4.5312349678      -35.6109958811  TIP3      4338            0.0000000000
     35335      4531  TIP3      OH2           -20.7276665524       -5.4352107162      -27.9414550884  TIP3      4339            0.0000000000
     35336      4531  TIP3      H1            -20.6181347783       -6.1080366917      -28.6516347602  TIP3      4339            0.0000000000
     35337      4531  TIP3      H2            -20.5583710315       -4.6008807342      -28.4118516604  TIP3      4339            0.0000000000
     35338      4532  TIP3      OH2           -26.2558671345       -8.5538039419      -38.2063473127  TIP3      4340            0.0000000000
     35339      4532  TIP3      H1            -26.9433421952       -7.9664374268      -38.5893788033  TIP3      4340            0.0000000000
     35340      4532  TIP3      H2            -25.5452531774       -8.4500263289      -38.8612720180  TIP3      4340            0.0000000000
     35341      4533  TIP3      OH2           -26.2167971999      -10.0255795150      -41.0871722514  TIP3      4341            0.0000000000
     35342      4533  TIP3      H1            -25.4700772619       -9.9972669774      -40.4742351624  TIP3      4341            0.0000000000
     35343      4533  TIP3      H2            -25.8896834230      -10.6330079209      -41.7536627284  TIP3      4341            0.0000000000
     35344      4534  TIP3      OH2           -18.8623626956       -9.1314793209      -29.9298944563  TIP3      4342            0.0000000000
     35345      4534  TIP3      H1            -19.5109747676       -8.4010993818      -29.8655392218  TIP3      4342            0.0000000000
     35346      4534  TIP3      H2            -18.3579441634       -8.8805091870      -30.7275185165  TIP3      4342            0.0000000000
     35347      4535  TIP3      OH2           -22.8257008853       -8.3886902657      -37.2632163853  TIP3      4343            0.0000000000
     35348      4535  TIP3      H1            -23.5450598043       -8.1003610498      -36.6513952469  TIP3      4343            0.0000000000
     35349      4535  TIP3      H2            -22.3155197630       -9.0010368566      -36.7061721434  TIP3      4343            0.0000000000
     35350      4536  TIP3      OH2           -22.8779414300      -10.2002238274      -28.1350734906  TIP3      4344            0.0000000000
     35351      4536  TIP3      H1            -22.8608237236       -9.3809148700      -27.6031141291  TIP3      4344            0.0000000000
     35352      4536  TIP3      H2            -23.5004721255       -9.8873876310      -28.8227021602  TIP3      4344            0.0000000000
     35353      4537  TIP3      OH2           -31.1698468573       -7.6740661461      -35.3458862036  TIP3      4345            0.0000000000
     35354      4537  TIP3      H1            -31.5255315039       -8.0753328180      -36.1741969494  TIP3      4345            0.0000000000
     35355      4537  TIP3      H2            -30.5667809443       -8.3750095196      -35.0124750334  TIP3      4345            0.0000000000
     35356      4538  TIP3      OH2           -29.8718701022       -4.3056977198      -32.6712490446  TIP3      4346            0.0000000000
     35357      4538  TIP3      H1            -29.8729589899       -4.8227704275      -33.4840503381  TIP3      4346            0.0000000000
     35358      4538  TIP3      H2            -29.0872701163       -4.6567682970      -32.2124796172  TIP3      4346            0.0000000000
     35359      4539  TIP3      OH2           -30.8501211651       -8.9312463401      -31.6831940043  TIP3      4347            0.0000000000
     35360      4539  TIP3      H1            -30.3070087216       -8.8339031250      -32.4897139606  TIP3      4347            0.0000000000
     35361      4539  TIP3      H2            -30.4717414625       -8.2585226203      -31.0750003556  TIP3      4347            0.0000000000
     35362      4540  TIP3      OH2           -24.4354166699       -3.3605810724      -30.9719820806  TIP3      4348            0.0000000000
     35363      4540  TIP3      H1            -24.7326947429       -2.7223410532      -30.3220669698  TIP3      4348            0.0000000000
     35364      4540  TIP3      H2            -24.7013085695       -4.2145551892      -30.5561994871  TIP3      4348            0.0000000000
     35365      4541  TIP3      OH2           -29.9129448733       -4.5060696575      -26.9606159031  TIP3      4349            0.0000000000
     35366      4541  TIP3      H1            -30.3193971761       -3.7325856214      -26.5185881802  TIP3      4349            0.0000000000
     35367      4541  TIP3      H2            -30.5644477826       -4.7065034597      -27.6756408620  TIP3      4349            0.0000000000
     35368      4542  TIP3      OH2           -23.8788237903       -9.2124406239      -39.6061871221  TIP3      4350            0.0000000000
     35369      4542  TIP3      H1            -23.3939985068       -8.9302390475      -38.7891711046  TIP3      4350            0.0000000000
     35370      4542  TIP3      H2            -23.5303773931       -8.5964576620      -40.2887041385  TIP3      4350            0.0000000000
     35371      4543  TIP3      OH2           -32.9257299784       -8.3292511478      -27.7822243037  TIP3      4351            0.0000000000
     35372      4543  TIP3      H1            -32.9106787737       -7.6393348195      -27.0994236347  TIP3      4351            0.0000000000
     35373      4543  TIP3      H2            -33.8547497208       -8.2600102500      -28.0759045132  TIP3      4351            0.0000000000
     35374      4544  TIP3      OH2           -26.2185371314       -2.4216923011      -36.1140413750  TIP3      4352            0.0000000000
     35375      4544  TIP3      H1            -25.7802200707       -2.1019529189      -35.3178751965  TIP3      4352            0.0000000000
     35376      4544  TIP3      H2            -26.7643220428       -1.6712283111      -36.3785365084  TIP3      4352            0.0000000000
     35377      4545  TIP3      OH2           -31.6652177043       -2.4704521062      -26.2332786058  TIP3      4353            0.0000000000
     35378      4545  TIP3      H1            -31.7219230399       -2.5746365553      -27.2014417827  TIP3      4353            0.0000000000
     35379      4545  TIP3      H2            -32.5977954569       -2.6277577398      -25.9883647280  TIP3      4353            0.0000000000
     35380      4546  TIP3      OH2           -20.2059428218      -17.4014771448      -39.6823181308  TIP3      4354            0.0000000000
     35381      4546  TIP3      H1            -21.1648505043      -17.3219315252      -39.4677582683  TIP3      4354            0.0000000000
     35382      4546  TIP3      H2            -19.9837494678      -16.5629490661      -40.1190544980  TIP3      4354            0.0000000000
     35383      4547  TIP3      OH2           -32.1967755561       -8.6614411773      -37.7617590806  TIP3      4355            0.0000000000
     35384      4547  TIP3      H1            -32.4878868080       -7.8797530079      -38.2638926192  TIP3      4355            0.0000000000
     35385      4547  TIP3      H2            -32.8744610251       -9.3127502985      -37.9704455422  TIP3      4355            0.0000000000
     35386      4548  TIP3      OH2           -19.1082354555       -3.0697687786      -41.3268571662  TIP3      4356            0.0000000000
     35387      4548  TIP3      H1            -18.9816098544       -2.1081146032      -41.2135483412  TIP3      4356            0.0000000000
     35388      4548  TIP3      H2            -18.1785070130       -3.3558845732      -41.3945512388  TIP3      4356            0.0000000000
     35389      4549  TIP3      OH2           -35.6974743026       -6.3189517958      -29.0531955566  TIP3      4357            0.0000000000
     35390      4549  TIP3      H1            -36.4208255610       -6.2723006318      -29.7031526712  TIP3      4357            0.0000000000
     35391      4549  TIP3      H2            -35.9647218212       -7.1661024607      -28.6507848641  TIP3      4357            0.0000000000
     35392      4550  TIP3      OH2           -36.2021220915       -3.3305445679      -32.2519249243  TIP3      4358            0.0000000000
     35393      4550  TIP3      H1            -35.3201883707       -3.6604546520      -32.0452022442  TIP3      4358            0.0000000000
     35394      4550  TIP3      H2            -36.3895754706       -2.7514538279      -31.5062520624  TIP3      4358            0.0000000000
     35395      4551  TIP3      OH2           -18.1114989182       -2.8085293109      -26.4088833326  TIP3      4359            0.0000000000
     35396      4551  TIP3      H1            -18.2935992505       -3.7657076028      -26.3764847459  TIP3      4359            0.0000000000
     35397      4551  TIP3      H2            -18.9620229471       -2.5237158766      -25.9616117027  TIP3      4359            0.0000000000
     35398      4552  TIP3      OH2           -27.1623189522       -3.2616927724      -27.4949348567  TIP3      4360            0.0000000000
     35399      4552  TIP3      H1            -27.1208251214       -2.4169571655      -26.9985738702  TIP3      4360            0.0000000000
     35400      4552  TIP3      H2            -28.0470747369       -3.6162242047      -27.2767751973  TIP3      4360            0.0000000000
     35401      4553  TIP3      OH2           -26.7434079763        0.4883205300      -37.7195109034  TIP3      4361            0.0000000000
     35402      4553  TIP3      H1            -26.8154580565        0.4373541385      -38.6893650882  TIP3      4361            0.0000000000
     35403      4553  TIP3      H2            -26.6985295887        1.4500851409      -37.5434941406  TIP3      4361            0.0000000000
     35404      4554  TIP3      OH2           -33.0907467839       -0.6274115853      -35.9019262373  TIP3      4362            0.0000000000
     35405      4554  TIP3      H1            -32.9518900744       -1.0512405441      -35.0298488323  TIP3      4362            0.0000000000
     35406      4554  TIP3      H2            -33.9226557573       -1.0510451184      -36.1601931630  TIP3      4362            0.0000000000
     35407      4555  TIP3      OH2           -23.7952027954       -0.3644260068      -40.7353048866  TIP3      4363            0.0000000000
     35408      4555  TIP3      H1            -23.2181138107       -1.0314304217      -41.1643105066  TIP3      4363            0.0000000000
     35409      4555  TIP3      H2            -23.6053738948       -0.5281480809      -39.7988841500  TIP3      4363            0.0000000000
     35410      4556  TIP3      OH2           -23.9987667884       -0.3681281155      -37.9273846152  TIP3      4364            0.0000000000
     35411      4556  TIP3      H1            -24.9515675583       -0.2904723124      -37.7583504264  TIP3      4364            0.0000000000
     35412      4556  TIP3      H2            -23.7509857982       -1.1160909739      -37.3648534340  TIP3      4364            0.0000000000
     35413      4557  TIP3      OH2           -21.0398006856      -11.3849353493      -25.8511338742  TIP3      4365            0.0000000000
     35414      4557  TIP3      H1            -21.4165929151      -10.8193861046      -26.5551139221  TIP3      4365            0.0000000000
     35415      4557  TIP3      H2            -20.9605087837      -12.2376982559      -26.2740659008  TIP3      4365            0.0000000000
     35416      4558  TIP3      OH2           -33.8367937581       -4.8648898594      -27.8786353137  TIP3      4366            0.0000000000
     35417      4558  TIP3      H1            -33.6754907796       -5.2737446069      -27.0060267035  TIP3      4366            0.0000000000
     35418      4558  TIP3      H2            -34.6857372004       -5.2855349845      -28.1519059766  TIP3      4366            0.0000000000
     35419      4559  TIP3      OH2           -31.1482869106      -16.4229057819      -31.9561472587  TIP3      4367            0.0000000000
     35420      4559  TIP3      H1            -32.0497442528      -16.5522432068      -32.3170892540  TIP3      4367            0.0000000000
     35421      4559  TIP3      H2            -31.2953540062      -15.6044465507      -31.4557575135  TIP3      4367            0.0000000000
     35422      4560  TIP3      OH2           -26.4967719923      -16.7608083635      -28.5528014795  TIP3      4368            0.0000000000
     35423      4560  TIP3      H1            -26.1401108899      -17.2141057288      -27.7707121887  TIP3      4368            0.0000000000
     35424      4560  TIP3      H2            -27.4742610151      -16.8795514472      -28.4415069093  TIP3      4368            0.0000000000
     35425      4561  TIP3      OH2           -23.2280292287      -12.9366029194      -27.6507220066  TIP3      4369            0.0000000000
     35426      4561  TIP3      H1            -23.8760974058      -13.0923573602      -26.9294018539  TIP3      4369            0.0000000000
     35427      4561  TIP3      H2            -23.3863139401      -12.0051148979      -27.9171949781  TIP3      4369            0.0000000000
     35428      4562  TIP3      OH2           -22.4083869726       -8.0554158411      -41.7466629132  TIP3      4370            0.0000000000
     35429      4562  TIP3      H1            -22.3911526041       -8.2434184320      -42.7007900733  TIP3      4370            0.0000000000
     35430      4562  TIP3      H2            -21.5360431789       -7.6287533871      -41.6448181729  TIP3      4370            0.0000000000
     35431      4563  TIP3      OH2           -26.8152766610      -14.2101102200      -41.2059295746  TIP3      4371            0.0000000000
     35432      4563  TIP3      H1            -27.2256577786      -14.2463607131      -40.3229825500  TIP3      4371            0.0000000000
     35433      4563  TIP3      H2            -27.1609753414      -15.0546855894      -41.5364958395  TIP3      4371            0.0000000000
     35434      4564  TIP3      OH2           -31.0536305698      -11.4622142610      -30.6843992394  TIP3      4372            0.0000000000
     35435      4564  TIP3      H1            -31.7929375661      -11.4763222085      -30.0468108676  TIP3      4372            0.0000000000
     35436      4564  TIP3      H2            -31.1244721280      -10.5533522489      -31.0550207787  TIP3      4372            0.0000000000
     35437      4565  TIP3      OH2           -31.0862526143      -11.3562177146      -35.8176717695  TIP3      4373            0.0000000000
     35438      4565  TIP3      H1            -32.0292576640      -11.5965281512      -35.9566166101  TIP3      4373            0.0000000000
     35439      4565  TIP3      H2            -30.7134705978      -11.6377507573      -36.6791068527  TIP3      4373            0.0000000000
     35440      4566  TIP3      OH2           -25.5660373728      -10.8642264250      -37.0845162642  TIP3      4374            0.0000000000
     35441      4566  TIP3      H1            -25.9900880778      -10.0237951309      -37.3880781056  TIP3      4374            0.0000000000
     35442      4566  TIP3      H2            -24.8881531408      -10.9893786761      -37.7632005536  TIP3      4374            0.0000000000
     35443      4567  TIP3      OH2           -26.5026907702      -10.6217557322      -25.6076879333  TIP3      4375            0.0000000000
     35444      4567  TIP3      H1            -27.0431028244      -11.3909311730      -25.3153897389  TIP3      4375            0.0000000000
     35445      4567  TIP3      H2            -25.6731560252      -10.7340897114      -25.1190906410  TIP3      4375            0.0000000000
     35446      4568  TIP3      OH2           -24.5381314620      -11.3491150876      -34.1974463733  TIP3      4376            0.0000000000
     35447      4568  TIP3      H1            -24.8361459124      -10.7869056012      -34.9337126387  TIP3      4376            0.0000000000
     35448      4568  TIP3      H2            -24.4680941394      -12.2017458155      -34.6563638235  TIP3      4376            0.0000000000
     35449      4569  TIP3      OH2           -33.4253309958      -11.2298637452      -29.0074041710  TIP3      4377            0.0000000000
     35450      4569  TIP3      H1            -33.3763127966      -10.8152298497      -28.1285207906  TIP3      4377            0.0000000000
     35451      4569  TIP3      H2            -33.8925712582      -12.0575190230      -28.8081776841  TIP3      4377            0.0000000000
     35452      4570  TIP3      OH2           -29.8841660179      -13.6022156659      -41.8394289211  TIP3      4378            0.0000000000
     35453      4570  TIP3      H1            -30.4334948370      -14.2173828692      -41.3079893660  TIP3      4378            0.0000000000
     35454      4570  TIP3      H2            -30.5017356440      -13.2209196226      -42.4673682535  TIP3      4378            0.0000000000
     35455      4571  TIP3      OH2           -36.4937089045      -13.8698343782      -35.1630020716  TIP3      4379            0.0000000000
     35456      4571  TIP3      H1            -36.0900233369      -14.1717440313      -34.3209143329  TIP3      4379            0.0000000000
     35457      4571  TIP3      H2            -36.2540680303      -14.5551416898      -35.7896213011  TIP3      4379            0.0000000000
     35458      4572  TIP3      OH2           -35.4787140769      -13.2762065558      -39.6917171220  TIP3      4380            0.0000000000
     35459      4572  TIP3      H1            -34.9470223261      -12.7233078428      -40.3026450248  TIP3      4380            0.0000000000
     35460      4572  TIP3      H2            -36.1932813788      -12.6860092635      -39.4451458326  TIP3      4380            0.0000000000
     35461      4573  TIP3      OH2           -25.3533827241       -9.7741786727      -29.6630113117  TIP3      4381            0.0000000000
     35462      4573  TIP3      H1            -24.9675030963      -10.4619866336      -30.2439739691  TIP3      4381            0.0000000000
     35463      4573  TIP3      H2            -25.8187162017      -10.2978008922      -28.9886877222  TIP3      4381            0.0000000000
     35464      4574  TIP3      OH2           -28.5568453411      -13.7859216319      -34.8204390407  TIP3      4382            0.0000000000
     35465      4574  TIP3      H1            -29.4936249626      -13.7888955029      -34.5205955125  TIP3      4382            0.0000000000
     35466      4574  TIP3      H2            -28.0683555362      -13.9659367305      -34.0022411691  TIP3      4382            0.0000000000
     35467      4575  TIP3      OH2           -33.6568246862      -12.2414307438      -35.9919524852  TIP3      4383            0.0000000000
     35468      4575  TIP3      H1            -34.5572778701      -12.0820878077      -36.3430381407  TIP3      4383            0.0000000000
     35469      4575  TIP3      H2            -33.4435960876      -13.1113294886      -36.3857531349  TIP3      4383            0.0000000000
     35470      4576  TIP3      OH2           -30.1079705587      -12.1772501453      -38.3207591752  TIP3      4384            0.0000000000
     35471      4576  TIP3      H1            -29.1507470200      -12.0796217532      -38.1581480417  TIP3      4384            0.0000000000
     35472      4576  TIP3      H2            -30.3297085900      -11.5285271851      -39.0117552281  TIP3      4384            0.0000000000
     35473      4577  TIP3      OH2           -24.1383829020      -14.5751655534      -31.5808711107  TIP3      4385            0.0000000000
     35474      4577  TIP3      H1            -24.8209792180      -14.5137415029      -30.8758132865  TIP3      4385            0.0000000000
     35475      4577  TIP3      H2            -24.6520834697      -14.8191509864      -32.3628257667  TIP3      4385            0.0000000000
     35476      4578  TIP3      OH2           -31.3695440392      -11.0299760193      -40.7328514901  TIP3      4386            0.0000000000
     35477      4578  TIP3      H1            -31.9332742711      -11.3652141908      -41.4524723106  TIP3      4386            0.0000000000
     35478      4578  TIP3      H2            -30.5564163565      -10.8027846892      -41.2015371988  TIP3      4386            0.0000000000
     35479      4579  TIP3      OH2           -20.8663272977        0.8398428043      -25.1458017951  TIP3      4387            0.0000000000
     35480      4579  TIP3      H1            -20.8012126883        1.4132715592      -25.9538430871  TIP3      4387            0.0000000000
     35481      4579  TIP3      H2            -20.2213649867        1.3448266372      -24.6388422250  TIP3      4387            0.0000000000
     35482      4580  TIP3      OH2           -33.2246156769       -6.4571477167      -25.6832645095  TIP3      4388            0.0000000000
     35483      4580  TIP3      H1            -32.5314311630       -6.1952275624      -25.0571217317  TIP3      4388            0.0000000000
     35484      4580  TIP3      H2            -34.0126564264       -6.2848387543      -25.1251482612  TIP3      4388            0.0000000000
     35485      4581  TIP3      OH2           -27.2711069437      -11.0385818092      -32.9294742614  TIP3      4389            0.0000000000
     35486      4581  TIP3      H1            -26.6654776349      -11.5682291933      -33.4605550518  TIP3      4389            0.0000000000
     35487      4581  TIP3      H2            -27.4111991887      -11.5872506325      -32.1455446286  TIP3      4389            0.0000000000
     35488      4582  TIP3      OH2           -32.2631121764      -14.8900549877      -36.4828720860  TIP3      4390            0.0000000000
     35489      4582  TIP3      H1            -32.5774382396      -15.8115727812      -36.5104934765  TIP3      4390            0.0000000000
     35490      4582  TIP3      H2            -31.4658763645      -14.9605305461      -37.0283169549  TIP3      4390            0.0000000000
     35491      4583  TIP3      OH2           -28.6229639932      -12.7118161177      -30.5123443210  TIP3      4391            0.0000000000
     35492      4583  TIP3      H1            -29.4483601072      -12.1921008838      -30.4285379387  TIP3      4391            0.0000000000
     35493      4583  TIP3      H2            -28.0701744674      -12.3566242857      -29.7912714688  TIP3      4391            0.0000000000
     35494      4584  TIP3      OH2           -28.0306434538       -6.5127501538      -38.7865479469  TIP3      4392            0.0000000000
     35495      4584  TIP3      H1            -28.8361682890       -6.9591097818      -39.1316027359  TIP3      4392            0.0000000000
     35496      4584  TIP3      H2            -28.2649136534       -6.3750908112      -37.8482902158  TIP3      4392            0.0000000000
     35497      4585  TIP3      OH2           -20.8486427803       -7.2805450209      -30.0220831327  TIP3      4393            0.0000000000
     35498      4585  TIP3      H1            -20.2855923062       -6.7959084806      -30.6527611668  TIP3      4393            0.0000000000
     35499      4585  TIP3      H2            -21.7100557501       -7.2406311620      -30.4826848037  TIP3      4393            0.0000000000
     35500      4586  TIP3      OH2           -24.1466107395      -13.6778730427      -40.5890033462  TIP3      4394            0.0000000000
     35501      4586  TIP3      H1            -25.0963982763      -13.6021808070      -40.8344499941  TIP3      4394            0.0000000000
     35502      4586  TIP3      H2            -23.9792738030      -12.7377304591      -40.3871802895  TIP3      4394            0.0000000000
     35503      4587  TIP3      OH2           -26.5629540265       -6.2195974751      -27.6030751748  TIP3      4395            0.0000000000
     35504      4587  TIP3      H1            -26.8907519196       -6.6563170796      -26.8051390960  TIP3      4395            0.0000000000
     35505      4587  TIP3      H2            -26.7892032118       -5.2930186351      -27.4741855374  TIP3      4395            0.0000000000
     35506      4588  TIP3      OH2           -23.3907478609      -11.7861248786      -39.0373444334  TIP3      4396            0.0000000000
     35507      4588  TIP3      H1            -22.5809949825      -11.7299058718      -38.5007337641  TIP3      4396            0.0000000000
     35508      4588  TIP3      H2            -23.4160003314      -10.9057950470      -39.4708784324  TIP3      4396            0.0000000000
     35509      4589  TIP3      OH2           -32.9015868914       -7.0759511961      -33.0186644960  TIP3      4397            0.0000000000
     35510      4589  TIP3      H1            -32.2452563015       -7.1801898760      -33.7243613597  TIP3      4397            0.0000000000
     35511      4589  TIP3      H2            -32.8614592213       -7.9325133847      -32.5598014805  TIP3      4397            0.0000000000
     35512      4590  TIP3      OH2           -25.9382804225       -5.0258107609      -39.7404538958  TIP3      4398            0.0000000000
     35513      4590  TIP3      H1            -26.3109649892       -4.1744205095      -39.4278990321  TIP3      4398            0.0000000000
     35514      4590  TIP3      H2            -26.6788636220       -5.6510139032      -39.5722274030  TIP3      4398            0.0000000000
     35515      4591  TIP3      OH2           -35.7066608358       -8.8985904668      -28.0213486117  TIP3      4399            0.0000000000
     35516      4591  TIP3      H1            -35.6095105732       -9.1347021750      -27.0882513617  TIP3      4399            0.0000000000
     35517      4591  TIP3      H2            -36.5479576337       -9.3243664360      -28.2330542989  TIP3      4399            0.0000000000
     35518      4592  TIP3      OH2           -28.9122502126       -9.0992554229      -25.6101247805  TIP3      4400            0.0000000000
     35519      4592  TIP3      H1            -29.2357625407       -9.4464733305      -26.4531223820  TIP3      4400            0.0000000000
     35520      4592  TIP3      H2            -27.9947073898       -9.4336379618      -25.5911269950  TIP3      4400            0.0000000000
     35521      4593  TIP3      OH2           -24.2318499670       -3.7863844146      -27.6217302880  TIP3      4401            0.0000000000
     35522      4593  TIP3      H1            -25.1575750474       -3.6181317612      -27.8660011822  TIP3      4401            0.0000000000
     35523      4593  TIP3      H2            -24.2658158431       -3.5036130745      -26.6968894464  TIP3      4401            0.0000000000
     35524      4594  TIP3      OH2           -18.6159866061      -11.6355258134      -39.2047547556  TIP3      4402            0.0000000000
     35525      4594  TIP3      H1            -19.1135967063      -11.9174433121      -39.9872762229  TIP3      4402            0.0000000000
     35526      4594  TIP3      H2            -18.4770735417      -10.6962647400      -39.4739020196  TIP3      4402            0.0000000000
     35527      4595  TIP3      OH2           -18.5616304538       -5.7049300835      -26.4184791903  TIP3      4403            0.0000000000
     35528      4595  TIP3      H1            -19.4692219359       -5.5633956244      -26.7992649501  TIP3      4403            0.0000000000
     35529      4595  TIP3      H2            -18.0399386529       -5.8347799961      -27.2372900357  TIP3      4403            0.0000000000
     35530      4596  TIP3      OH2           -20.2789743690       -2.7891688668      -38.8532985082  TIP3      4404            0.0000000000
     35531      4596  TIP3      H1            -20.6455009612       -3.6146266784      -38.5118695306  TIP3      4404            0.0000000000
     35532      4596  TIP3      H2            -19.9755258692       -2.9981945729      -39.7568308836  TIP3      4404            0.0000000000
     35533      4597  TIP3      OH2           -23.0705621250       -7.9702785903      -31.7329267489  TIP3      4405            0.0000000000
     35534      4597  TIP3      H1            -24.0113331123       -8.1730757604      -31.8492491604  TIP3      4405            0.0000000000
     35535      4597  TIP3      H2            -22.6420145565       -8.7282199533      -32.1729978126  TIP3      4405            0.0000000000
     35536      4598  TIP3      OH2           -30.5639750737       -3.6347064831      -35.6191767748  TIP3      4406            0.0000000000
     35537      4598  TIP3      H1            -30.0588110119       -2.8340098925      -35.8327830256  TIP3      4406            0.0000000000
     35538      4598  TIP3      H2            -31.4368513769       -3.4039279326      -35.9637624183  TIP3      4406            0.0000000000
     35539      4599  TIP3      OH2           -34.9262407617       -8.8322607704      -41.0249071039  TIP3      4407            0.0000000000
     35540      4599  TIP3      H1            -34.2405907740       -8.1975432335      -40.7197636953  TIP3      4407            0.0000000000
     35541      4599  TIP3      H2            -35.7450616601       -8.4560572837      -40.7124773841  TIP3      4407            0.0000000000
     35542      4600  TIP3      OH2           -29.1381873488       -5.9744932763      -36.1114716320  TIP3      4408            0.0000000000
     35543      4600  TIP3      H1            -29.4579740645       -5.0556747350      -36.0299835026  TIP3      4408            0.0000000000
     35544      4600  TIP3      H2            -29.8545207779       -6.4693014224      -35.6666749543  TIP3      4408            0.0000000000
     35545      4601  TIP3      OH2           -28.6766945427       -1.7962744504      -29.7169987643  TIP3      4409            0.0000000000
     35546      4601  TIP3      H1            -28.2337334188       -0.9787553267      -29.9835634749  TIP3      4409            0.0000000000
     35547      4601  TIP3      H2            -28.0729589905       -2.1332431931      -29.0315190530  TIP3      4409            0.0000000000
     35548      4602  TIP3      OH2           -30.4553102915       -0.9849575847      -36.5939322502  TIP3      4410            0.0000000000
     35549      4602  TIP3      H1            -31.4176172241       -0.8462914667      -36.4447798873  TIP3      4410            0.0000000000
     35550      4602  TIP3      H2            -30.0959382910       -0.1482031531      -36.2406719518  TIP3      4410            0.0000000000
     35551      4603  TIP3      OH2           -25.1735325983       -5.7990011526      -30.0915886723  TIP3      4411            0.0000000000
     35552      4603  TIP3      H1            -25.4946053366       -5.9959837623      -29.1869871036  TIP3      4411            0.0000000000
     35553      4603  TIP3      H2            -24.5271882573       -6.5039530411      -30.2558281245  TIP3      4411            0.0000000000
     35554      4604  TIP3      OH2           -22.8787192845       -4.7558545672      -40.9556966026  TIP3      4412            0.0000000000
     35555      4604  TIP3      H1            -22.5723956380       -5.2048665041      -40.1426778698  TIP3      4412            0.0000000000
     35556      4604  TIP3      H2            -23.8329300383       -4.9167239865      -40.8921471343  TIP3      4412            0.0000000000
     35557      4605  TIP3      OH2           -22.3927422035       -1.2368925662      -27.5852723196  TIP3      4413            0.0000000000
     35558      4605  TIP3      H1            -23.0573336945       -1.7087901481      -28.1074030242  TIP3      4413            0.0000000000
     35559      4605  TIP3      H2            -22.1657877556       -0.5171199841      -28.2154556767  TIP3      4413            0.0000000000
     35560      4606  TIP3      OH2           -18.3546145610       -0.3218835924      -40.7374623458  TIP3      4414            0.0000000000
     35561      4606  TIP3      H1            -17.6792613073        0.3224904713      -41.0057395726  TIP3      4414            0.0000000000
     35562      4606  TIP3      H2            -19.0851701783        0.2744211708      -40.4556420448  TIP3      4414            0.0000000000
     35563      4607  TIP3      OH2           -34.2904937722      -13.9723101805      -28.2566300259  TIP3      4415            0.0000000000
     35564      4607  TIP3      H1            -35.1839441492      -13.6056493925      -28.2073555677  TIP3      4415            0.0000000000
     35565      4607  TIP3      H2            -34.3980154089      -14.8043369222      -27.7604964056  TIP3      4415            0.0000000000
     35566      4608  TIP3      OH2           -22.0490858596       -6.0894705342      -38.7346562323  TIP3      4416            0.0000000000
     35567      4608  TIP3      H1            -22.2884363334       -6.8994386845      -38.2396335195  TIP3      4416            0.0000000000
     35568      4608  TIP3      H2            -21.0983833641       -6.0228492622      -38.5429045362  TIP3      4416            0.0000000000
     35569      4609  TIP3      OH2           -34.6223244593       -2.1357144186      -29.8128092407  TIP3      4417            0.0000000000
     35570      4609  TIP3      H1            -34.4054634105       -3.0806817701      -29.7830058919  TIP3      4417            0.0000000000
     35571      4609  TIP3      H2            -34.4299581403       -1.8900124261      -28.8979745168  TIP3      4417            0.0000000000
     35572      4610  TIP3      OH2           -29.9622710029       -4.0495254961      -40.0845205635  TIP3      4418            0.0000000000
     35573      4610  TIP3      H1            -29.6579684798       -4.6488536354      -39.3755476048  TIP3      4418            0.0000000000
     35574      4610  TIP3      H2            -29.8146565980       -3.1733796515      -39.6773047967  TIP3      4418            0.0000000000
     35575      4611  TIP3      OH2           -33.4719954404       -6.8670694470      -39.6355310924  TIP3      4419            0.0000000000
     35576      4611  TIP3      H1            -34.0845621681       -6.4563441022      -38.9907174613  TIP3      4419            0.0000000000
     35577      4611  TIP3      H2            -32.8703963182       -6.1324042753      -39.8252381495  TIP3      4419            0.0000000000
     35578      4612  TIP3      OH2           -25.5413814950      -14.1795645539      -29.2471255707  TIP3      4420            0.0000000000
     35579      4612  TIP3      H1            -24.8417689877      -14.1227177667      -28.5983341907  TIP3      4420            0.0000000000
     35580      4612  TIP3      H2            -25.9497411902      -15.0492253411      -29.0495044250  TIP3      4420            0.0000000000
     35581      4613  TIP3      OH2           -24.7169681369      -14.6512923185      -38.1553737158  TIP3      4421            0.0000000000
     35582      4613  TIP3      H1            -24.6450031629      -14.1078303642      -38.9591663610  TIP3      4421            0.0000000000
     35583      4613  TIP3      H2            -24.2817056358      -14.1258422909      -37.4669802648  TIP3      4421            0.0000000000
     35584      4614  TIP3      OH2           -27.1579247761       -2.4585790366      -39.3644321556  TIP3      4422            0.0000000000
     35585      4614  TIP3      H1            -27.9312668477       -1.8905508030      -39.2549258097  TIP3      4422            0.0000000000
     35586      4614  TIP3      H2            -26.5662466037       -1.9436946635      -39.9457870792  TIP3      4422            0.0000000000
     35587      4615  TIP3      OH2           -27.5598183682      -12.8864383954      -37.3525547504  TIP3      4423            0.0000000000
     35588      4615  TIP3      H1            -26.8147537478      -12.2609657897      -37.3042894300  TIP3      4423            0.0000000000
     35589      4615  TIP3      H2            -27.8562645380      -12.9934052478      -36.4275539664  TIP3      4423            0.0000000000
     35590      4616  TIP3      OH2           -27.0600231691      -11.8458555514      -28.1505295408  TIP3      4424            0.0000000000
     35591      4616  TIP3      H1            -26.9550003752      -11.2714953095      -27.3697494450  TIP3      4424            0.0000000000
     35592      4616  TIP3      H2            -26.3781030713      -12.5239025984      -28.0795040706  TIP3      4424            0.0000000000
     35593      4617  TIP3      OH2           -26.7010909157      -15.8131842778      -36.4704210452  TIP3      4425            0.0000000000
     35594      4617  TIP3      H1            -27.0498395003      -15.1618070314      -35.8378119507  TIP3      4425            0.0000000000
     35595      4617  TIP3      H2            -26.0264250662      -15.2540214886      -36.9100275966  TIP3      4425            0.0000000000
     35596      4618  TIP3      OH2           -29.7941257438       -1.3954787909      -39.3365496362  TIP3      4426            0.0000000000
     35597      4618  TIP3      H1            -29.5535100328       -0.5590197497      -39.7863076255  TIP3      4426            0.0000000000
     35598      4618  TIP3      H2            -30.0058570658       -1.0702033078      -38.4255079020  TIP3      4426            0.0000000000
     35599      4619  TIP3      OH2           -31.0538061626      -14.7112169808      -39.6900402518  TIP3      4427            0.0000000000
     35600      4619  TIP3      H1            -31.1290530417      -13.7924194544      -39.3629734685  TIP3      4427            0.0000000000
     35601      4619  TIP3      H2            -30.1389546253      -14.9313120474      -39.4284582574  TIP3      4427            0.0000000000
     35602      4620  TIP3      OH2           -20.8912800989      -13.9978370974      -27.2488715365  TIP3      4428            0.0000000000
     35603      4620  TIP3      H1            -21.7667041467      -13.5917852564      -27.4957002417  TIP3      4428            0.0000000000
     35604      4620  TIP3      H2            -20.4999492431      -13.9818430588      -28.1487068534  TIP3      4428            0.0000000000
     35605      4621  TIP3      OH2           -22.2301378777      -10.1787990151      -33.3046160568  TIP3      4429            0.0000000000
     35606      4621  TIP3      H1            -23.0588278007      -10.6242204506      -33.5679505032  TIP3      4429            0.0000000000
     35607      4621  TIP3      H2            -21.7507157672      -10.8611475207      -32.7838921790  TIP3      4429            0.0000000000
     35608      4622  TIP3      OH2           -32.8314908472       -4.1409817394      -40.8022979216  TIP3      4430            0.0000000000
     35609      4622  TIP3      H1            -32.1508723064       -3.6853720201      -40.2963963613  TIP3      4430            0.0000000000
     35610      4622  TIP3      H2            -32.3137375483       -4.7813618371      -41.3329063742  TIP3      4430            0.0000000000
     35611      4623  TIP3      OH2           -34.3737662056      -11.5826979595      -41.5513959875  TIP3      4431            0.0000000000
     35612      4623  TIP3      H1            -34.4334343590      -10.6323823240      -41.3570591701  TIP3      4431            0.0000000000
     35613      4623  TIP3      H2            -35.2729822012      -11.7913336166      -41.8108328530  TIP3      4431            0.0000000000
     35614      4624  TIP3      OH2           -21.1761280553       -0.9136130944      -31.6273968588  TIP3      4432            0.0000000000
     35615      4624  TIP3      H1            -21.2622867781       -0.2350502073      -32.3242543601  TIP3      4432            0.0000000000
     35616      4624  TIP3      H2            -20.2138563349       -0.8658933976      -31.4559125510  TIP3      4432            0.0000000000
     35617      4625  TIP3      OH2           -33.7014330145      -16.7910532265      -32.8305707770  TIP3      4433            0.0000000000
     35618      4625  TIP3      H1            -33.8714324277      -16.7945715423      -33.8024531620  TIP3      4433            0.0000000000
     35619      4625  TIP3      H2            -34.0969830797      -17.6530088542      -32.5666815468  TIP3      4433            0.0000000000
     35620      4626  TIP3      OH2           -34.6918327912       -2.8697551023      -36.6516472810  TIP3      4434            0.0000000000
     35621      4626  TIP3      H1            -35.5669767238       -2.4702730363      -36.7144900098  TIP3      4434            0.0000000000
     35622      4626  TIP3      H2            -34.2482489927       -2.3922158763      -37.3658434278  TIP3      4434            0.0000000000
     35623      4627  TIP3      OH2           -35.3063453373       -0.2404876854      -25.4139428802  TIP3      4435            0.0000000000
     35624      4627  TIP3      H1            -34.9229269325       -0.4664445586      -24.5734227136  TIP3      4435            0.0000000000
     35625      4627  TIP3      H2            -35.9109455330       -1.0083733593      -25.5493373338  TIP3      4435            0.0000000000
     35626      4628  TIP3      OH2           -26.3370546302       -1.7380468747      -41.8057443915  TIP3      4436            0.0000000000
     35627      4628  TIP3      H1            -27.1603262802       -2.2407185436      -41.8931269620  TIP3      4436            0.0000000000
     35628      4628  TIP3      H2            -25.8035942847       -2.1816846481      -42.4701729773  TIP3      4436            0.0000000000
     35629      4629  TIP3      OH2           -24.3695890215       -2.8958076348      -24.9895954313  TIP3      4437            0.0000000000
     35630      4629  TIP3      H1            -24.6101723423       -3.8118666332      -24.8085695993  TIP3      4437            0.0000000000
     35631      4629  TIP3      H2            -23.5283605705       -2.8344163837      -24.4992123875  TIP3      4437            0.0000000000
     35632      4630  TIP3      OH2           -22.1351443583       -2.0436367923      -42.1950071815  TIP3      4438            0.0000000000
     35633      4630  TIP3      H1            -21.8666610200       -2.8314892700      -41.6916691953  TIP3      4438            0.0000000000
     35634      4630  TIP3      H2            -21.3505774512       -1.7988996660      -42.7041653131  TIP3      4438            0.0000000000
     35635      4631  TIP3      OH2           -35.4342767897       -6.4993611680      -24.3936363115  TIP3      4439            0.0000000000
     35636      4631  TIP3      H1            -35.4394042924       -7.4147172804      -24.7108964109  TIP3      4439            0.0000000000
     35637      4631  TIP3      H2            -36.2712761851       -6.1594437048      -24.7963449898  TIP3      4439            0.0000000000
     35638      4632  TIP3      OH2           -31.1681842875       -6.0181135355      -42.2170645321  TIP3      4440            0.0000000000
     35639      4632  TIP3      H1            -31.1221128827       -6.8607504100      -41.7522057953  TIP3      4440            0.0000000000
     35640      4632  TIP3      H2            -30.6376274109       -6.2860342523      -42.9939545217  TIP3      4440            0.0000000000
     35641      4633  TIP3      OH2           -28.8802918303       -6.4345765931      -24.9745482100  TIP3      4441            0.0000000000
     35642      4633  TIP3      H1            -29.2286033626       -6.1539464908      -25.8430089305  TIP3      4441            0.0000000000
     35643      4633  TIP3      H2            -28.8249995154       -7.4192074524      -25.0652677577  TIP3      4441            0.0000000000
     35644      4634  TIP3      OH2           -23.1942656057       -6.5988411019      -27.6233636322  TIP3      4442            0.0000000000
     35645      4634  TIP3      H1            -22.3977843358       -6.0295395025      -27.6795434988  TIP3      4442            0.0000000000
     35646      4634  TIP3      H2            -23.8881002475       -5.9297215257      -27.5618033439  TIP3      4442            0.0000000000
     35647      4635  TIP3      OH2           -34.7406900906       -9.2368253103      -25.0412336198  TIP3      4443            0.0000000000
     35648      4635  TIP3      H1            -34.2465148039      -10.0777061009      -25.1218100775  TIP3      4443            0.0000000000
     35649      4635  TIP3      H2            -34.9264790104       -9.2489530060      -24.1039151218  TIP3      4443            0.0000000000
     35650      4636  TIP3      OH2           -30.0339479071       -8.0664441769      -39.9358377153  TIP3      4444            0.0000000000
     35651      4636  TIP3      H1            -30.5515486297       -8.6047276381      -39.3166331103  TIP3      4444            0.0000000000
     35652      4636  TIP3      H2            -29.7359259125       -8.7547086079      -40.5784206549  TIP3      4444            0.0000000000
     35653      4637  TIP3      OH2           -30.7930245991      -10.2806622344      -27.6564024652  TIP3      4445            0.0000000000
     35654      4637  TIP3      H1            -31.4044191537       -9.5691748677      -27.3899906765  TIP3      4445            0.0000000000
     35655      4637  TIP3      H2            -30.3975050483       -9.9094430384      -28.4640879336  TIP3      4445            0.0000000000
     35656      4638  TIP3      OH2           -28.9785234675       -9.8406140324      -41.7466544963  TIP3      4446            0.0000000000
     35657      4638  TIP3      H1            -29.0796996029      -10.0489275816      -42.6840729314  TIP3      4446            0.0000000000
     35658      4638  TIP3      H2            -27.9996728682       -9.7776377273      -41.6338235354  TIP3      4446            0.0000000000
     35659      4639  TIP3      OH2           -25.7308824734       -7.7312044845      -24.3449183264  TIP3      4447            0.0000000000
     35660      4639  TIP3      H1            -24.7733236941       -7.7283482331      -24.4463156428  TIP3      4447            0.0000000000
     35661      4639  TIP3      H2            -25.9155357149       -8.4454091694      -23.7198981567  TIP3      4447            0.0000000000
     35662      4640  TIP3      OH2           -19.7978331202       -7.4076579749       42.7566286165  TIP3      4448            0.0000000000
     35663      4640  TIP3      H1            -19.8968745899       -7.9058368156       41.9277320587  TIP3      4448            0.0000000000
     35664      4640  TIP3      H2            -19.5741170543       -6.5087682973       42.4877794537  TIP3      4448            0.0000000000
     35665      4641  TIP3      OH2           -30.3481741104      -12.8997301215      -26.5924415826  TIP3      4449            0.0000000000
     35666      4641  TIP3      H1            -30.2763280782      -13.6089558845      -27.2554314204  TIP3      4449            0.0000000000
     35667      4641  TIP3      H2            -30.4487815028      -12.0945229514      -27.1407524541  TIP3      4449            0.0000000000
     35668      4642  TIP3      OH2           -29.9788748619      -14.5250184242      -29.0450651714  TIP3      4450            0.0000000000
     35669      4642  TIP3      H1            -29.4725015579      -14.0582534841      -29.7522950199  TIP3      4450            0.0000000000
     35670      4642  TIP3      H2            -30.8743277891      -14.5998856169      -29.4475522937  TIP3      4450            0.0000000000
     35671      4643  TIP3      OH2           -28.4351928622       -9.0245386477      -28.7983430064  TIP3      4451            0.0000000000
     35672      4643  TIP3      H1            -27.6924980508       -9.1977955044      -29.3812372627  TIP3      4451            0.0000000000
     35673      4643  TIP3      H2            -28.8084185973       -8.1972300272      -29.1424565883  TIP3      4451            0.0000000000
     35674      4644  TIP3      OH2           -24.0672712151      -11.2975974738      -23.8127137381  TIP3      4452            0.0000000000
     35675      4644  TIP3      H1            -23.7750247606      -12.2032855437      -23.8844262054  TIP3      4452            0.0000000000
     35676      4644  TIP3      H2            -23.2212022792      -10.8007070552      -23.8163498620  TIP3      4452            0.0000000000
     35677      4645  TIP3      OH2           -22.7180775144       -8.4900972546      -25.7203441192  TIP3      4453            0.0000000000
     35678      4645  TIP3      H1            -22.9406160552       -7.7421308803      -26.2996152361  TIP3      4453            0.0000000000
     35679      4645  TIP3      H2            -21.7498412398       -8.5121548406      -25.8268744411  TIP3      4453            0.0000000000
     35680      4646  TIP3      OH2           -32.0254478986      -11.5917336223      -24.7592333157  TIP3      4454            0.0000000000
     35681      4646  TIP3      H1            -32.7255348891      -12.2635013944      -24.8223631052  TIP3      4454            0.0000000000
     35682      4646  TIP3      H2            -31.3036280910      -12.0145947937      -25.2642179323  TIP3      4454            0.0000000000
     35683      4647  TIP3      OH2           -29.1864679137      -17.0878448920      -28.6539166793  TIP3      4455            0.0000000000
     35684      4647  TIP3      H1            -29.3698058677      -16.1249959314      -28.7471161933  TIP3      4455            0.0000000000
     35685      4647  TIP3      H2            -29.9391164128      -17.4594586222      -29.1483266758  TIP3      4455            0.0000000000
     35686      4648  TIP3      OH2           -27.8950203281      -12.7931207837      -25.0076369447  TIP3      4456            0.0000000000
     35687      4648  TIP3      H1            -28.2914602123      -12.9623990907      -24.1335537448  TIP3      4456            0.0000000000
     35688      4648  TIP3      H2            -28.6924812830      -12.9382417247      -25.5608661503  TIP3      4456            0.0000000000
     35689      4649  TIP3      OH2           -25.2005224919      -13.6239597099      -25.9290935145  TIP3      4457            0.0000000000
     35690      4649  TIP3      H1            -26.1777464411      -13.5529040655      -25.8586083381  TIP3      4457            0.0000000000
     35691      4649  TIP3      H2            -25.0040751670      -14.2774487005      -25.2467136580  TIP3      4457            0.0000000000
     35692      4650  TIP3      OH2           -23.5683226056      -14.9930045887      -23.9977941774  TIP3      4458            0.0000000000
     35693      4650  TIP3      H1            -23.7492377395      -15.9741421937      -23.9855987543  TIP3      4458            0.0000000000
     35694      4650  TIP3      H2            -23.9041078936      -14.7251851701      -23.1268260019  TIP3      4458            0.0000000000
     35695      4651  TIP3      OH2           -33.7888835837      -13.7167211900      -24.9215462268  TIP3      4459            0.0000000000
     35696      4651  TIP3      H1            -33.5742469185      -14.4576146458      -25.5132421729  TIP3      4459            0.0000000000
     35697      4651  TIP3      H2            -33.8671247135      -14.1644146688      -24.0527505138  TIP3      4459            0.0000000000
     35698      4652  TIP3      OH2           -29.0065363166      -17.7146549419      -25.9461765958  TIP3      4460            0.0000000000
     35699      4652  TIP3      H1            -28.3235834259      -18.4155108969      -25.9563655295  TIP3      4460            0.0000000000
     35700      4652  TIP3      H2            -29.1039897586      -17.5525766258      -26.9030089214  TIP3      4460            0.0000000000
     35701      4653  TIP3      OH2           -28.5604150509      -16.0206567299      -23.8977542329  TIP3      4461            0.0000000000
     35702      4653  TIP3      H1            -28.7784019011      -16.6145194159      -24.6482839800  TIP3      4461            0.0000000000
     35703      4653  TIP3      H2            -29.2453140630      -15.3355399902      -23.9359252833  TIP3      4461            0.0000000000
     35704      4654  TIP3      OH2           -29.1441472700        0.7798111069      -40.7961601608  TIP3      4462            0.0000000000
     35705      4654  TIP3      H1            -28.1864126119        0.9273362702      -40.5976307394  TIP3      4462            0.0000000000
     35706      4654  TIP3      H2            -29.3361944261        1.5330053921      -41.3602426042  TIP3      4462            0.0000000000
     35707      4655  TIP3      OH2           -35.5411476132       -4.5689629193      -41.1928704075  TIP3      4463            0.0000000000
     35708      4655  TIP3      H1            -34.5903602310       -4.4881717599      -40.9722405793  TIP3      4463            0.0000000000
     35709      4655  TIP3      H2            -35.5392538834       -5.1790699735      -41.9371278550  TIP3      4463            0.0000000000
     35710      4656  TIP3      OH2            36.8743928296        0.8950012833      -36.3188807216  TIP3      4464            0.0000000000
     35711      4656  TIP3      H1             36.0148524304        0.6391455501      -36.6963532450  TIP3      4464            0.0000000000
     35712      4656  TIP3      H2             37.0150229183        0.2232094231      -35.6090268340  TIP3      4464            0.0000000000
     35713      4657  TIP3      OH2           -36.0445160501       -1.0298610596      -34.4068995355  TIP3      4465            0.0000000000
     35714      4657  TIP3      H1            -36.3253928277       -1.9368987469      -34.1689470058  TIP3      4465            0.0000000000
     35715      4657  TIP3      H2            -35.7477654421       -0.7331333498      -33.5270831692  TIP3      4465            0.0000000000
     35716      4658  TIP3      OH2           -18.4272346174       -0.2978295331      -31.4094150049  TIP3      4466            0.0000000000
     35717      4658  TIP3      H1            -18.4284181502       -0.0904870784      -30.4572934775  TIP3      4466            0.0000000000
     35718      4658  TIP3      H2            -17.7669057766        0.3210342509      -31.7411300537  TIP3      4466            0.0000000000
     35719      4659  TIP3      OH2           -18.6503433255       -0.8702974948      -28.6127487530  TIP3      4467            0.0000000000
     35720      4659  TIP3      H1            -19.3948052018       -1.4697517088      -28.8460399189  TIP3      4467            0.0000000000
     35721      4659  TIP3      H2            -18.5075413815       -1.0917345577      -27.6929306581  TIP3      4467            0.0000000000
     35722      4660  TIP3      OH2           -19.1013332146       -6.6340345931      -38.3873885057  TIP3      4468            0.0000000000
     35723      4660  TIP3      H1            -18.2523003394       -6.2237121316      -38.1640248029  TIP3      4468            0.0000000000
     35724      4660  TIP3      H2            -19.1394443136       -7.3388112896      -37.7048553510  TIP3      4468            0.0000000000
     35725      4661  TIP3      OH2           -18.7637278715       -8.5478548586      -36.4934175720  TIP3      4469            0.0000000000
     35726      4661  TIP3      H1            -19.5142865369       -9.0570259839      -36.1153769651  TIP3      4469            0.0000000000
     35727      4661  TIP3      H2            -18.1665039720       -8.4238747639      -35.7269320342  TIP3      4469            0.0000000000
     35728      4662  TIP3      OH2           -18.9944055370       -5.8691441937      -31.4975926575  TIP3      4470            0.0000000000
     35729      4662  TIP3      H1            -18.1856098398       -6.2393300880      -31.8882063750  TIP3      4470            0.0000000000
     35730      4662  TIP3      H2            -18.8655701848       -4.9148469339      -31.6877964481  TIP3      4470            0.0000000000
     35731      4663  TIP3      OH2           -20.4381549545       -2.9520390857      -29.2261651066  TIP3      4471            0.0000000000
     35732      4663  TIP3      H1            -21.1467897618       -2.6135763920      -28.6520695620  TIP3      4471            0.0000000000
     35733      4663  TIP3      H2            -20.9807275180       -3.3511509888      -29.9482069962  TIP3      4471            0.0000000000
     35734      4664  TIP3      OH2           -18.4602247742       -8.7299525847      -40.1292364281  TIP3      4472            0.0000000000
     35735      4664  TIP3      H1            -19.0622520947       -8.3777645811      -40.8081396551  TIP3      4472            0.0000000000
     35736      4664  TIP3      H2            -18.5385110997       -8.0342626081      -39.4465860938  TIP3      4472            0.0000000000
     35737      4665  TIP3      OH2           -20.5073168682      -11.4936215384      -41.4832546420  TIP3      4473            0.0000000000
     35738      4665  TIP3      H1            -20.0291977967      -10.8861551460      -42.0794320112  TIP3      4473            0.0000000000
     35739      4665  TIP3      H2            -20.2724906396      -12.3118808026      -41.9691914837  TIP3      4473            0.0000000000
     35740      4666  TIP3      OH2           -20.9509637295      -10.0942150660      -35.9315581551  TIP3      4474            0.0000000000
     35741      4666  TIP3      H1            -21.0873632938      -11.0450775437      -35.9258605392  TIP3      4474            0.0000000000
     35742      4666  TIP3      H2            -21.2499072231       -9.8528787538      -35.0328261512  TIP3      4474            0.0000000000
     35743      4667  TIP3      OH2           -35.9634093073       -8.0215512443      -31.8780113192  TIP3      4475            0.0000000000
     35744      4667  TIP3      H1            -35.7644723624       -8.0513022900      -32.8435860219  TIP3      4475            0.0000000000
     35745      4667  TIP3      H2            -35.0694878350       -8.1459569104      -31.4956159441  TIP3      4475            0.0000000000
     35746      4668  TIP3      OH2           -20.0646531479       -8.1166257726      -26.3493848363  TIP3      4476            0.0000000000
     35747      4668  TIP3      H1            -19.4928336696       -8.8650064801      -26.0726276842  TIP3      4476            0.0000000000
     35748      4668  TIP3      H2            -19.4839559266       -7.3519881228      -26.1912867198  TIP3      4476            0.0000000000
     35749      4669  TIP3      OH2           -18.5902310913      -10.2175336997      -25.5927298085  TIP3      4477            0.0000000000
     35750      4669  TIP3      H1            -19.4702671602      -10.6041186864      -25.7403743237  TIP3      4477            0.0000000000
     35751      4669  TIP3      H2            -18.0080941055      -10.9862158194      -25.6515418545  TIP3      4477            0.0000000000
     35752      4670  TIP3      OH2           -20.8618726855      -14.0389859684      -42.3875205724  TIP3      4478            0.0000000000
     35753      4670  TIP3      H1            -20.2229152053      -14.5530426151      -41.8561286830  TIP3      4478            0.0000000000
     35754      4670  TIP3      H2            -21.7113020014      -14.4944879494      -42.3407982907  TIP3      4478            0.0000000000
     35755      4671  TIP3      OH2           -21.2841058895      -12.5611421919      -37.5931401151  TIP3      4479            0.0000000000
     35756      4671  TIP3      H1            -20.9182753270      -13.4073127954      -37.2359715961  TIP3      4479            0.0000000000
     35757      4671  TIP3      H2            -20.4691762058      -12.0645448594      -37.7911495140  TIP3      4479            0.0000000000
     35758      4672  TIP3      OH2           -20.6318234230      -11.9531587214      -32.0202143455  TIP3      4480            0.0000000000
     35759      4672  TIP3      H1            -19.6704180003      -11.7244641531      -32.0379357188  TIP3      4480            0.0000000000
     35760      4672  TIP3      H2            -20.8168396194      -11.8147849571      -31.0792698938  TIP3      4480            0.0000000000
     35761      4673  TIP3      OH2           -20.5705287921      -11.2436805229      -29.2167582892  TIP3      4481            0.0000000000
     35762      4673  TIP3      H1            -21.4438472431      -10.9231323658      -28.9008389911  TIP3      4481            0.0000000000
     35763      4673  TIP3      H2            -20.1252995331      -10.3910435177      -29.4438474165  TIP3      4481            0.0000000000
     35764      4674  TIP3      OH2           -36.1127995494      -12.7575853003      -25.7100157139  TIP3      4482            0.0000000000
     35765      4674  TIP3      H1            -35.2159552858      -13.0201609925      -25.4464831171  TIP3      4482            0.0000000000
     35766      4674  TIP3      H2            -36.6842850503      -13.4800069613      -25.3733037935  TIP3      4482            0.0000000000
     35767      4675  TIP3      OH2           -20.6585630711      -15.1962949554      -37.4308316075  TIP3      4483            0.0000000000
     35768      4675  TIP3      H1            -20.3744115421      -15.6065894973      -36.5820077594  TIP3      4483            0.0000000000
     35769      4675  TIP3      H2            -21.1907157109      -15.9148449363      -37.8379827573  TIP3      4483            0.0000000000
     35770      4676  TIP3      OH2           -35.1726024812      -14.4618788978      -32.8171255168  TIP3      4484            0.0000000000
     35771      4676  TIP3      H1            -34.6265172005      -15.2461809087      -32.6000251308  TIP3      4484            0.0000000000
     35772      4676  TIP3      H2            -34.6118157609      -13.7481069418      -32.4634169415  TIP3      4484            0.0000000000
     35773      4677  TIP3      OH2           -36.1106984813      -10.8863691779      -31.4123834154  TIP3      4485            0.0000000000
     35774      4677  TIP3      H1            -36.0319394322      -11.2378977587      -32.3168679583  TIP3      4485            0.0000000000
     35775      4677  TIP3      H2            -36.3329815781       -9.9841665373      -31.6533948041  TIP3      4485            0.0000000000
     35776      4678  TIP3      OH2           -18.7992567141      -15.1435315783      -40.8574052094  TIP3      4486            0.0000000000
     35777      4678  TIP3      H1            -18.3615396854      -15.8634647525      -41.3476604385  TIP3      4486            0.0000000000
     35778      4678  TIP3      H2            -18.0529119444      -14.5137562108      -40.8333650087  TIP3      4486            0.0000000000
     35779      4679  TIP3      OH2            37.3625909819      -15.1433870637      -38.0024055346  TIP3      4487            0.0000000000
     35780      4679  TIP3      H1             36.4139815486      -14.9469092710      -37.9443830289  TIP3      4487            0.0000000000
     35781      4679  TIP3      H2             37.6538451393      -14.4982488604      -38.6815582586  TIP3      4487            0.0000000000
     35782      4680  TIP3      OH2           -21.7332067098       -0.1982520366      -35.7900622446  TIP3      4488            0.0000000000
     35783      4680  TIP3      H1            -21.0496006698       -0.4965942076      -36.4145716549  TIP3      4488            0.0000000000
     35784      4680  TIP3      H2            -21.2189403561        0.3077487493      -35.1440238611  TIP3      4488            0.0000000000
     35785      4681  TIP3      OH2            37.0743101806      -16.5248498894      -29.3307379685  TIP3      4489            0.0000000000
     35786      4681  TIP3      H1             36.3318718246      -16.7316647175      -28.7486897451  TIP3      4489            0.0000000000
     35787      4681  TIP3      H2             36.5640085031      -15.9573414275      -29.9372275022  TIP3      4489            0.0000000000
     35788      4682  TIP3      OH2           -34.2529204025       -3.2154940303      -25.2309871528  TIP3      4490            0.0000000000
     35789      4682  TIP3      H1            -35.0876348830       -3.1058726331      -25.7094932422  TIP3      4490            0.0000000000
     35790      4682  TIP3      H2            -34.5824866375       -3.3901864216      -24.3486020321  TIP3      4490            0.0000000000
     35791      4683  TIP3      OH2           -31.3665985591       -2.2659567977      -28.9919001501  TIP3      4491            0.0000000000
     35792      4683  TIP3      H1            -31.7502425715       -1.4246196178      -29.2911146773  TIP3      4491            0.0000000000
     35793      4683  TIP3      H2            -30.4474755017       -2.1734291091      -29.3117639990  TIP3      4491            0.0000000000
     35794      4684  TIP3      OH2           -27.0564844008       -0.8467837112      -26.0558902954  TIP3      4492            0.0000000000
     35795      4684  TIP3      H1            -26.8479703500       -1.2308574444      -25.2012043393  TIP3      4492            0.0000000000
     35796      4684  TIP3      H2            -26.1742595677       -0.5737259544      -26.3865952554  TIP3      4492            0.0000000000
     35797      4685  TIP3      OH2           -24.7727091914        0.3780987086      -26.7435497341  TIP3      4493            0.0000000000
     35798      4685  TIP3      H1            -24.0284664967       -0.1602564075      -27.0658041085  TIP3      4493            0.0000000000
     35799      4685  TIP3      H2            -24.3359774219        0.8577249794      -26.0323161645  TIP3      4493            0.0000000000
     35800      4686  TIP3      OH2           -19.8230979635      -16.9960658376      -27.6465676283  TIP3      4494            0.0000000000
     35801      4686  TIP3      H1            -20.5825339131      -16.6939121241      -28.1642259215  TIP3      4494            0.0000000000
     35802      4686  TIP3      H2            -19.5522173697      -17.7830540980      -28.1747271971  TIP3      4494            0.0000000000
     35803      4687  TIP3      OH2           -33.9331620003        0.9799804089      -28.9895418538  TIP3      4495            0.0000000000
     35804      4687  TIP3      H1            -34.6926307804        1.4290917933      -29.4121410667  TIP3      4495            0.0000000000
     35805      4687  TIP3      H2            -34.3119652694        0.7471257445      -28.1332006914  TIP3      4495            0.0000000000
     35806      4688  TIP3      OH2           -31.4757585027        0.5407760574      -29.9659079407  TIP3      4496            0.0000000000
     35807      4688  TIP3      H1            -32.3544088445        0.6904465821      -29.5410171977  TIP3      4496            0.0000000000
     35808      4688  TIP3      H2            -31.5359650446        1.1414507074      -30.7267403327  TIP3      4496            0.0000000000
     35809      4689  TIP3      OH2           -26.7816433321        0.4402377828      -30.7742149142  TIP3      4497            0.0000000000
     35810      4689  TIP3      H1            -27.2437301612        0.9989419345      -31.4223202253  TIP3      4497            0.0000000000
     35811      4689  TIP3      H2            -26.6486701365        1.0724833513      -30.0370973584  TIP3      4497            0.0000000000
     35812      4690  TIP3      OH2           -24.4969891836       -0.7394598379      -29.7095529184  TIP3      4498            0.0000000000
     35813      4690  TIP3      H1            -25.3381684593       -0.4688894614      -30.1146973837  TIP3      4498            0.0000000000
     35814      4690  TIP3      H2            -23.9959902134        0.0892522102      -29.8242983794  TIP3      4498            0.0000000000
     35815      4691  TIP3      OH2           -21.9190655628        0.8144924005      -29.5103953499  TIP3      4499            0.0000000000
     35816      4691  TIP3      H1            -21.9393426432        1.7842830967      -29.7215875961  TIP3      4499            0.0000000000
     35817      4691  TIP3      H2            -21.6879065337        0.4586064795      -30.3878150170  TIP3      4499            0.0000000000
     35818      4692  TIP3      OH2           -34.5110469631       -0.3980598266      -32.0964607019  TIP3      4500            0.0000000000
     35819      4692  TIP3      H1            -34.5539416511       -0.8286511672      -31.2171431877  TIP3      4500            0.0000000000
     35820      4692  TIP3      H2            -33.7002345790       -0.7904776966      -32.4711326750  TIP3      4500            0.0000000000
     35821      4693  TIP3      OH2           -32.4128591374       -1.7013908904      -33.4378607962  TIP3      4501            0.0000000000
     35822      4693  TIP3      H1            -32.5991601497       -2.6255145866      -33.1799707609  TIP3      4501            0.0000000000
     35823      4693  TIP3      H2            -31.5659380947       -1.5346286341      -32.9715948744  TIP3      4501            0.0000000000
     35824      4694  TIP3      OH2           -29.8072010529       -1.2000387602      -32.5407680512  TIP3      4502            0.0000000000
     35825      4694  TIP3      H1            -29.6604455331       -2.1266877063      -32.8050338328  TIP3      4502            0.0000000000
     35826      4694  TIP3      H2            -29.7685337790       -1.2582589314      -31.5756352226  TIP3      4502            0.0000000000
     35827      4695  TIP3      OH2           -26.3613122405      -15.5528291133      -33.4089836448  TIP3      4503            0.0000000000
     35828      4695  TIP3      H1            -27.0471370116      -16.1862602826      -33.1257388191  TIP3      4503            0.0000000000
     35829      4695  TIP3      H2            -25.8138787536      -16.0889880017      -33.9921252290  TIP3      4503            0.0000000000
     35830      4696  TIP3      OH2           -21.1590807126      -17.5556208483      -33.3899399901  TIP3      4504            0.0000000000
     35831      4696  TIP3      H1            -20.6314876767      -16.8632075616      -33.8664335611  TIP3      4504            0.0000000000
     35832      4696  TIP3      H2            -22.0733300250      -17.1862250088      -33.5455208853  TIP3      4504            0.0000000000
     35833      4697  TIP3      OH2           -19.5490581138      -16.2761529914      -35.0518717450  TIP3      4505            0.0000000000
     35834      4697  TIP3      H1            -18.8529731711      -16.8082070666      -35.5080200980  TIP3      4505            0.0000000000
     35835      4697  TIP3      H2            -19.0566893750      -15.4222997291      -34.9462975825  TIP3      4505            0.0000000000
     35836      4698  TIP3      OH2           -34.0128688869      -16.9506877874      -35.5357253600  TIP3      4506            0.0000000000
     35837      4698  TIP3      H1            -34.7716440741      -17.1329061217      -36.1299128586  TIP3      4506            0.0000000000
     35838      4698  TIP3      H2            -33.5072141774      -17.7784167941      -35.6464787485  TIP3      4506            0.0000000000
     35839      4699  TIP3      OH2           -34.7725424873      -17.0369254206      -39.6458711352  TIP3      4507            0.0000000000
     35840      4699  TIP3      H1            -34.6386664144      -16.5004106871      -40.4444672405  TIP3      4507            0.0000000000
     35841      4699  TIP3      H2            -35.6253172474      -16.7344509121      -39.2984701491  TIP3      4507            0.0000000000
     35842      4700  TIP3      OH2           -29.5282747904      -17.0017691614      -35.7705760510  TIP3      4508            0.0000000000
     35843      4700  TIP3      H1            -28.6286405540      -16.6458347999      -35.8484326023  TIP3      4508            0.0000000000
     35844      4700  TIP3      H2            -29.5543733659      -17.2223534796      -34.8405912467  TIP3      4508            0.0000000000
     35845      4701  TIP3      OH2           -23.7483690960      -17.0187503506      -34.1437471712  TIP3      4509            0.0000000000
     35846      4701  TIP3      H1            -23.8833577976      -16.8679852718      -35.0890473091  TIP3      4509            0.0000000000
     35847      4701  TIP3      H2            -24.2099354024      -17.8851080008      -34.0218922174  TIP3      4509            0.0000000000
     35848      4702  TIP3      OH2           -22.5483105919      -16.9216002930      -38.5072274762  TIP3      4510            0.0000000000
     35849      4702  TIP3      H1            -23.3446533423      -16.3950043237      -38.6285076120  TIP3      4510            0.0000000000
     35850      4702  TIP3      H2            -22.9348996509      -17.7968394541      -38.2564630566  TIP3      4510            0.0000000000
     35851      4703  TIP3      OH2           -35.1070327156       -1.1366784124      -38.9534193459  TIP3      4511            0.0000000000
     35852      4703  TIP3      H1            -35.9443098538       -1.2336893357      -39.4537618325  TIP3      4511            0.0000000000
     35853      4703  TIP3      H2            -35.2680847197       -0.2272717446      -38.6690899399  TIP3      4511            0.0000000000
     35854      4704  TIP3      OH2           -33.4039328515      -15.2312287070      -41.3614167856  TIP3      4512            0.0000000000
     35855      4704  TIP3      H1            -32.8748368221      -15.8765230037      -41.8417590892  TIP3      4512            0.0000000000
     35856      4704  TIP3      H2            -32.7784357758      -14.9165644197      -40.6980999177  TIP3      4512            0.0000000000
     35857      4705  TIP3      OH2           -28.3750570280      -14.9845998779      -38.9183952876  TIP3      4513            0.0000000000
     35858      4705  TIP3      H1            -28.1029423170      -15.5619306573      -38.1865248720  TIP3      4513            0.0000000000
     35859      4705  TIP3      H2            -28.2921506957      -14.1188193543      -38.4564117854  TIP3      4513            0.0000000000
     35860      4706  TIP3      OH2           -26.4974702523        0.3643523288      -40.4568526194  TIP3      4514            0.0000000000
     35861      4706  TIP3      H1            -25.5229235758        0.3784693649      -40.5989134865  TIP3      4514            0.0000000000
     35862      4706  TIP3      H2            -26.6165780503       -0.3601202421      -41.1130111024  TIP3      4514            0.0000000000
     35863      4707  TIP3      OH2           -19.7195984975       -0.4139522330      -37.7757927721  TIP3      4515            0.0000000000
     35864      4707  TIP3      H1            -19.9446688419       -1.1812560727      -38.3541664318  TIP3      4515            0.0000000000
     35865      4707  TIP3      H2            -19.8399916980        0.3326645379      -38.4044530965  TIP3      4515            0.0000000000
     35866      4708  TIP3      OH2           -34.1575933724      -16.3377538273      -26.0530215494  TIP3      4516            0.0000000000
     35867      4708  TIP3      H1            -34.5128159195      -17.1851544134      -25.7489558426  TIP3      4516            0.0000000000
     35868      4708  TIP3      H2            -33.2284421839      -16.4172038396      -25.7311491650  TIP3      4516            0.0000000000
     35869      4709  TIP3      OH2           -32.1082351534      -17.0375212571      -24.5436931758  TIP3      4517            0.0000000000
     35870      4709  TIP3      H1            -31.1829668393      -17.2964634235      -24.7250382622  TIP3      4517            0.0000000000
     35871      4709  TIP3      H2            -32.3825160976      -17.8270462338      -24.0786910835  TIP3      4517            0.0000000000
     35872      4710  TIP3      OH2           -33.3972053253       -0.2589513662      -41.8612648690  TIP3      4518            0.0000000000
     35873      4710  TIP3      H1            -33.8133941120        0.0756533589      -41.0389383274  TIP3      4518            0.0000000000
     35874      4710  TIP3      H2            -32.7264442899       -0.7860229147      -41.5065977487  TIP3      4518            0.0000000000
     35875      4711  TIP3      OH2           -23.6317737139      -17.6177928836      -24.3185858458  TIP3      4519            0.0000000000
     35876      4711  TIP3      H1            -23.6655847598      -18.1904773520      -23.5349048481  TIP3      4519            0.0000000000
     35877      4711  TIP3      H2            -22.7663834012      -17.8305006327      -24.7090611680  TIP3      4519            0.0000000000
     35878      4712  TIP3      OH2           -20.4465755390       -1.6972488496      -25.7256783792  TIP3      4520            0.0000000000
     35879      4712  TIP3      H1            -21.3158755978       -1.8057191707      -26.1589486339  TIP3      4520            0.0000000000
     35880      4712  TIP3      H2            -20.5943361148       -0.7670171729      -25.4221394070  TIP3      4520            0.0000000000
     35881      4713  TIP3      OH2            -6.0453431689       -7.7808384271      -35.7040342641  TIP3      4521            0.0000000000
     35882      4713  TIP3      H1             -6.0635276454       -6.8017719868      -35.7405529595  TIP3      4521            0.0000000000
     35883      4713  TIP3      H2             -6.7762691474       -8.0171802860      -36.3002731247  TIP3      4521            0.0000000000
     35884      4714  TIP3      OH2            -7.1957137983       -8.5347244244      -32.2037963967  TIP3      4522            0.0000000000
     35885      4714  TIP3      H1             -7.2051772211       -9.1820537406      -31.4844840058  TIP3      4522            0.0000000000
     35886      4714  TIP3      H2             -7.5473242909       -9.0458255591      -32.9516174628  TIP3      4522            0.0000000000
     35887      4715  TIP3      OH2           -14.8484938428       -8.8594054655      -30.6473643170  TIP3      4523            0.0000000000
     35888      4715  TIP3      H1            -14.7588811671       -9.5485169476      -29.9590289820  TIP3      4523            0.0000000000
     35889      4715  TIP3      H2            -14.0947738532       -8.2890191654      -30.4272424659  TIP3      4523            0.0000000000
     35890      4716  TIP3      OH2            -3.5114033478       -5.5840716707      -33.9161107062  TIP3      4524            0.0000000000
     35891      4716  TIP3      H1             -3.9212834552       -6.3020458769      -33.4234628023  TIP3      4524            0.0000000000
     35892      4716  TIP3      H2             -3.4839695928       -4.8769309053      -33.2451904934  TIP3      4524            0.0000000000
     35893      4717  TIP3      OH2           -13.9243684799       -4.4099412546      -32.1095707990  TIP3      4525            0.0000000000
     35894      4717  TIP3      H1            -14.2275829506       -5.2690102879      -32.4677622098  TIP3      4525            0.0000000000
     35895      4717  TIP3      H2            -12.9647374041       -4.5843405279      -32.1150159247  TIP3      4525            0.0000000000
     35896      4718  TIP3      OH2           -17.2754425793      -10.8501193718      -36.6510763482  TIP3      4526            0.0000000000
     35897      4718  TIP3      H1            -17.7104759388       -9.9787867313      -36.7152483671  TIP3      4526            0.0000000000
     35898      4718  TIP3      H2            -17.8272147027      -11.3837732395      -37.2358197063  TIP3      4526            0.0000000000
     35899      4719  TIP3      OH2           -16.5621149301       -8.6257910233      -34.5056721639  TIP3      4527            0.0000000000
     35900      4719  TIP3      H1            -16.2855454897       -9.4489638822      -34.0604019629  TIP3      4527            0.0000000000
     35901      4719  TIP3      H2            -15.8728158258       -8.5158902521      -35.1781980380  TIP3      4527            0.0000000000
     35902      4720  TIP3      OH2            -6.3923370055       -0.4246037730      -33.6794057875  TIP3      4528            0.0000000000
     35903      4720  TIP3      H1             -5.7407004850       -1.1112832523      -33.9672492122  TIP3      4528            0.0000000000
     35904      4720  TIP3      H2             -6.6084020023       -0.7662599905      -32.8114087969  TIP3      4528            0.0000000000
     35905      4721  TIP3      OH2            -8.8269844720       -6.1294274303      -31.7156734199  TIP3      4529            0.0000000000
     35906      4721  TIP3      H1             -8.4903450254       -6.7523969196      -32.3812329476  TIP3      4529            0.0000000000
     35907      4721  TIP3      H2             -8.0080595058       -5.9729216859      -31.2119781269  TIP3      4529            0.0000000000
     35908      4722  TIP3      OH2            -0.2301530706      -14.4665069178      -31.0099866109  TIP3      4530            0.0000000000
     35909      4722  TIP3      H1             -0.0456529606      -13.8862601195      -30.2399788035  TIP3      4530            0.0000000000
     35910      4722  TIP3      H2              0.3467282245      -14.0525707621      -31.6678390488  TIP3      4530            0.0000000000
     35911      4723  TIP3      OH2            -5.6513687498      -11.6639693499      -31.4122502925  TIP3      4531            0.0000000000
     35912      4723  TIP3      H1             -5.4819419977      -12.6224548919      -31.4062483385  TIP3      4531            0.0000000000
     35913      4723  TIP3      H2             -5.7544052255      -11.5259049390      -32.3737084574  TIP3      4531            0.0000000000
     35914      4724  TIP3      OH2           -12.5394744274      -13.5746994002      -34.2021027146  TIP3      4532            0.0000000000
     35915      4724  TIP3      H1            -12.4282406546      -12.7418920281      -34.6974874887  TIP3      4532            0.0000000000
     35916      4724  TIP3      H2            -12.9352133120      -14.1493825259      -34.8925778097  TIP3      4532            0.0000000000
     35917      4725  TIP3      OH2            -4.7992811030      -13.4989414753      -35.8330602954  TIP3      4533            0.0000000000
     35918      4725  TIP3      H1             -4.1508975721      -13.8101895413      -35.1596258772  TIP3      4533            0.0000000000
     35919      4725  TIP3      H2             -4.2340440578      -12.9220975361      -36.3729021319  TIP3      4533            0.0000000000
     35920      4726  TIP3      OH2           -15.9157291262      -11.1656876046      -33.4674579743  TIP3      4534            0.0000000000
     35921      4726  TIP3      H1            -15.2451646012      -11.7061626411      -33.0104903530  TIP3      4534            0.0000000000
     35922      4726  TIP3      H2            -15.8049146284      -11.4788192002      -34.3784897671  TIP3      4534            0.0000000000
     35923      4727  TIP3      OH2           -10.7585684537       -9.6070503528      -34.1420968190  TIP3      4535            0.0000000000
     35924      4727  TIP3      H1            -10.0834515903      -10.1897592950      -33.7540747755  TIP3      4535            0.0000000000
     35925      4727  TIP3      H2            -11.2683819682      -10.2603143321      -34.6604717449  TIP3      4535            0.0000000000
     35926      4728  TIP3      OH2             0.2121136709      -13.0736579317      -28.7261620702  TIP3      4536            0.0000000000
     35927      4728  TIP3      H1             -0.3823131088      -12.2995216184      -28.8397276312  TIP3      4536            0.0000000000
     35928      4728  TIP3      H2              0.2523704599      -13.1441987522      -27.7660128989  TIP3      4536            0.0000000000
     35929      4729  TIP3      OH2           -13.6232210870      -14.6761637812      -30.1621546164  TIP3      4537            0.0000000000
     35930      4729  TIP3      H1            -13.9040336758      -14.1049964996      -30.9096176400  TIP3      4537            0.0000000000
     35931      4729  TIP3      H2            -14.2976782080      -14.4415365544      -29.4811864581  TIP3      4537            0.0000000000
     35932      4730  TIP3      OH2            -6.3489630844       -5.2040058651      -36.6150023215  TIP3      4538            0.0000000000
     35933      4730  TIP3      H1             -6.6195994147       -5.4706300523      -37.5087114527  TIP3      4538            0.0000000000
     35934      4730  TIP3      H2             -6.6470748991       -4.2675427548      -36.5695703192  TIP3      4538            0.0000000000
     35935      4731  TIP3      OH2           -11.1227756209       -7.0331996750      -29.9411648064  TIP3      4539            0.0000000000
     35936      4731  TIP3      H1            -11.8183929484       -6.3889083496      -29.6903995445  TIP3      4539            0.0000000000
     35937      4731  TIP3      H2            -10.4092351222       -6.4352923000      -30.2186343118  TIP3      4539            0.0000000000
     35938      4732  TIP3      OH2            -2.9923339129      -14.1452050873      -33.8284533476  TIP3      4540            0.0000000000
     35939      4732  TIP3      H1             -3.2088191814      -14.9205836329      -33.3047761588  TIP3      4540            0.0000000000
     35940      4732  TIP3      H2             -2.3157751493      -13.7162413560      -33.2773008023  TIP3      4540            0.0000000000
     35941      4733  TIP3      OH2           -14.0560701899      -12.8234675427      -32.1212579450  TIP3      4541            0.0000000000
     35942      4733  TIP3      H1            -13.4311791854      -12.1300283149      -31.8121093751  TIP3      4541            0.0000000000
     35943      4733  TIP3      H2            -13.5419088081      -13.2284486888      -32.8641193251  TIP3      4541            0.0000000000
     35944      4734  TIP3      OH2           -12.6786429714       -5.0276400946      -29.0660624850  TIP3      4542            0.0000000000
     35945      4734  TIP3      H1            -12.7076368030       -4.1304697435      -29.4460711983  TIP3      4542            0.0000000000
     35946      4734  TIP3      H2            -13.5665487202       -5.1211450199      -28.6649723201  TIP3      4542            0.0000000000
     35947      4735  TIP3      OH2           -16.6085243376       -5.4198792989      -38.3193747863  TIP3      4543            0.0000000000
     35948      4735  TIP3      H1            -16.8066028357       -5.0713344091      -39.2116196808  TIP3      4543            0.0000000000
     35949      4735  TIP3      H2            -16.5227532844       -4.5958788672      -37.7942918612  TIP3      4543            0.0000000000
     35950      4736  TIP3      OH2            -2.9810574642       -3.7450288364      -31.5494242546  TIP3      4544            0.0000000000
     35951      4736  TIP3      H1             -3.9493552281       -3.6306880723      -31.4303899593  TIP3      4544            0.0000000000
     35952      4736  TIP3      H2             -2.7108843685       -2.8305560981      -31.7547983207  TIP3      4544            0.0000000000
     35953      4737  TIP3      OH2            -2.6605192901      -15.4665159670      -30.1735666967  TIP3      4545            0.0000000000
     35954      4737  TIP3      H1             -3.3793692111      -14.8278237834      -30.2599278383  TIP3      4545            0.0000000000
     35955      4737  TIP3      H2             -1.9351946849      -15.0443861361      -30.6811849301  TIP3      4545            0.0000000000
     35956      4738  TIP3      OH2            -9.6921477668      -17.3379800602      -32.6953658916  TIP3      4546            0.0000000000
     35957      4738  TIP3      H1             -9.8252275769      -18.3014671570      -32.7731497343  TIP3      4546            0.0000000000
     35958      4738  TIP3      H2            -10.5722566168      -17.0378475284      -32.3879310598  TIP3      4546            0.0000000000
     35959      4739  TIP3      OH2            -4.7192939224       -1.9622254920      -34.9648593398  TIP3      4547            0.0000000000
     35960      4739  TIP3      H1             -4.2934299282       -2.6831747074      -35.4726456287  TIP3      4547            0.0000000000
     35961      4739  TIP3      H2             -4.2724208847       -1.1756123519      -35.3436444076  TIP3      4547            0.0000000000
     35962      4740  TIP3      OH2            -3.5048281093       -4.0370850276      -36.4511905227  TIP3      4548            0.0000000000
     35963      4740  TIP3      H1             -3.8016581523       -4.7270614833      -37.0698312184  TIP3      4548            0.0000000000
     35964      4740  TIP3      H2             -3.4760585855       -4.5315826012      -35.6111058008  TIP3      4548            0.0000000000
     35965      4741  TIP3      OH2            -1.8960802671       -5.4353084322      -27.9502726450  TIP3      4549            0.0000000000
     35966      4741  TIP3      H1             -1.7454466072       -6.0923642667      -28.6659345058  TIP3      4549            0.0000000000
     35967      4741  TIP3      H2             -1.6866762894       -4.5952673901      -28.3968970841  TIP3      4549            0.0000000000
     35968      4742  TIP3      OH2            -7.4045720719       -8.5433520787      -38.2042243276  TIP3      4550            0.0000000000
     35969      4742  TIP3      H1             -8.0866355074       -7.9613813217      -38.5962906215  TIP3      4550            0.0000000000
     35970      4742  TIP3      H2             -6.6873132613       -8.4580049085      -38.8585103091  TIP3      4550            0.0000000000
     35971      4743  TIP3      OH2            -7.3566107228      -10.0092655559      -41.0999289938  TIP3      4551            0.0000000000
     35972      4743  TIP3      H1             -6.6175178344      -10.0086470242      -40.4697336467  TIP3      4551            0.0000000000
     35973      4743  TIP3      H2             -7.0277990253      -10.6463902706      -41.7391945283  TIP3      4551            0.0000000000
     35974      4744  TIP3      OH2            -0.0051824480       -9.1264073827      -29.9112263039  TIP3      4552            0.0000000000
     35975      4744  TIP3      H1             -0.6638809020       -8.4042048851      -29.8781235623  TIP3      4552            0.0000000000
     35976      4744  TIP3      H2              0.4953997568       -8.8917597675      -30.7136049033  TIP3      4552            0.0000000000
     35977      4745  TIP3      OH2            -3.9477589442       -8.3377598182      -37.2469041665  TIP3      4553            0.0000000000
     35978      4745  TIP3      H1             -4.6937327157       -8.0954995930      -36.6430191672  TIP3      4553            0.0000000000
     35979      4745  TIP3      H2             -3.4703848984       -9.0123630180      -36.7286117850  TIP3      4553            0.0000000000
     35980      4746  TIP3      OH2            -4.0270384878      -10.1796808301      -28.1221975464  TIP3      4554            0.0000000000
     35981      4746  TIP3      H1             -4.0077704362       -9.3446009104      -27.6241044915  TIP3      4554            0.0000000000
     35982      4746  TIP3      H2             -4.6330266805       -9.8878348632      -28.8362274017  TIP3      4554            0.0000000000
     35983      4747  TIP3      OH2           -12.3350239044       -7.6854544126      -35.3477838267  TIP3      4555            0.0000000000
     35984      4747  TIP3      H1            -12.6530365358       -8.0733299960      -36.1978442661  TIP3      4555            0.0000000000
     35985      4747  TIP3      H2            -11.7171531611       -8.3735099888      -35.0141112280  TIP3      4555            0.0000000000
     35986      4748  TIP3      OH2           -11.0098763521       -4.3041252416      -32.6726668284  TIP3      4556            0.0000000000
     35987      4748  TIP3      H1            -11.0109868957       -4.8243066210      -33.4855025451  TIP3      4556            0.0000000000
     35988      4748  TIP3      H2            -10.2232990382       -4.6580496269      -32.2158412590  TIP3      4556            0.0000000000
     35989      4749  TIP3      OH2           -12.0071215822       -8.9354400566      -31.6842149355  TIP3      4557            0.0000000000
     35990      4749  TIP3      H1            -11.4598856112       -8.8398784025      -32.4882590913  TIP3      4557            0.0000000000
     35991      4749  TIP3      H2            -11.6110308498       -8.2691727759      -31.0784639428  TIP3      4557            0.0000000000
     35992      4750  TIP3      OH2            -5.5764871975       -3.3616175248      -30.9780459255  TIP3      4558            0.0000000000
     35993      4750  TIP3      H1             -5.8742525765       -2.7224610099      -30.3239945224  TIP3      4558            0.0000000000
     35994      4750  TIP3      H2             -5.8386800177       -4.2124632675      -30.5565907801  TIP3      4558            0.0000000000
     35995      4751  TIP3      OH2           -11.0620583098       -4.4962729157      -26.9926560220  TIP3      4559            0.0000000000
     35996      4751  TIP3      H1            -11.4615348038       -3.7583987462      -26.4960489899  TIP3      4559            0.0000000000
     35997      4751  TIP3      H2            -11.7210458021       -4.7076779712      -27.6976074379  TIP3      4559            0.0000000000
     35998      4752  TIP3      OH2            -5.0598798575       -9.1596939665      -39.5910688333  TIP3      4560            0.0000000000
     35999      4752  TIP3      H1             -4.5231404443       -8.9524933015      -38.7880095141  TIP3      4560            0.0000000000
     36000      4752  TIP3      H2             -4.6545070255       -8.6089441665      -40.2908259077  TIP3      4560            0.0000000000
     36001      4753  TIP3      OH2           -14.1059076736       -8.3484356586      -27.8484640527  TIP3      4561            0.0000000000
     36002      4753  TIP3      H1            -14.0412314541       -7.7071971134      -27.1212677973  TIP3      4561            0.0000000000
     36003      4753  TIP3      H2            -15.0506730555       -8.2584503586      -28.0527246950  TIP3      4561            0.0000000000
     36004      4754  TIP3      OH2            -7.3634614446       -2.4227012337      -36.1121797832  TIP3      4562            0.0000000000
     36005      4754  TIP3      H1             -6.9251600520       -2.1033705137      -35.3161965986  TIP3      4562            0.0000000000
     36006      4754  TIP3      H2             -7.9092674282       -1.6725495853      -36.3786542182  TIP3      4562            0.0000000000
     36007      4755  TIP3      OH2           -12.8208332226       -2.4638382099      -26.2600752607  TIP3      4563            0.0000000000
     36008      4755  TIP3      H1            -12.8438601364       -2.5791099674      -27.2236777762  TIP3      4563            0.0000000000
     36009      4755  TIP3      H2            -13.7331318710       -2.6197175385      -25.9623893354  TIP3      4563            0.0000000000
     36010      4756  TIP3      OH2            -1.3522367261      -17.4115590927      -39.7008115299  TIP3      4564            0.0000000000
     36011      4756  TIP3      H1             -2.3029626689      -17.3023969114      -39.4588949299  TIP3      4564            0.0000000000
     36012      4756  TIP3      H2             -1.1335529413      -16.5548246902      -40.1045277025  TIP3      4564            0.0000000000
     36013      4757  TIP3      OH2           -13.3794458416       -8.6566142070      -37.7310496616  TIP3      4565            0.0000000000
     36014      4757  TIP3      H1            -13.6487329846       -7.8835807449      -38.2657891874  TIP3      4565            0.0000000000
     36015      4757  TIP3      H2            -14.0223286982       -9.3267854975      -37.9745372029  TIP3      4565            0.0000000000
     36016      4758  TIP3      OH2            -0.2488789780       -3.0809615303      -41.3274376157  TIP3      4566            0.0000000000
     36017      4758  TIP3      H1             -0.1187851298       -2.1218321080      -41.2068992930  TIP3      4566            0.0000000000
     36018      4758  TIP3      H2              0.6814271048       -3.3592903605      -41.3961936413  TIP3      4566            0.0000000000
     36019      4759  TIP3      OH2           -17.2477375270       -6.2186670830      -28.8506916349  TIP3      4567            0.0000000000
     36020      4759  TIP3      H1            -17.7237221442       -6.3189676858      -29.6976195408  TIP3      4567            0.0000000000
     36021      4759  TIP3      H2            -17.1928863273       -7.1699026346      -28.6212676077  TIP3      4567            0.0000000000
     36022      4760  TIP3      OH2           -17.5183565618       -3.4821852669      -32.0134409502  TIP3      4568            0.0000000000
     36023      4760  TIP3      H1            -16.5612819944       -3.5934162662      -32.0966104037  TIP3      4568            0.0000000000
     36024      4760  TIP3      H2            -17.6095344005       -2.6324491787      -31.5664481665  TIP3      4568            0.0000000000
     36025      4761  TIP3      OH2             0.7133640142       -2.8002268988      -26.3773024778  TIP3      4569            0.0000000000
     36026      4761  TIP3      H1              0.6053315552       -3.7649350685      -26.3808943190  TIP3      4569            0.0000000000
     36027      4761  TIP3      H2             -0.1442559456       -2.5439794363      -25.9561097609  TIP3      4569            0.0000000000
     36028      4762  TIP3      OH2            -8.3035138742       -3.2351818425      -27.5207303291  TIP3      4570            0.0000000000
     36029      4762  TIP3      H1             -8.2550095797       -2.4105690861      -26.9815549431  TIP3      4570            0.0000000000
     36030      4762  TIP3      H2             -9.1633192247       -3.6108396823      -27.2613968553  TIP3      4570            0.0000000000
     36031      4763  TIP3      OH2            -7.8845425683        0.4913578422      -37.7218298131  TIP3      4571            0.0000000000
     36032      4763  TIP3      H1             -7.9591639784        0.4370920933      -38.6889174904  TIP3      4571            0.0000000000
     36033      4763  TIP3      H2             -7.8471272694        1.4495370815      -37.5491431217  TIP3      4571            0.0000000000
     36034      4764  TIP3      OH2           -14.2356644810       -0.6267531901      -35.8827455233  TIP3      4572            0.0000000000
     36035      4764  TIP3      H1            -14.0883643947       -1.0429260425      -35.0060768231  TIP3      4572            0.0000000000
     36036      4764  TIP3      H2            -15.0840991720       -1.0358795473      -36.1252621679  TIP3      4572            0.0000000000
     36037      4765  TIP3      OH2            -4.8591717845       -0.3068377595      -40.7557575830  TIP3      4573            0.0000000000
     36038      4765  TIP3      H1             -4.3736970655       -1.0595445745      -41.1610702155  TIP3      4573            0.0000000000
     36039      4765  TIP3      H2             -4.7751282667       -0.5362003369      -39.8115401835  TIP3      4573            0.0000000000
     36040      4766  TIP3      OH2            -5.1362028611       -0.3550558239      -37.9479574697  TIP3      4574            0.0000000000
     36041      4766  TIP3      H1             -6.0934237410       -0.2898106482      -37.7637057545  TIP3      4574            0.0000000000
     36042      4766  TIP3      H2             -4.8867997557       -1.1008326436      -37.3820522750  TIP3      4574            0.0000000000
     36043      4767  TIP3      OH2            -2.1159113323      -11.3399069832      -25.9053507717  TIP3      4575            0.0000000000
     36044      4767  TIP3      H1             -2.6005004363      -10.8663529460      -26.5981204415  TIP3      4575            0.0000000000
     36045      4767  TIP3      H2             -2.1269044225      -12.2515173401      -26.2240315121  TIP3      4575            0.0000000000
     36046      4768  TIP3      OH2           -15.0696167521       -4.7960281628      -27.8266109662  TIP3      4576            0.0000000000
     36047      4768  TIP3      H1            -14.7632819475       -5.3007792168      -27.0337623306  TIP3      4576            0.0000000000
     36048      4768  TIP3      H2            -15.8352214606       -5.3476000810      -28.1208176349  TIP3      4576            0.0000000000
     36049      4769  TIP3      OH2           -12.3081512996      -16.4387921372      -31.9475656960  TIP3      4577            0.0000000000
     36050      4769  TIP3      H1            -13.2118746348      -16.5652053686      -32.3123524704  TIP3      4577            0.0000000000
     36051      4769  TIP3      H2            -12.4409107528      -15.6082520436      -31.4599125508  TIP3      4577            0.0000000000
     36052      4770  TIP3      OH2            -7.6600294322      -16.7707078363      -28.5723505683  TIP3      4578            0.0000000000
     36053      4770  TIP3      H1             -7.2788570353      -17.2053235419      -27.7884460190  TIP3      4578            0.0000000000
     36054      4770  TIP3      H2             -8.6350013774      -16.8880853974      -28.4454495595  TIP3      4578            0.0000000000
     36055      4771  TIP3      OH2            -4.3789352994      -12.9183499150      -27.6883772801  TIP3      4579            0.0000000000
     36056      4771  TIP3      H1             -4.9351995998      -13.1281951854      -26.9050116921  TIP3      4579            0.0000000000
     36057      4771  TIP3      H2             -4.5578935501      -11.9879228649      -27.9087415670  TIP3      4579            0.0000000000
     36058      4772  TIP3      OH2            -3.5508975136       -8.0640620849      -41.7435197340  TIP3      4580            0.0000000000
     36059      4772  TIP3      H1             -3.5425190700       -8.2282272079      -42.7023021892  TIP3      4580            0.0000000000
     36060      4772  TIP3      H2             -2.6828539761       -7.6285180363      -41.6437787759  TIP3      4580            0.0000000000
     36061      4773  TIP3      OH2            -8.0159431998      -14.1940220461      -41.2333609885  TIP3      4581            0.0000000000
     36062      4773  TIP3      H1             -8.3412215067      -14.2478811785      -40.3175839429  TIP3      4581            0.0000000000
     36063      4773  TIP3      H2             -8.2938812802      -15.0702475561      -41.5299530804  TIP3      4581            0.0000000000
     36064      4774  TIP3      OH2           -12.2014672551      -11.4608274664      -30.6814373297  TIP3      4582            0.0000000000
     36065      4774  TIP3      H1            -12.9406125375      -11.4690291254      -30.0479118539  TIP3      4582            0.0000000000
     36066      4774  TIP3      H2            -12.2512486704      -10.5555953371      -31.0638625507  TIP3      4582            0.0000000000
     36067      4775  TIP3      OH2           -12.2435035054      -11.3600387658      -35.8219377249  TIP3      4583            0.0000000000
     36068      4775  TIP3      H1            -13.1834168600      -11.6008903299      -35.9608295169  TIP3      4583            0.0000000000
     36069      4775  TIP3      H2            -11.8663608705      -11.6371622243      -36.6822398848  TIP3      4583            0.0000000000
     36070      4776  TIP3      OH2            -6.7171026840      -10.8562234031      -37.0858256324  TIP3      4584            0.0000000000
     36071      4776  TIP3      H1             -7.1202372869      -10.0185344575      -37.4086775802  TIP3      4584            0.0000000000
     36072      4776  TIP3      H2             -6.0300373733      -11.0084170723      -37.7613923031  TIP3      4584            0.0000000000
     36073      4777  TIP3      OH2            -7.7218332680      -10.6272379814      -25.6592473169  TIP3      4585            0.0000000000
     36074      4777  TIP3      H1             -8.2313435005      -11.4137609946      -25.3629670647  TIP3      4585            0.0000000000
     36075      4777  TIP3      H2             -6.8580500650      -10.7276720686      -25.2581312772  TIP3      4585            0.0000000000
     36076      4778  TIP3      OH2            -5.6846370008      -11.3544185792      -34.2056293199  TIP3      4586            0.0000000000
     36077      4778  TIP3      H1             -5.9736703337      -10.7916438551      -34.9444388726  TIP3      4586            0.0000000000
     36078      4778  TIP3      H2             -5.5952742999      -12.2035506052      -34.6775775917  TIP3      4586            0.0000000000
     36079      4779  TIP3      OH2           -14.5840998344      -11.2161023031      -29.0083660052  TIP3      4587            0.0000000000
     36080      4779  TIP3      H1            -14.4851643249      -10.8300958724      -28.1212479075  TIP3      4587            0.0000000000
     36081      4779  TIP3      H2            -15.0191152207      -12.0577592081      -28.8033067605  TIP3      4587            0.0000000000
     36082      4780  TIP3      OH2           -11.0336668659      -13.5948252167      -41.8311811737  TIP3      4588            0.0000000000
     36083      4780  TIP3      H1            -11.5852734855      -14.2175332671      -41.3117003095  TIP3      4588            0.0000000000
     36084      4780  TIP3      H2            -11.6357324088      -13.2043970987      -42.4648522420  TIP3      4588            0.0000000000
     36085      4781  TIP3      OH2           -17.9316480626      -14.1593442139      -35.0017114585  TIP3      4589            0.0000000000
     36086      4781  TIP3      H1            -17.2333129814      -14.1256337789      -34.3159472876  TIP3      4589            0.0000000000
     36087      4781  TIP3      H2            -17.4512496524      -14.4646915447      -35.7925566536  TIP3      4589            0.0000000000
     36088      4782  TIP3      OH2           -16.6616887745      -13.3850780433      -39.6708958712  TIP3      4590            0.0000000000
     36089      4782  TIP3      H1            -16.1402644968      -12.8087062938      -40.2675636075  TIP3      4590            0.0000000000
     36090      4782  TIP3      H2            -17.3059072769      -12.7259032868      -39.3484580750  TIP3      4590            0.0000000000
     36091      4783  TIP3      OH2            -6.4851213288       -9.7759310816      -29.6464933516  TIP3      4591            0.0000000000
     36092      4783  TIP3      H1             -6.1120503941      -10.4590864697      -30.2400099365  TIP3      4591            0.0000000000
     36093      4783  TIP3      H2             -6.9686800223      -10.3061865768      -28.9910802244  TIP3      4591            0.0000000000
     36094      4784  TIP3      OH2            -9.6897493081      -13.7877548963      -34.8122480301  TIP3      4592            0.0000000000
     36095      4784  TIP3      H1            -10.6247951704      -13.7906478654      -34.5280139238  TIP3      4592            0.0000000000
     36096      4784  TIP3      H2             -9.2082925029      -13.9683145131      -33.9937472776  TIP3      4592            0.0000000000
     36097      4785  TIP3      OH2           -14.8845168887      -12.2477194419      -35.9500308770  TIP3      4593            0.0000000000
     36098      4785  TIP3      H1            -15.7638801482      -12.0876130857      -36.3482741416  TIP3      4593            0.0000000000
     36099      4785  TIP3      H2            -14.5974350781      -13.0787079622      -36.3632836977  TIP3      4593            0.0000000000
     36100      4786  TIP3      OH2           -11.2471406727      -12.1759927322      -38.3249615047  TIP3      4594            0.0000000000
     36101      4786  TIP3      H1            -10.2885044440      -12.0801029852      -38.1591475056  TIP3      4594            0.0000000000
     36102      4786  TIP3      H2            -11.4702665405      -11.5260711652      -39.0124937477  TIP3      4594            0.0000000000
     36103      4787  TIP3      OH2            -5.2842012343      -14.5591331332      -31.5844982747  TIP3      4595            0.0000000000
     36104      4787  TIP3      H1             -5.9680246362      -14.5091323018      -30.8782246668  TIP3      4595            0.0000000000
     36105      4787  TIP3      H2             -5.7942881040      -14.8165859199      -32.3648533817  TIP3      4595            0.0000000000
     36106      4788  TIP3      OH2           -12.5406933911      -11.0236938622      -40.7246590267  TIP3      4596            0.0000000000
     36107      4788  TIP3      H1            -13.0966269847      -11.3677217974      -41.4457615547  TIP3      4596            0.0000000000
     36108      4788  TIP3      H2            -11.7150941744      -10.8024772847      -41.1856173946  TIP3      4596            0.0000000000
     36109      4789  TIP3      OH2            -2.0827055386        1.0679527664      -25.2529941202  TIP3      4597            0.0000000000
     36110      4789  TIP3      H1             -1.8105013542        1.4540251819      -26.1058792273  TIP3      4597            0.0000000000
     36111      4789  TIP3      H2             -1.3807312088        1.3907476712      -24.6799830107  TIP3      4597            0.0000000000
     36112      4790  TIP3      OH2           -14.4255859144       -6.3646452397      -25.7118904292  TIP3      4598            0.0000000000
     36113      4790  TIP3      H1            -13.6843699931       -6.2325821118      -25.1040711938  TIP3      4598            0.0000000000
     36114      4790  TIP3      H2            -15.1722908976       -6.3857464672      -25.0752160462  TIP3      4598            0.0000000000
     36115      4791  TIP3      OH2            -8.4099468728      -11.0364381260      -32.9286837603  TIP3      4599            0.0000000000
     36116      4791  TIP3      H1             -7.8077163825      -11.5688080897      -33.4618696876  TIP3      4599            0.0000000000
     36117      4791  TIP3      H2             -8.5558758734      -11.5875127768      -32.1476819171  TIP3      4599            0.0000000000
     36118      4792  TIP3      OH2           -13.4016821156      -14.8985305140      -36.4759522857  TIP3      4600            0.0000000000
     36119      4792  TIP3      H1            -13.7087601873      -15.8203110667      -36.4972543243  TIP3      4600            0.0000000000
     36120      4792  TIP3      H2            -12.6147310059      -14.9603927034      -37.0368744020  TIP3      4600            0.0000000000
     36121      4793  TIP3      OH2            -9.7714181627      -12.7129278343      -30.5146652660  TIP3      4601            0.0000000000
     36122      4793  TIP3      H1            -10.5935571099      -12.1916100966      -30.4274166807  TIP3      4601            0.0000000000
     36123      4793  TIP3      H2             -9.2134870757      -12.3590462323      -29.7943023691  TIP3      4601            0.0000000000
     36124      4794  TIP3      OH2            -9.1765401828       -6.5150362671      -38.7858133457  TIP3      4602            0.0000000000
     36125      4794  TIP3      H1             -9.9799706817       -6.9583414566      -39.1319778821  TIP3      4602            0.0000000000
     36126      4794  TIP3      H2             -9.4091116182       -6.3749641363      -37.8482080938  TIP3      4602            0.0000000000
     36127      4795  TIP3      OH2            -1.9897384011       -7.2816421706      -30.0135158313  TIP3      4603            0.0000000000
     36128      4795  TIP3      H1             -1.4302591009       -6.7983692673      -30.6490352552  TIP3      4603            0.0000000000
     36129      4795  TIP3      H2             -2.8514261160       -7.2419586824      -30.4751069918  TIP3      4603            0.0000000000
     36130      4796  TIP3      OH2            -5.3090569633      -13.6959828526      -40.6285070252  TIP3      4604            0.0000000000
     36131      4796  TIP3      H1             -6.2545024678      -13.5399900781      -40.8055282425  TIP3      4604            0.0000000000
     36132      4796  TIP3      H2             -5.0124276222      -12.8216036348      -40.3176934780  TIP3      4604            0.0000000000
     36133      4797  TIP3      OH2            -7.6781729655       -6.2230640192      -27.5881460842  TIP3      4605            0.0000000000
     36134      4797  TIP3      H1             -8.0353178987       -6.6464988389      -26.8003452485  TIP3      4605            0.0000000000
     36135      4797  TIP3      H2             -7.9488693177       -5.3043955156      -27.4702225671  TIP3      4605            0.0000000000
     36136      4798  TIP3      OH2            -4.6125618043      -11.7466625724      -38.9648466733  TIP3      4606            0.0000000000
     36137      4798  TIP3      H1             -3.7176089151      -11.8869358862      -38.5996500510  TIP3      4606            0.0000000000
     36138      4798  TIP3      H2             -4.5206110462      -10.9388192367      -39.4940800098  TIP3      4606            0.0000000000
     36139      4799  TIP3      OH2           -14.0651749614       -7.0875191091      -33.0157817740  TIP3      4607            0.0000000000
     36140      4799  TIP3      H1            -13.3884729281       -7.1812861061      -33.7148348192  TIP3      4607            0.0000000000
     36141      4799  TIP3      H2            -14.0140498536       -7.9474900464      -32.5605625614  TIP3      4607            0.0000000000
     36142      4800  TIP3      OH2            -7.0848745807       -5.0242010011      -39.7428353847  TIP3      4608            0.0000000000
     36143      4800  TIP3      H1             -7.4557929106       -4.1757990606      -39.4215127722  TIP3      4608            0.0000000000
     36144      4800  TIP3      H2             -7.8220615101       -5.6527093860      -39.5723131367  TIP3      4608            0.0000000000
     36145      4801  TIP3      OH2           -17.0871348635       -8.6864192402      -27.7771554927  TIP3      4609            0.0000000000
     36146      4801  TIP3      H1            -16.9159947442       -9.1261956579      -26.9235710365  TIP3      4609            0.0000000000
     36147      4801  TIP3      H2            -17.7159018278       -9.2941137609      -28.1981711839  TIP3      4609            0.0000000000
     36148      4802  TIP3      OH2           -10.0642778286       -9.1515005412      -25.5865143219  TIP3      4610            0.0000000000
     36149      4802  TIP3      H1            -10.3916816778       -9.4304326758      -26.4581886556  TIP3      4610            0.0000000000
     36150      4802  TIP3      H2             -9.1328161608       -9.4249367931      -25.6151340526  TIP3      4610            0.0000000000
     36151      4803  TIP3      OH2            -5.3795219467       -3.7959757390      -27.6281644926  TIP3      4611            0.0000000000
     36152      4803  TIP3      H1             -6.3046954778       -3.6086677430      -27.8532425734  TIP3      4611            0.0000000000
     36153      4803  TIP3      H2             -5.4094978670       -3.5020795410      -26.6967901408  TIP3      4611            0.0000000000
     36154      4804  TIP3      OH2             0.2775123173      -11.6217800851      -39.2147016403  TIP3      4612            0.0000000000
     36155      4804  TIP3      H1             -0.2819959066      -11.9262917452      -39.9501488833  TIP3      4612            0.0000000000
     36156      4804  TIP3      H2              0.3599095255      -10.6837016959      -39.4905194298  TIP3      4612            0.0000000000
     36157      4805  TIP3      OH2             0.2731462913       -5.7612651549      -26.4347778401  TIP3      4613            0.0000000000
     36158      4805  TIP3      H1             -0.6238312592       -5.5429168422      -26.7860349028  TIP3      4613            0.0000000000
     36159      4805  TIP3      H2              0.8175312979       -5.8092452440      -27.2492631689  TIP3      4613            0.0000000000
     36160      4806  TIP3      OH2            -1.4184439777       -2.7916949105      -38.8488273939  TIP3      4614            0.0000000000
     36161      4806  TIP3      H1             -1.7943522039       -3.6180206303      -38.5172079691  TIP3      4614            0.0000000000
     36162      4806  TIP3      H2             -1.1200933776       -2.9941348958      -39.7565992799  TIP3      4614            0.0000000000
     36163      4807  TIP3      OH2            -4.2169965812       -7.9710217102      -31.7313580878  TIP3      4615            0.0000000000
     36164      4807  TIP3      H1             -5.1583983453       -8.1785975089      -31.8425794766  TIP3      4615            0.0000000000
     36165      4807  TIP3      H2             -3.7855040188       -8.7269193110      -32.1724578237  TIP3      4615            0.0000000000
     36166      4808  TIP3      OH2           -11.7017639371       -3.6395487629      -35.6272715098  TIP3      4616            0.0000000000
     36167      4808  TIP3      H1            -11.1998496254       -2.8332851950      -35.8352208507  TIP3      4616            0.0000000000
     36168      4808  TIP3      H2            -12.5770978422       -3.4063573880      -35.9634622784  TIP3      4616            0.0000000000
     36169      4809  TIP3      OH2           -15.9704357007       -8.7819181352      -41.1044188905  TIP3      4617            0.0000000000
     36170      4809  TIP3      H1            -15.3485602296       -8.1588741035      -40.6834975494  TIP3      4617            0.0000000000
     36171      4809  TIP3      H2            -16.8392283688       -8.5048833848      -40.7638752175  TIP3      4617            0.0000000000
     36172      4810  TIP3      OH2           -10.2818677958       -5.9769505253      -36.1101878649  TIP3      4618            0.0000000000
     36173      4810  TIP3      H1            -10.6015588101       -5.0563684097      -36.0311227800  TIP3      4618            0.0000000000
     36174      4810  TIP3      H2            -11.0000450091       -6.4689246421      -35.6659461017  TIP3      4618            0.0000000000
     36175      4811  TIP3      OH2            -9.8417356166       -1.7857257061      -29.6946913407  TIP3      4619            0.0000000000
     36176      4811  TIP3      H1             -9.3735000175       -0.9869036706      -29.9885814723  TIP3      4619            0.0000000000
     36177      4811  TIP3      H2             -9.2162991403       -2.1311627761      -29.0296008638  TIP3      4619            0.0000000000
     36178      4812  TIP3      OH2           -11.6020224837       -0.9780362011      -36.6010100165  TIP3      4620            0.0000000000
     36179      4812  TIP3      H1            -12.5662038966       -0.8432022659      -36.4442020041  TIP3      4620            0.0000000000
     36180      4812  TIP3      H2            -11.2427912948       -0.1474344772      -36.2396324919  TIP3      4620            0.0000000000
     36181      4813  TIP3      OH2            -6.3240593831       -5.7994120345      -30.1007868306  TIP3      4621            0.0000000000
     36182      4813  TIP3      H1             -6.6311928901       -5.9816054459      -29.1862217307  TIP3      4621            0.0000000000
     36183      4813  TIP3      H2             -5.6718845732       -6.5012188036      -30.2571486247  TIP3      4621            0.0000000000
     36184      4814  TIP3      OH2            -4.0223038179       -4.7551230611      -40.9571374205  TIP3      4622            0.0000000000
     36185      4814  TIP3      H1             -3.7162660312       -5.2045085085      -40.1432189211  TIP3      4622            0.0000000000
     36186      4814  TIP3      H2             -4.9762187775       -4.9165492251      -40.8927451848  TIP3      4622            0.0000000000
     36187      4815  TIP3      OH2            -3.4857980196       -1.2250333003      -27.5995309948  TIP3      4623            0.0000000000
     36188      4815  TIP3      H1             -4.1910168331       -1.7035499391      -28.0726749625  TIP3      4623            0.0000000000
     36189      4815  TIP3      H2             -3.3093951161       -0.5059827445      -28.2430888082  TIP3      4623            0.0000000000
     36190      4816  TIP3      OH2             0.5023118156       -0.3344007406      -40.7397986838  TIP3      4624            0.0000000000
     36191      4816  TIP3      H1              1.1909357937        0.3042481367      -40.9965617946  TIP3      4624            0.0000000000
     36192      4816  TIP3      H2             -0.2172214276        0.2652908662      -40.4435860087  TIP3      4624            0.0000000000
     36193      4817  TIP3      OH2           -15.4227468310      -13.9440375605      -28.2022375674  TIP3      4625            0.0000000000
     36194      4817  TIP3      H1            -16.3346609728      -13.6059551563      -28.2473961722  TIP3      4625            0.0000000000
     36195      4817  TIP3      H2            -15.5322752752      -14.8057364156      -27.7697305421  TIP3      4625            0.0000000000
     36196      4818  TIP3      OH2            -3.1898097507       -6.0899855734      -38.7380729016  TIP3      4626            0.0000000000
     36197      4818  TIP3      H1             -3.4343766994       -6.9001853404      -38.2408488525  TIP3      4626            0.0000000000
     36198      4818  TIP3      H2             -2.2429077001       -6.0302753037      -38.5423750991  TIP3      4626            0.0000000000
     36199      4819  TIP3      OH2           -15.8291712875       -2.2180405086      -29.8317977866  TIP3      4627            0.0000000000
     36200      4819  TIP3      H1            -15.4473094505       -3.1088452575      -29.8929279201  TIP3      4627            0.0000000000
     36201      4819  TIP3      H2            -15.2884427973       -1.7420924637      -29.2006094613  TIP3      4627            0.0000000000
     36202      4820  TIP3      OH2           -11.0763703695       -4.0787116982      -40.0646241533  TIP3      4628            0.0000000000
     36203      4820  TIP3      H1            -10.8036857870       -4.6446906368      -39.3295055974  TIP3      4628            0.0000000000
     36204      4820  TIP3      H2            -10.9831259747       -3.1707181705      -39.7132834747  TIP3      4628            0.0000000000
     36205      4821  TIP3      OH2           -14.5837235223       -6.8585458187      -39.6244634953  TIP3      4629            0.0000000000
     36206      4821  TIP3      H1            -15.2356944920       -6.4525386525      -39.0127281960  TIP3      4629            0.0000000000
     36207      4821  TIP3      H2            -14.0073618114       -6.1034934311      -39.8337720040  TIP3      4629            0.0000000000
     36208      4822  TIP3      OH2            -6.7045902210      -14.1800133989      -29.2482268715  TIP3      4630            0.0000000000
     36209      4822  TIP3      H1             -5.9559641031      -14.1350997447      -28.6478848432  TIP3      4630            0.0000000000
     36210      4822  TIP3      H2             -7.0770385793      -15.0615806420      -29.0591931329  TIP3      4630            0.0000000000
     36211      4823  TIP3      OH2            -5.9680393680      -14.6007253879      -38.1364110641  TIP3      4631            0.0000000000
     36212      4823  TIP3      H1             -5.7140295404      -14.1485764430      -38.9673212646  TIP3      4631            0.0000000000
     36213      4823  TIP3      H2             -5.3796255720      -14.1695480111      -37.5056586290  TIP3      4631            0.0000000000
     36214      4824  TIP3      OH2            -8.2714350615       -2.4363259375      -39.3245058782  TIP3      4632            0.0000000000
     36215      4824  TIP3      H1             -9.0897263835       -1.9164153878      -39.2709055382  TIP3      4632            0.0000000000
     36216      4824  TIP3      H2             -7.7258385921       -1.9456724290      -39.9645597303  TIP3      4632            0.0000000000
     36217      4825  TIP3      OH2            -8.7336006388      -12.8695638163      -37.3443913553  TIP3      4633            0.0000000000
     36218      4825  TIP3      H1             -7.9531746037      -12.2801060737      -37.3142912332  TIP3      4633            0.0000000000
     36219      4825  TIP3      H2             -8.9989456318      -12.9907573578      -36.4146261459  TIP3      4633            0.0000000000
     36220      4826  TIP3      OH2            -8.1671188292      -11.8426190192      -28.1896346065  TIP3      4634            0.0000000000
     36221      4826  TIP3      H1             -8.1058017282      -11.2750075989      -27.3992882781  TIP3      4634            0.0000000000
     36222      4826  TIP3      H2             -7.5025014744      -12.5311568143      -28.0672843393  TIP3      4634            0.0000000000
     36223      4827  TIP3      OH2            -7.8781654020      -15.8076435465      -36.4704471177  TIP3      4635            0.0000000000
     36224      4827  TIP3      H1             -8.2014024083      -15.1571813222      -35.8250232061  TIP3      4635            0.0000000000
     36225      4827  TIP3      H2             -7.1798318879      -15.2599204985      -36.9093120288  TIP3      4635            0.0000000000
     36226      4828  TIP3      OH2           -10.8895535017       -1.3994984157      -39.3020625193  TIP3      4636            0.0000000000
     36227      4828  TIP3      H1            -10.7170372848       -0.5809370159      -39.8105402115  TIP3      4636            0.0000000000
     36228      4828  TIP3      H2            -11.1461387846       -1.0564644584      -38.4152879590  TIP3      4636            0.0000000000
     36229      4829  TIP3      OH2           -12.2193543525      -14.7131402093      -39.6911787006  TIP3      4637            0.0000000000
     36230      4829  TIP3      H1            -12.2757755340      -13.7947443233      -39.3649002986  TIP3      4637            0.0000000000
     36231      4829  TIP3      H2            -11.2991787657      -14.9333512007      -39.4398248755  TIP3      4637            0.0000000000
     36232      4830  TIP3      OH2            -2.0094764473      -13.9973858994      -27.2993488108  TIP3      4638            0.0000000000
     36233      4830  TIP3      H1             -2.9219460024      -13.6546231488      -27.4440581626  TIP3      4638            0.0000000000
     36234      4830  TIP3      H2             -1.6891233364      -13.9853125311      -28.2165895153  TIP3      4638            0.0000000000
     36235      4831  TIP3      OH2            -3.3748173028      -10.1797334136      -33.2997421688  TIP3      4639            0.0000000000
     36236      4831  TIP3      H1             -4.2002615268      -10.6268198603      -33.5682911213  TIP3      4639            0.0000000000
     36237      4831  TIP3      H2             -2.8960118621      -10.8654911162      -32.7812216935  TIP3      4639            0.0000000000
     36238      4832  TIP3      OH2           -13.9780376445       -4.2458058743      -40.7031756829  TIP3      4640            0.0000000000
     36239      4832  TIP3      H1            -13.3116566735       -3.6336448504      -40.3745774799  TIP3      4640            0.0000000000
     36240      4832  TIP3      H2            -13.4570839515       -4.7275538313      -41.3755652131  TIP3      4640            0.0000000000
     36241      4833  TIP3      OH2           -15.5854988815      -11.5758563783      -41.4967387215  TIP3      4641            0.0000000000
     36242      4833  TIP3      H1            -15.6119757985      -10.6095182988      -41.3876012051  TIP3      4641            0.0000000000
     36243      4833  TIP3      H2            -16.4547906861      -11.7689716226      -41.8683923771  TIP3      4641            0.0000000000
     36244      4834  TIP3      OH2            -2.3169622148       -0.9140953433      -31.6223687642  TIP3      4642            0.0000000000
     36245      4834  TIP3      H1             -2.4010240685       -0.2370683506      -32.3205982274  TIP3      4642            0.0000000000
     36246      4834  TIP3      H2             -1.3528861293       -0.8659407241      -31.4429505480  TIP3      4642            0.0000000000
     36247      4835  TIP3      OH2           -14.8448105397      -16.8019699233      -32.8035594234  TIP3      4643            0.0000000000
     36248      4835  TIP3      H1            -14.9950949245      -16.7773287218      -33.7776074874  TIP3      4643            0.0000000000
     36249      4835  TIP3      H2            -15.2246489953      -17.6661710362      -32.5651759862  TIP3      4643            0.0000000000
     36250      4836  TIP3      OH2           -15.8730875517       -2.8714441391      -36.6715234262  TIP3      4644            0.0000000000
     36251      4836  TIP3      H1            -16.7307126419       -2.4242582116      -36.7234647434  TIP3      4644            0.0000000000
     36252      4836  TIP3      H2            -15.4004530402       -2.4165791246      -37.3826330210  TIP3      4644            0.0000000000
     36253      4837  TIP3      OH2           -16.5500475633       -0.3229034621      -25.4927186243  TIP3      4645            0.0000000000
     36254      4837  TIP3      H1            -16.0643123850       -0.4078365754      -24.6397989857  TIP3      4645            0.0000000000
     36255      4837  TIP3      H2            -17.1368994524       -1.0812863309      -25.4534976334  TIP3      4645            0.0000000000
     36256      4838  TIP3      OH2           -12.0229908132       -1.3492886769      -23.8058730042  TIP3      4646            0.0000000000
     36257      4838  TIP3      H1            -11.2274332088       -1.7762499073      -23.4631900343  TIP3      4646            0.0000000000
     36258      4838  TIP3      H2            -11.9849564425       -1.5746584485      -24.7491190067  TIP3      4646            0.0000000000
     36259      4839  TIP3      OH2            -7.4683227355       -1.7491331789      -41.7847191048  TIP3      4647            0.0000000000
     36260      4839  TIP3      H1             -8.3138649012       -2.2219983493      -41.8928587352  TIP3      4647            0.0000000000
     36261      4839  TIP3      H2             -6.9675252617       -2.1869039110      -42.4769888277  TIP3      4647            0.0000000000
     36262      4840  TIP3      OH2            -5.4699952550       -2.9473385940      -25.0594945020  TIP3      4648            0.0000000000
     36263      4840  TIP3      H1             -5.7777944986       -3.8250062753      -24.7615863522  TIP3      4648            0.0000000000
     36264      4840  TIP3      H2             -4.7036250355       -2.7707503927      -24.4720416591  TIP3      4648            0.0000000000
     36265      4841  TIP3      OH2            -3.2657387341       -2.0188758109      -42.1837262173  TIP3      4649            0.0000000000
     36266      4841  TIP3      H1             -3.0269682277       -2.8325352101      -41.6989184400  TIP3      4649            0.0000000000
     36267      4841  TIP3      H2             -2.4821371478       -1.8291708825      -42.7162362713  TIP3      4649            0.0000000000
     36268      4842  TIP3      OH2           -16.7569047342       -6.4465377427      -24.4346315622  TIP3      4650            0.0000000000
     36269      4842  TIP3      H1            -16.5904273594       -7.3738827044      -24.7098921701  TIP3      4650            0.0000000000
     36270      4842  TIP3      H2            -17.5188411282       -6.1952645872      -24.9858270099  TIP3      4650            0.0000000000
     36271      4843  TIP3      OH2           -12.3119683824       -6.0317845279      -42.2300788468  TIP3      4651            0.0000000000
     36272      4843  TIP3      H1            -12.2621617763       -6.8685265199      -41.7592964378  TIP3      4651            0.0000000000
     36273      4843  TIP3      H2            -11.7663550054       -6.2623396533      -43.0081942502  TIP3      4651            0.0000000000
     36274      4844  TIP3      OH2            -9.9498627785       -6.4594786910      -25.0206853087  TIP3      4652            0.0000000000
     36275      4844  TIP3      H1            -10.4027220938       -6.1483038511      -25.8205851883  TIP3      4652            0.0000000000
     36276      4844  TIP3      H2             -9.9945713695       -7.4373940754      -25.1139500812  TIP3      4652            0.0000000000
     36277      4845  TIP3      OH2            -4.3465623946       -6.6020273443      -27.6175431148  TIP3      4653            0.0000000000
     36278      4845  TIP3      H1             -3.5543757541       -6.0247494239      -27.6720408865  TIP3      4653            0.0000000000
     36279      4845  TIP3      H2             -5.0424965339       -5.9304356952      -27.5757495985  TIP3      4653            0.0000000000
     36280      4846  TIP3      OH2           -15.8908362160       -9.2072581060      -25.0249559317  TIP3      4654            0.0000000000
     36281      4846  TIP3      H1            -15.3962124675      -10.0307154174      -25.1360682177  TIP3      4654            0.0000000000
     36282      4846  TIP3      H2            -16.0867444271       -9.2247291095      -24.0754470641  TIP3      4654            0.0000000000
     36283      4847  TIP3      OH2           -11.1898456957       -8.0610966781      -39.9469642453  TIP3      4655            0.0000000000
     36284      4847  TIP3      H1            -11.6974583038       -8.6009122829      -39.3199507300  TIP3      4655            0.0000000000
     36285      4847  TIP3      H2            -10.8774904348       -8.7527515685      -40.5796895085  TIP3      4655            0.0000000000
     36286      4848  TIP3      OH2           -11.9374852911      -10.2997968440      -27.6492955178  TIP3      4656            0.0000000000
     36287      4848  TIP3      H1            -12.5210980039       -9.5771395062      -27.3732051558  TIP3      4656            0.0000000000
     36288      4848  TIP3      H2            -11.5346047986       -9.9172286269      -28.4473266720  TIP3      4656            0.0000000000
     36289      4849  TIP3      OH2           -10.1119196102       -9.8425624273      -41.7523623240  TIP3      4657            0.0000000000
     36290      4849  TIP3      H1            -10.2138453662      -10.0508751394      -42.6907082668  TIP3      4657            0.0000000000
     36291      4849  TIP3      H2             -9.1343199555       -9.7807817780      -41.6357208644  TIP3      4657            0.0000000000
     36292      4850  TIP3      OH2            -6.8345551899       -7.6834090582      -24.2665136296  TIP3      4658            0.0000000000
     36293      4850  TIP3      H1             -5.8761708093       -7.7339310839      -24.3974623706  TIP3      4658            0.0000000000
     36294      4850  TIP3      H2             -7.0444881437       -8.4526607674      -23.7368104388  TIP3      4658            0.0000000000
     36295      4851  TIP3      OH2            -0.9436124557       -7.4064591302       42.7576967128  TIP3      4659            0.0000000000
     36296      4851  TIP3      H1             -1.0397760527       -7.9059026903       41.9295767199  TIP3      4659            0.0000000000
     36297      4851  TIP3      H2             -0.7177577227       -6.5088122173       42.4894897594  TIP3      4659            0.0000000000
     36298      4852  TIP3      OH2           -11.4594113340      -12.8944220137      -26.5787682866  TIP3      4660            0.0000000000
     36299      4852  TIP3      H1            -11.4332824212      -13.5996042975      -27.2540258563  TIP3      4660            0.0000000000
     36300      4852  TIP3      H2            -11.5979828178      -12.0910946443      -27.1252518758  TIP3      4660            0.0000000000
     36301      4853  TIP3      OH2           -11.1150089149      -14.5252136332      -29.0291020187  TIP3      4661            0.0000000000
     36302      4853  TIP3      H1            -10.6100275831      -14.0640264475      -29.7373877189  TIP3      4661            0.0000000000
     36303      4853  TIP3      H2            -12.0138682452      -14.6051007087      -29.4204532497  TIP3      4661            0.0000000000
     36304      4854  TIP3      OH2            -9.5810380824       -9.0369171489      -28.7853485092  TIP3      4662            0.0000000000
     36305      4854  TIP3      H1             -8.8345755127       -9.1995128112      -29.3716637349  TIP3      4662            0.0000000000
     36306      4854  TIP3      H2             -9.9496599271       -8.2052943956      -29.1263187660  TIP3      4662            0.0000000000
     36307      4855  TIP3      OH2            -3.8590574328       -8.4997847374      -25.7398150997  TIP3      4663            0.0000000000
     36308      4855  TIP3      H1             -4.0792901010       -7.7342397324      -26.3109192734  TIP3      4663            0.0000000000
     36309      4855  TIP3      H2             -2.8870577747       -8.5203013582      -25.8588001224  TIP3      4663            0.0000000000
     36310      4856  TIP3      OH2           -13.0625886984      -11.6551751972      -24.6598839145  TIP3      4664            0.0000000000
     36311      4856  TIP3      H1            -13.8254131134      -12.2221243773      -24.8436086345  TIP3      4664            0.0000000000
     36312      4856  TIP3      H2            -12.4232555109      -11.9855559630      -25.3062859616  TIP3      4664            0.0000000000
     36313      4857  TIP3      OH2           -10.3333351391      -17.0842177880      -28.6557119325  TIP3      4665            0.0000000000
     36314      4857  TIP3      H1            -10.5187080970      -16.1231074139      -28.7608056635  TIP3      4665            0.0000000000
     36315      4857  TIP3      H2            -11.0792250441      -17.4556268684      -29.1603109041  TIP3      4665            0.0000000000
     36316      4858  TIP3      OH2            -9.0411319195      -12.8368363761      -25.0189601036  TIP3      4666            0.0000000000
     36317      4858  TIP3      H1             -9.4634722743      -12.9174934328      -24.1637860301  TIP3      4666            0.0000000000
     36318      4858  TIP3      H2             -9.8344459517      -12.9425881006      -25.6026480131  TIP3      4666            0.0000000000
     36319      4859  TIP3      OH2            -6.3435234417      -13.5584923324      -25.8805987462  TIP3      4667            0.0000000000
     36320      4859  TIP3      H1             -7.3162089583      -13.5888653743      -25.8547495296  TIP3      4667            0.0000000000
     36321      4859  TIP3      H2             -6.0565924234      -14.2948413473      -25.3118666062  TIP3      4667            0.0000000000
     36322      4860  TIP3      OH2            -4.8688337755      -14.9687050659      -24.0038512741  TIP3      4668            0.0000000000
     36323      4860  TIP3      H1             -4.7900603505      -15.9530116861      -24.0512081778  TIP3      4668            0.0000000000
     36324      4860  TIP3      H2             -4.9830230664      -14.8066281793      -23.0716299126  TIP3      4668            0.0000000000
     36325      4861  TIP3      OH2           -14.9753980028      -13.7341202875      -24.9362489179  TIP3      4669            0.0000000000
     36326      4861  TIP3      H1            -14.7154597928      -14.4509662293      -25.5474404987  TIP3      4669            0.0000000000
     36327      4861  TIP3      H2            -15.0280469709      -14.1798050635      -24.0909160044  TIP3      4669            0.0000000000
     36328      4862  TIP3      OH2           -10.0960024462      -17.7108211886      -25.9108731940  TIP3      4670            0.0000000000
     36329      4862  TIP3      H1             -9.4237243604      -18.4138892849      -25.9840323290  TIP3      4670            0.0000000000
     36330      4862  TIP3      H2            -10.2364307247      -17.5274593395      -26.8636714352  TIP3      4670            0.0000000000
     36331      4863  TIP3      OH2           -10.2958035493        0.8281170141      -40.7321851498  TIP3      4671            0.0000000000
     36332      4863  TIP3      H1             -9.3237092676        0.9234560406      -40.5995090795  TIP3      4671            0.0000000000
     36333      4863  TIP3      H2            -10.4591550647        1.5018185878      -41.3905809208  TIP3      4671            0.0000000000
     36334      4864  TIP3      OH2           -16.7268845704       -4.5888825359      -41.1928456149  TIP3      4672            0.0000000000
     36335      4864  TIP3      H1            -15.7678567552       -4.4725884758      -40.9981382777  TIP3      4672            0.0000000000
     36336      4864  TIP3      H2            -16.6885126326       -5.1602350995      -41.9651675927  TIP3      4672            0.0000000000
     36337      4865  TIP3      OH2           -17.9604880148        0.7807384335      -36.2160108265  TIP3      4673            0.0000000000
     36338      4865  TIP3      H1            -18.6748615222        0.3005606293      -36.6909200774  TIP3      4673            0.0000000000
     36339      4865  TIP3      H2            -17.6777215909        0.1234796366      -35.5588413590  TIP3      4673            0.0000000000
     36340      4866  TIP3      OH2           -17.1308474276       -1.0771600532      -34.3624604862  TIP3      4674            0.0000000000
     36341      4866  TIP3      H1            -17.4941632209       -1.9464240109      -34.1423811107  TIP3      4674            0.0000000000
     36342      4866  TIP3      H2            -16.9027348968       -0.7396539816      -33.4783291716  TIP3      4674            0.0000000000
     36343      4867  TIP3      OH2             0.4048431731       -0.2751494377      -31.4281453422  TIP3      4675            0.0000000000
     36344      4867  TIP3      H1              0.4357634281       -0.1173246653      -30.4685344166  TIP3      4675            0.0000000000
     36345      4867  TIP3      H2              1.1082526209        0.3086494047      -31.7297404620  TIP3      4675            0.0000000000
     36346      4868  TIP3      OH2            -0.0258509356       -0.6803306633      -28.4862616758  TIP3      4676            0.0000000000
     36347      4868  TIP3      H1             -0.4927917264       -1.4546448022      -28.8677315296  TIP3      4676            0.0000000000
     36348      4868  TIP3      H2              0.4657605493       -1.1241280959      -27.7751533253  TIP3      4676            0.0000000000
     36349      4869  TIP3      OH2            -1.5610134799       -4.9111798754      -23.8220939150  TIP3      4677            0.0000000000
     36350      4869  TIP3      H1             -2.4429943591       -5.0294816801      -23.4150206452  TIP3      4677            0.0000000000
     36351      4869  TIP3      H2             -1.2309296677       -4.1302188304      -23.3788587338  TIP3      4677            0.0000000000
     36352      4870  TIP3      OH2            -0.2445635911       -6.6339886418      -38.3879784027  TIP3      4678            0.0000000000
     36353      4870  TIP3      H1              0.6038683649       -6.2221548787      -38.1648860345  TIP3      4678            0.0000000000
     36354      4870  TIP3      H2             -0.2828946594       -7.3375932027      -37.7037224180  TIP3      4678            0.0000000000
     36355      4871  TIP3      OH2             0.0935853245       -8.5464668140      -36.4942094330  TIP3      4679            0.0000000000
     36356      4871  TIP3      H1             -0.6582550545       -9.0566742250      -36.1153608983  TIP3      4679            0.0000000000
     36357      4871  TIP3      H2              0.6892285457       -8.4243702301      -35.7266169039  TIP3      4679            0.0000000000
     36358      4872  TIP3      OH2            -0.1476423187       -5.8631989372      -31.5052034844  TIP3      4680            0.0000000000
     36359      4872  TIP3      H1              0.6654058807       -6.2386059519      -31.8864393757  TIP3      4680            0.0000000000
     36360      4872  TIP3      H2             -0.0008063393       -4.9084870776      -31.6703707965  TIP3      4680            0.0000000000
     36361      4873  TIP3      OH2            -1.5855069544       -2.9545489579      -29.2417043337  TIP3      4681            0.0000000000
     36362      4873  TIP3      H1             -2.2759972894       -2.6103406452      -28.6509370748  TIP3      4681            0.0000000000
     36363      4873  TIP3      H2             -2.1351119140       -3.3539123458      -29.9471803055  TIP3      4681            0.0000000000
     36364      4874  TIP3      OH2             0.3867883470       -8.7382402152      -40.1227210484  TIP3      4682            0.0000000000
     36365      4874  TIP3      H1             -0.2052910862       -8.3778432250      -40.8072419533  TIP3      4682            0.0000000000
     36366      4874  TIP3      H2              0.3179670775       -8.0347792928      -39.4458304483  TIP3      4682            0.0000000000
     36367      4875  TIP3      OH2            -1.6284048065      -11.4737723859      -41.4864502394  TIP3      4683            0.0000000000
     36368      4875  TIP3      H1             -1.1635876193      -10.8882018593      -42.1076152495  TIP3      4683            0.0000000000
     36369      4875  TIP3      H2             -1.4381798898      -12.3200687861      -41.9378612377  TIP3      4683            0.0000000000
     36370      4876  TIP3      OH2            -2.0787680440      -10.0794126628      -35.9166476813  TIP3      4684            0.0000000000
     36371      4876  TIP3      H1             -2.2312409844      -11.0347571766      -35.9674012524  TIP3      4684            0.0000000000
     36372      4876  TIP3      H2             -2.4076117189       -9.8720803288      -35.0219697521  TIP3      4684            0.0000000000
     36373      4877  TIP3      OH2           -17.0764091849       -7.9941552690      -31.8623758321  TIP3      4685            0.0000000000
     36374      4877  TIP3      H1            -16.8973004858       -8.0803004218      -32.8248738731  TIP3      4685            0.0000000000
     36375      4877  TIP3      H2            -16.1823152810       -8.1738076014      -31.5074777037  TIP3      4685            0.0000000000
     36376      4878  TIP3      OH2            -1.2363358443       -8.1399097562      -26.2588168784  TIP3      4686            0.0000000000
     36377      4878  TIP3      H1             -0.6033707413       -8.8708290370      -26.0952553768  TIP3      4686            0.0000000000
     36378      4878  TIP3      H2             -0.6462912847       -7.3583172710      -26.2315974539  TIP3      4686            0.0000000000
     36379      4879  TIP3      OH2             0.2673647594      -10.2330959451      -25.6052778324  TIP3      4687            0.0000000000
     36380      4879  TIP3      H1             -0.6099075566      -10.6438705790      -25.7395048949  TIP3      4687            0.0000000000
     36381      4879  TIP3      H2              0.8379071877      -11.0175400502      -25.6547344925  TIP3      4687            0.0000000000
     36382      4880  TIP3      OH2            -1.9735367050      -14.0920496317      -42.4893609479  TIP3      4688            0.0000000000
     36383      4880  TIP3      H1             -1.4022813214      -14.5050137422      -41.8111930184  TIP3      4688            0.0000000000
     36384      4880  TIP3      H2             -2.8685074875      -14.4030362638      -42.2707286541  TIP3      4688            0.0000000000
     36385      4881  TIP3      OH2            -2.4170325656      -12.4967518754      -37.4425133185  TIP3      4689            0.0000000000
     36386      4881  TIP3      H1             -2.1117203766      -13.4260753700      -37.3362577618  TIP3      4689            0.0000000000
     36387      4881  TIP3      H2             -1.6385532700      -12.0969071786      -37.8518743751  TIP3      4689            0.0000000000
     36388      4882  TIP3      OH2            -1.7748373059      -11.9535812921      -32.0181154701  TIP3      4690            0.0000000000
     36389      4882  TIP3      H1             -0.8137442595      -11.7243054499      -32.0376296636  TIP3      4690            0.0000000000
     36390      4882  TIP3      H2             -1.9595917949      -11.8136684236      -31.0776046225  TIP3      4690            0.0000000000
     36391      4883  TIP3      OH2            -1.7073830313      -11.2312990089      -29.2373064843  TIP3      4691            0.0000000000
     36392      4883  TIP3      H1             -2.5920152885      -10.9430730168      -28.9265369951  TIP3      4691            0.0000000000
     36393      4883  TIP3      H2             -1.2730408906      -10.3738134153      -29.4596961439  TIP3      4691            0.0000000000
     36394      4884  TIP3      OH2           -17.4717942745      -12.7947482247      -25.8023126045  TIP3      4692            0.0000000000
     36395      4884  TIP3      H1            -16.5257293659      -12.8876124887      -25.5457851609  TIP3      4692            0.0000000000
     36396      4884  TIP3      H2            -17.8942832533      -13.5235934479      -25.3559745423  TIP3      4692            0.0000000000
     36397      4885  TIP3      OH2             0.5525309820      -17.1915942742      -23.9103428810  TIP3      4693            0.0000000000
     36398      4885  TIP3      H1              0.9247730738      -17.8601429170      -24.4955826490  TIP3      4693            0.0000000000
     36399      4885  TIP3      H2              0.6693599652      -16.3666998067      -24.4067942512  TIP3      4693            0.0000000000
     36400      4886  TIP3      OH2            -1.7413280850      -15.2230040518      -37.4210148832  TIP3      4694            0.0000000000
     36401      4886  TIP3      H1             -1.5279749104      -15.6495539995      -36.5613818042  TIP3      4694            0.0000000000
     36402      4886  TIP3      H2             -2.3486742150      -15.8564887134      -37.8575675772  TIP3      4694            0.0000000000
     36403      4887  TIP3      OH2           -16.2588844403      -14.4175773576      -32.8570801481  TIP3      4695            0.0000000000
     36404      4887  TIP3      H1            -15.7788950596      -15.2298529421      -32.5990360165  TIP3      4695            0.0000000000
     36405      4887  TIP3      H2            -15.7124932682      -13.7165081243      -32.4768956623  TIP3      4695            0.0000000000
     36406      4888  TIP3      OH2           -17.9779793246      -11.4031203940      -31.8140506942  TIP3      4696            0.0000000000
     36407      4888  TIP3      H1            -17.4153496102      -11.6534279608      -32.5775156971  TIP3      4696            0.0000000000
     36408      4888  TIP3      H2            -17.5100275515      -10.5937312334      -31.5568055253  TIP3      4696            0.0000000000
     36409      4889  TIP3      OH2             0.1025015386      -15.0451139547      -25.5692279692  TIP3      4697            0.0000000000
     36410      4889  TIP3      H1             -0.8444661583      -14.8134882280      -25.5988164576  TIP3      4697            0.0000000000
     36411      4889  TIP3      H2              0.1243478561      -15.6157681064      -26.3516666935  TIP3      4697            0.0000000000
     36412      4890  TIP3      OH2             0.0688199477      -15.1491301951      -40.8553093068  TIP3      4698            0.0000000000
     36413      4890  TIP3      H1              0.4976909267      -15.8633710802      -41.3549436013  TIP3      4698            0.0000000000
     36414      4890  TIP3      H2              0.7963816387      -14.5035621083      -40.8346851306  TIP3      4698            0.0000000000
     36415      4891  TIP3      OH2           -17.6237605758      -15.1669370083      -37.7713378357  TIP3      4699            0.0000000000
     36416      4891  TIP3      H1            -18.5555593568      -14.9531631442      -37.8752893516  TIP3      4699            0.0000000000
     36417      4891  TIP3      H2            -17.1885345066      -14.6533949375      -38.4769484921  TIP3      4699            0.0000000000
     36418      4892  TIP3      OH2            -2.8786956177       -0.1941824566      -35.7908050706  TIP3      4700            0.0000000000
     36419      4892  TIP3      H1             -2.1937274729       -0.4955703116      -36.4149363001  TIP3      4700            0.0000000000
     36420      4892  TIP3      H2             -2.3619699169        0.3060915089      -35.1421812264  TIP3      4700            0.0000000000
     36421      4893  TIP3      OH2           -17.6611762319      -16.5065932635      -29.4831161773  TIP3      4701            0.0000000000
     36422      4893  TIP3      H1            -18.3008061337      -16.6737190752      -28.7732770729  TIP3      4701            0.0000000000
     36423      4893  TIP3      H2            -18.1040623794      -15.7900070980      -29.9771815049  TIP3      4701            0.0000000000
     36424      4894  TIP3      OH2           -15.4657644262       -3.2326504907      -25.3184077930  TIP3      4702            0.0000000000
     36425      4894  TIP3      H1            -16.3672882369       -3.1144565876      -25.6253624198  TIP3      4702            0.0000000000
     36426      4894  TIP3      H2            -15.6390369129       -3.3416931516      -24.3658972970  TIP3      4702            0.0000000000
     36427      4895  TIP3      OH2           -12.5602706048       -2.2777694257      -29.0278807912  TIP3      4703            0.0000000000
     36428      4895  TIP3      H1            -12.8235530522       -1.3850733575      -29.2980311890  TIP3      4703            0.0000000000
     36429      4895  TIP3      H2            -11.6135112525       -2.2190229495      -29.2986388537  TIP3      4703            0.0000000000
     36430      4896  TIP3      OH2            -8.1908569746       -0.8835479959      -26.1007653416  TIP3      4704            0.0000000000
     36431      4896  TIP3      H1             -8.0459381932       -1.1690834643      -25.1671776682  TIP3      4704            0.0000000000
     36432      4896  TIP3      H2             -7.2962430600       -0.5539168214      -26.3324151473  TIP3      4704            0.0000000000
     36433      4897  TIP3      OH2            -5.9210265293        0.3929162603      -26.8355563630  TIP3      4705            0.0000000000
     36434      4897  TIP3      H1             -5.1721918684       -0.1838055055      -27.0351402642  TIP3      4705            0.0000000000
     36435      4897  TIP3      H2             -5.5654817762        0.8168295012      -26.0124853071  TIP3      4705            0.0000000000
     36436      4898  TIP3      OH2            -0.8833972810      -16.9740381731      -27.7039506818  TIP3      4706            0.0000000000
     36437      4898  TIP3      H1             -1.7252831504      -16.6854320963      -28.0971712801  TIP3      4706            0.0000000000
     36438      4898  TIP3      H2             -0.7309182059      -17.8116905119      -28.1993558634  TIP3      4706            0.0000000000
     36439      4899  TIP3      OH2           -15.1727453132        0.8544040580      -29.0189460016  TIP3      4707            0.0000000000
     36440      4899  TIP3      H1            -15.8155385433        1.4688841156      -29.4252611621  TIP3      4707            0.0000000000
     36441      4899  TIP3      H2            -15.4177729737        0.8718890559      -28.0828911004  TIP3      4707            0.0000000000
     36442      4900  TIP3      OH2           -12.6563178216        0.5058844595      -29.9592696596  TIP3      4708            0.0000000000
     36443      4900  TIP3      H1            -13.5258818457        0.7148972423      -29.5543766362  TIP3      4708            0.0000000000
     36444      4900  TIP3      H2            -12.6656359883        1.1198773340      -30.7195456491  TIP3      4708            0.0000000000
     36445      4901  TIP3      OH2            -7.9253797546        0.4383779641      -30.7735534147  TIP3      4709            0.0000000000
     36446      4901  TIP3      H1             -8.3853060949        0.9969826922      -31.4213292971  TIP3      4709            0.0000000000
     36447      4901  TIP3      H2             -7.7939508391        1.0718205886      -30.0380681220  TIP3      4709            0.0000000000
     36448      4902  TIP3      OH2            -5.6398648515       -0.7558179310      -29.7431795679  TIP3      4710            0.0000000000
     36449      4902  TIP3      H1             -6.4897315933       -0.4716199441      -30.1167826971  TIP3      4710            0.0000000000
     36450      4902  TIP3      H2             -5.1482251352        0.0793789435      -29.8321974186  TIP3      4710            0.0000000000
     36451      4903  TIP3      OH2            -3.0594162463        0.8127266739      -29.5290189433  TIP3      4711            0.0000000000
     36452      4903  TIP3      H1             -3.1042260990        1.7746074103      -29.7546707765  TIP3      4711            0.0000000000
     36453      4903  TIP3      H2             -2.8344993210        0.4405292302      -30.4049268498  TIP3      4711            0.0000000000
     36454      4904  TIP3      OH2           -15.6258205564       -0.3999708340      -32.0791744082  TIP3      4712            0.0000000000
     36455      4904  TIP3      H1            -15.7245849798       -0.8692706953      -31.2296985302  TIP3      4712            0.0000000000
     36456      4904  TIP3      H2            -14.8132641204       -0.7780821529      -32.4818642373  TIP3      4712            0.0000000000
     36457      4905  TIP3      OH2           -13.5605034386       -1.6868960856      -33.4245887405  TIP3      4713            0.0000000000
     36458      4905  TIP3      H1            -13.7285507724       -2.6182910663      -33.1877723263  TIP3      4713            0.0000000000
     36459      4905  TIP3      H2            -12.7067177859       -1.5305442638      -32.9692854437  TIP3      4713            0.0000000000
     36460      4906  TIP3      OH2           -10.9531447608       -1.1988376757      -32.5426085497  TIP3      4714            0.0000000000
     36461      4906  TIP3      H1            -10.7981724910       -2.1238607276      -32.8104652086  TIP3      4714            0.0000000000
     36462      4906  TIP3      H2            -10.9112516153       -1.2611034151      -31.5768294092  TIP3      4714            0.0000000000
     36463      4907  TIP3      OH2            -7.5074353041      -15.5517093090      -33.4092751843  TIP3      4715            0.0000000000
     36464      4907  TIP3      H1             -8.1824927194      -16.1906407993      -33.1241174660  TIP3      4715            0.0000000000
     36465      4907  TIP3      H2             -6.9544936802      -16.0885093876      -33.9890772456  TIP3      4715            0.0000000000
     36466      4908  TIP3      OH2            -2.3704035526      -17.5050638023      -33.3522673806  TIP3      4716            0.0000000000
     36467      4908  TIP3      H1             -1.7588611938      -16.9109373855      -33.8551706473  TIP3      4716            0.0000000000
     36468      4908  TIP3      H2             -3.2549523195      -17.1449303050      -33.5735017492  TIP3      4716            0.0000000000
     36469      4909  TIP3      OH2            -0.7061069098      -16.2519413902      -35.0697289783  TIP3      4717            0.0000000000
     36470      4909  TIP3      H1             -0.0171192793      -16.8336773675      -35.4758510171  TIP3      4717            0.0000000000
     36471      4909  TIP3      H2             -0.1919279331      -15.4195492077      -34.9601979583  TIP3      4717            0.0000000000
     36472      4910  TIP3      OH2           -15.1614280366      -16.9436334503      -35.5195648453  TIP3      4718            0.0000000000
     36473      4910  TIP3      H1            -15.9159474443      -17.1066585239      -36.1120291529  TIP3      4718            0.0000000000
     36474      4910  TIP3      H2            -14.6648342015      -17.7794320542      -35.6284553676  TIP3      4718            0.0000000000
     36475      4911  TIP3      OH2           -16.4026649203      -17.1710850300      -39.8517013600  TIP3      4719            0.0000000000
     36476      4911  TIP3      H1            -15.8846939899      -16.5306189114      -40.3818929743  TIP3      4719            0.0000000000
     36477      4911  TIP3      H2            -16.9150278538      -16.5931953128      -39.2689242355  TIP3      4719            0.0000000000
     36478      4912  TIP3      OH2           -10.6701940814      -17.0031815215      -35.7698112711  TIP3      4720            0.0000000000
     36479      4912  TIP3      H1             -9.7700227829      -16.6458596491      -35.8516567874  TIP3      4720            0.0000000000
     36480      4912  TIP3      H2            -10.6977878883      -17.2196875465      -34.8389094401  TIP3      4720            0.0000000000
     36481      4913  TIP3      OH2            -4.9459962051      -16.9858528829      -34.1504434505  TIP3      4721            0.0000000000
     36482      4913  TIP3      H1             -5.0016182040      -16.8647506385      -35.1060450087  TIP3      4721            0.0000000000
     36483      4913  TIP3      H2             -5.3276130828      -17.8893183578      -34.0285871322  TIP3      4721            0.0000000000
     36484      4914  TIP3      OH2            -3.6843659267      -16.9640907509      -38.4964985276  TIP3      4722            0.0000000000
     36485      4914  TIP3      H1             -4.4282435208      -16.3615857674      -38.6434870936  TIP3      4722            0.0000000000
     36486      4914  TIP3      H2             -4.1250470933      -17.8140712064      -38.2570308040  TIP3      4722            0.0000000000
     36487      4915  TIP3      OH2           -16.4438094723       -1.2114705978      -38.8169438423  TIP3      4723            0.0000000000
     36488      4915  TIP3      H1            -17.1201306500       -1.2225858803      -39.5193215578  TIP3      4723            0.0000000000
     36489      4915  TIP3      H2            -16.4178440230       -0.2569908916      -38.6711781333  TIP3      4723            0.0000000000
     36490      4916  TIP3      OH2           -14.5511402943      -15.3301671621      -41.2808618252  TIP3      4724            0.0000000000
     36491      4916  TIP3      H1            -13.9985602879      -15.8603411270      -41.8546836776  TIP3      4724            0.0000000000
     36492      4916  TIP3      H2            -13.8863623511      -14.8887517064      -40.7219463408  TIP3      4724            0.0000000000
     36493      4917  TIP3      OH2            -9.5124341191      -14.9861830230      -38.9197897620  TIP3      4725            0.0000000000
     36494      4917  TIP3      H1             -9.2466041538      -15.5601787775      -38.1833963546  TIP3      4725            0.0000000000
     36495      4917  TIP3      H2             -9.4381273582      -14.1191545893      -38.4573086723  TIP3      4725            0.0000000000
     36496      4918  TIP3      OH2            -7.6187189425        0.3852610272      -40.4681224694  TIP3      4726            0.0000000000
     36497      4918  TIP3      H1             -6.6518747557        0.3604543245      -40.6054131562  TIP3      4726            0.0000000000
     36498      4918  TIP3      H2             -7.7869261745       -0.3604491725      -41.0938517826  TIP3      4726            0.0000000000
     36499      4919  TIP3      OH2            -0.8880812577       -0.4096060750      -37.7567170634  TIP3      4727            0.0000000000
     36500      4919  TIP3      H1             -1.0813151313       -1.1906586251      -38.3326408200  TIP3      4727            0.0000000000
     36501      4919  TIP3      H2             -0.9719415425        0.3221735757      -38.3972794421  TIP3      4727            0.0000000000
     36502      4920  TIP3      OH2           -15.2839120116      -16.3813243194      -26.0803858369  TIP3      4728            0.0000000000
     36503      4920  TIP3      H1            -15.6325156111      -17.2019229955      -25.6923222532  TIP3      4728            0.0000000000
     36504      4920  TIP3      H2            -14.3592897976      -16.4185462618      -25.7509176051  TIP3      4728            0.0000000000
     36505      4921  TIP3      OH2           -13.2529128263      -17.0172510469      -24.5151815910  TIP3      4729            0.0000000000
     36506      4921  TIP3      H1            -12.3542746322      -17.3138692900      -24.7442187149  TIP3      4729            0.0000000000
     36507      4921  TIP3      H2            -13.6100158221      -17.7937013672      -24.0580264826  TIP3      4729            0.0000000000
     36508      4922  TIP3      OH2           -14.5928407857       -0.2332739627      -41.8626347341  TIP3      4730            0.0000000000
     36509      4922  TIP3      H1            -14.9296230503        0.0256793917      -40.9931921613  TIP3      4730            0.0000000000
     36510      4922  TIP3      H2            -13.8518340485       -0.8050075001      -41.6780404026  TIP3      4730            0.0000000000
     36511      4923  TIP3      OH2            -4.8372199539      -17.6543405232      -24.3025689358  TIP3      4731            0.0000000000
     36512      4923  TIP3      H1             -4.7494580096      -18.1639271807      -23.4713776513  TIP3      4731            0.0000000000
     36513      4923  TIP3      H2             -3.9313375877      -17.7524876153      -24.6812416411  TIP3      4731            0.0000000000
     36514      4924  TIP3      OH2            -1.6353241665       -1.6732079166      -25.6567703702  TIP3      4732            0.0000000000
     36515      4924  TIP3      H1             -2.4327317847       -1.8010069036      -26.2183922178  TIP3      4732            0.0000000000
     36516      4924  TIP3      H2             -1.7573222652       -0.7257639648      -25.4475425064  TIP3      4732            0.0000000000
     36517      4925  TIP3      OH2            12.8387415061       -7.7903566096      -35.7029052020  TIP3      4733            0.0000000000
     36518      4925  TIP3      H1             12.8029442321       -6.8105179324      -35.7324888981  TIP3      4733            0.0000000000
     36519      4925  TIP3      H2             12.0937417726       -8.0217720607      -36.2871840333  TIP3      4733            0.0000000000
     36520      4926  TIP3      OH2            11.6620576424       -8.5345098154      -32.2001282487  TIP3      4734            0.0000000000
     36521      4926  TIP3      H1             11.6459001265       -9.1807801798      -31.4789482912  TIP3      4734            0.0000000000
     36522      4926  TIP3      H2             11.3100118905       -9.0426074583      -32.9523915472  TIP3      4734            0.0000000000
     36523      4927  TIP3      OH2             4.0138201275       -8.8536799813      -30.6503614205  TIP3      4735            0.0000000000
     36524      4927  TIP3      H1              4.0972644365       -9.5462012551      -29.9624233432  TIP3      4735            0.0000000000
     36525      4927  TIP3      H2              4.7647494196       -8.2853837488      -30.4256494331  TIP3      4735            0.0000000000
     36526      4928  TIP3      OH2            15.3792869574       -5.6133433551      -33.8982966497  TIP3      4736            0.0000000000
     36527      4928  TIP3      H1             14.9070688259       -6.2891500016      -33.4080684322  TIP3      4736            0.0000000000
     36528      4928  TIP3      H2             15.3684554289       -4.8735110733      -33.2564428356  TIP3      4736            0.0000000000
     36529      4929  TIP3      OH2             4.9387869297       -4.4066465107      -32.1540939308  TIP3      4737            0.0000000000
     36530      4929  TIP3      H1              4.6304667893       -5.2790619387      -32.4677784996  TIP3      4737            0.0000000000
     36531      4929  TIP3      H2              5.8947187762       -4.5881605205      -32.1068372377  TIP3      4737            0.0000000000
     36532      4930  TIP3      OH2             1.5766954085      -10.8554039025      -36.6584579568  TIP3      4738            0.0000000000
     36533      4930  TIP3      H1              1.1439456194       -9.9824525214      -36.7156329851  TIP3      4738            0.0000000000
     36534      4930  TIP3      H2              1.0164638823      -11.3896815427      -37.2383528422  TIP3      4738            0.0000000000
     36535      4931  TIP3      OH2             2.2927157658       -8.6269711698      -34.5052298891  TIP3      4739            0.0000000000
     36536      4931  TIP3      H1              2.5696854256       -9.4505558751      -34.0605140183  TIP3      4739            0.0000000000
     36537      4931  TIP3      H2              2.9818277886       -8.5177749588      -35.1777374698  TIP3      4739            0.0000000000
     36538      4932  TIP3      OH2            12.4639100997       -0.4245107704      -33.6793937869  TIP3      4740            0.0000000000
     36539      4932  TIP3      H1             13.1154094993       -1.1112003936      -33.9671853873  TIP3      4740            0.0000000000
     36540      4932  TIP3      H2             12.2475191970       -0.7659899397      -32.8113546588  TIP3      4740            0.0000000000
     36541      4933  TIP3      OH2            10.0380663321       -6.1381245295      -31.7236836636  TIP3      4741            0.0000000000
     36542      4933  TIP3      H1             10.3737544821       -6.7604175832      -32.3864639514  TIP3      4741            0.0000000000
     36543      4933  TIP3      H2             10.8512663726       -5.9766488100      -31.2139739571  TIP3      4741            0.0000000000
     36544      4934  TIP3      OH2            18.5688129195      -14.4046005638      -31.0476390540  TIP3      4742            0.0000000000
     36545      4934  TIP3      H1             18.8198187481      -13.9320217406      -30.2175019012  TIP3      4742            0.0000000000
     36546      4934  TIP3      H2             19.2485409249      -14.0729975731      -31.6439746866  TIP3      4742            0.0000000000
     36547      4935  TIP3      OH2            13.2627091521      -11.6561576539      -31.4277506465  TIP3      4743            0.0000000000
     36548      4935  TIP3      H1             13.3554948290      -12.6275424718      -31.3966408714  TIP3      4743            0.0000000000
     36549      4935  TIP3      H2             13.0724523672      -11.5388706027      -32.3756868231  TIP3      4743            0.0000000000
     36550      4936  TIP3      OH2             6.3157299083      -13.5742952796      -34.2019124098  TIP3      4744            0.0000000000
     36551      4936  TIP3      H1              6.4271405598      -12.7418325748      -34.6978262797  TIP3      4744            0.0000000000
     36552      4936  TIP3      H2              5.9205383668      -14.1494564249      -34.8927469751  TIP3      4744            0.0000000000
     36553      4937  TIP3      OH2            14.0552138016      -13.4784709402      -35.8178524934  TIP3      4745            0.0000000000
     36554      4937  TIP3      H1             14.7033202095      -13.8260412536      -35.1651636755  TIP3      4745            0.0000000000
     36555      4937  TIP3      H2             14.6212980773      -12.9357691919      -36.3866695175  TIP3      4745            0.0000000000
     36556      4938  TIP3      OH2             2.9419923368      -11.1638873953      -33.4681498464  TIP3      4746            0.0000000000
     36557      4938  TIP3      H1              3.6103623683      -11.7065909837      -33.0107113289  TIP3      4746            0.0000000000
     36558      4938  TIP3      H2              3.0500627036      -11.4798979848      -34.3785756044  TIP3      4746            0.0000000000
     36559      4939  TIP3      OH2             8.0971542262       -9.6066750250      -34.1428365736  TIP3      4747            0.0000000000
     36560      4939  TIP3      H1              8.7713451792      -10.1899279609      -33.7544073989  TIP3      4747            0.0000000000
     36561      4939  TIP3      H2              7.5842150618      -10.2588523403      -34.6597542446  TIP3      4747            0.0000000000
     36562      4940  TIP3      OH2            19.0814549541      -13.0076449796      -28.7778698001  TIP3      4748            0.0000000000
     36563      4940  TIP3      H1             18.4268752838      -12.2848352135      -28.8025209625  TIP3      4748            0.0000000000
     36564      4940  TIP3      H2             19.1454552244      -13.2223822661      -27.8267783038  TIP3      4748            0.0000000000
     36565      4941  TIP3      OH2             5.2333652940      -14.6743110706      -30.1605269087  TIP3      4749            0.0000000000
     36566      4941  TIP3      H1              4.9480261305      -14.1042781932      -30.9068866305  TIP3      4749            0.0000000000
     36567      4941  TIP3      H2              4.5528544425      -14.4486848638      -29.4803298296  TIP3      4749            0.0000000000
     36568      4942  TIP3      OH2            12.5041558552       -5.2049923066      -36.6219790531  TIP3      4750            0.0000000000
     36569      4942  TIP3      H1             12.2326345424       -5.4665915193      -37.5177358169  TIP3      4750            0.0000000000
     36570      4942  TIP3      H2             12.2062574152       -4.2681309259      -36.5704205170  TIP3      4750            0.0000000000
     36571      4943  TIP3      OH2             7.7376534028       -7.0358736707      -29.9409798639  TIP3      4751            0.0000000000
     36572      4943  TIP3      H1              7.0407133745       -6.3920467212      -29.6896738258  TIP3      4751            0.0000000000
     36573      4943  TIP3      H2              8.4494446328       -6.4358705822      -30.2172803074  TIP3      4751            0.0000000000
     36574      4944  TIP3      OH2            15.8752295839      -14.1293541702      -33.8246309036  TIP3      4752            0.0000000000
     36575      4944  TIP3      H1             15.6507226100      -14.9223751984      -33.3199720769  TIP3      4752            0.0000000000
     36576      4944  TIP3      H2             16.5597472814      -13.7457762384      -33.2633297906  TIP3      4752            0.0000000000
     36577      4945  TIP3      OH2             4.7985031415      -12.8226439552      -32.1217945291  TIP3      4753            0.0000000000
     36578      4945  TIP3      H1              5.4253393789      -12.1306685270      -31.8121275273  TIP3      4753            0.0000000000
     36579      4945  TIP3      H2              5.3119658024      -13.2288454878      -32.8648653093  TIP3      4753            0.0000000000
     36580      4946  TIP3      OH2             6.1901287436       -5.0295995847      -29.0998118975  TIP3      4754            0.0000000000
     36581      4946  TIP3      H1              6.1445536924       -4.1144777435      -29.4287664725  TIP3      4754            0.0000000000
     36582      4946  TIP3      H2              5.3063597506       -5.1072158736      -28.6632982677  TIP3      4754            0.0000000000
     36583      4947  TIP3      OH2             2.2473579600       -5.4198388442      -38.3191877534  TIP3      4755            0.0000000000
     36584      4947  TIP3      H1              2.0492977829       -5.0712683984      -39.2116696198  TIP3      4755            0.0000000000
     36585      4947  TIP3      H2              2.3333828296       -4.5959028946      -37.7942312145  TIP3      4755            0.0000000000
     36586      4948  TIP3      OH2            15.8771704644       -3.7444738111      -31.5459478003  TIP3      4756            0.0000000000
     36587      4948  TIP3      H1             14.9082169291       -3.6344905207      -31.4295472882  TIP3      4756            0.0000000000
     36588      4948  TIP3      H2             16.1447365927       -2.8302026785      -31.7557797407  TIP3      4756            0.0000000000
     36589      4949  TIP3      OH2            16.1701797714      -15.4858100635      -30.1835926192  TIP3      4757            0.0000000000
     36590      4949  TIP3      H1             15.4805202455      -14.8160573422      -30.2546843356  TIP3      4757            0.0000000000
     36591      4949  TIP3      H2             16.9216889768      -15.0724055905      -30.6571927264  TIP3      4757            0.0000000000
     36592      4950  TIP3      OH2             9.1627383600      -17.3394295433      -32.6964069823  TIP3      4758            0.0000000000
     36593      4950  TIP3      H1              9.0150639705      -18.3040828895      -32.7735693594  TIP3      4758            0.0000000000
     36594      4950  TIP3      H2              8.2834417513      -17.0351730295      -32.3876293054  TIP3      4758            0.0000000000
     36595      4951  TIP3      OH2            14.1369988458       -1.9628903095      -34.9644741111  TIP3      4759            0.0000000000
     36596      4951  TIP3      H1             14.5629995482       -2.6827902021      -35.4733565468  TIP3      4759            0.0000000000
     36597      4951  TIP3      H2             14.5831156402       -1.1756285511      -35.3433400412  TIP3      4759            0.0000000000
     36598      4952  TIP3      OH2            15.3499488025       -4.0370355030      -36.4507226380  TIP3      4760            0.0000000000
     36599      4952  TIP3      H1             15.0539165975       -4.7270258816      -37.0691683810  TIP3      4760            0.0000000000
     36600      4952  TIP3      H2             15.3831464676       -4.5322320873      -35.6120531869  TIP3      4760            0.0000000000
     36601      4953  TIP3      OH2            16.9758707907       -5.4431781374      -27.9328101140  TIP3      4761            0.0000000000
     36602      4953  TIP3      H1             17.1119194001       -6.0936249071      -28.6550933396  TIP3      4761            0.0000000000
     36603      4953  TIP3      H2             17.1613215931       -4.5985143231      -28.3837312239  TIP3      4761            0.0000000000
     36604      4954  TIP3      OH2            11.4689514983       -8.5437708456      -38.1988307995  TIP3      4762            0.0000000000
     36605      4954  TIP3      H1             10.7775366570       -7.9667774443      -38.5899648354  TIP3      4762            0.0000000000
     36606      4954  TIP3      H2             12.1759720187       -8.4574575311      -38.8620733290  TIP3      4762            0.0000000000
     36607      4955  TIP3      OH2            11.4974410625      -10.0085148196      -41.1022855901  TIP3      4763            0.0000000000
     36608      4955  TIP3      H1             12.2338900580      -10.0067287842      -40.4703837363  TIP3      4763            0.0000000000
     36609      4955  TIP3      H2             11.8273607351      -10.6477933869      -41.7385119696  TIP3      4763            0.0000000000
     36610      4956  TIP3      OH2            18.8224993110       -9.1556824221      -29.9734659034  TIP3      4764            0.0000000000
     36611      4956  TIP3      H1             18.2100686413       -8.3970243051      -29.8515944629  TIP3      4764            0.0000000000
     36612      4956  TIP3      H2             19.3878871650       -8.8473792906      -30.7020627312  TIP3      4764            0.0000000000
     36613      4957  TIP3      OH2            14.9247379284       -8.3191861671      -37.2339297265  TIP3      4765            0.0000000000
     36614      4957  TIP3      H1             14.1492957205       -8.0870518249      -36.6626344001  TIP3      4765            0.0000000000
     36615      4957  TIP3      H2             15.3646753988       -9.0192727422      -36.7480406185  TIP3      4765            0.0000000000
     36616      4958  TIP3      OH2            14.8341846368      -10.1874377365      -28.1402778248  TIP3      4766            0.0000000000
     36617      4958  TIP3      H1             14.8457007062       -9.3705657768      -27.6094021758  TIP3      4766            0.0000000000
     36618      4958  TIP3      H2             14.1949111186       -9.8874018357      -28.8167694490  TIP3      4766            0.0000000000
     36619      4959  TIP3      OH2             6.5213860550       -7.6832050044      -35.3512415168  TIP3      4767            0.0000000000
     36620      4959  TIP3      H1              6.2023362822       -8.0738878624      -36.1995390836  TIP3      4767            0.0000000000
     36621      4959  TIP3      H2              7.1371572522       -8.3719066877      -35.0149871172  TIP3      4767            0.0000000000
     36622      4960  TIP3      OH2             7.8371255292       -4.3013248233      -32.6675188164  TIP3      4768            0.0000000000
     36623      4960  TIP3      H1              7.8403176605       -4.8202999104      -33.4822670295  TIP3      4768            0.0000000000
     36624      4960  TIP3      H2              8.6235271202       -4.6545787357      -32.2099356889  TIP3      4768            0.0000000000
     36625      4961  TIP3      OH2             6.8485855098       -8.9354657358      -31.6836957768  TIP3      4769            0.0000000000
     36626      4961  TIP3      H1              7.3955643878       -8.8393759298      -32.4880758756  TIP3      4769            0.0000000000
     36627      4961  TIP3      H2              7.2444943210       -8.2686293903      -31.0782196943  TIP3      4769            0.0000000000
     36628      4962  TIP3      OH2            13.2770931330       -3.3573903203      -30.9750467024  TIP3      4770            0.0000000000
     36629      4962  TIP3      H1             12.9721631418       -2.7146781195      -30.3264718519  TIP3      4770            0.0000000000
     36630      4962  TIP3      H2             13.0159323665       -4.2102901543      -30.5548621769  TIP3      4770            0.0000000000
     36631      4963  TIP3      OH2             7.7877083902       -4.5127413451      -26.9524503145  TIP3      4771            0.0000000000
     36632      4963  TIP3      H1              7.3756790187       -3.7525119204      -26.5032209768  TIP3      4771            0.0000000000
     36633      4963  TIP3      H2              7.1476795237       -4.7056548667      -27.6833674571  TIP3      4771            0.0000000000
     36634      4964  TIP3      OH2            13.7989831571       -9.1657084728      -39.5839178617  TIP3      4772            0.0000000000
     36635      4964  TIP3      H1             14.3360779205       -8.9511067722      -38.7854375064  TIP3      4772            0.0000000000
     36636      4964  TIP3      H2             14.1866283652       -8.6043698715      -40.2800500379  TIP3      4772            0.0000000000
     36637      4965  TIP3      OH2             4.7485367981       -8.3362687479      -27.8317837410  TIP3      4773            0.0000000000
     36638      4965  TIP3      H1              4.7972785337       -7.6728740018      -27.1218166975  TIP3      4773            0.0000000000
     36639      4965  TIP3      H2              3.8077872538       -8.2575616948      -28.0558013126  TIP3      4773            0.0000000000
     36640      4966  TIP3      OH2            11.4923118083       -2.4231140207      -36.1117971266  TIP3      4774            0.0000000000
     36641      4966  TIP3      H1             11.9309484096       -2.1038289215      -35.3161669648  TIP3      4774            0.0000000000
     36642      4966  TIP3      H2             10.9470344242       -1.6727733312      -36.3787595542  TIP3      4774            0.0000000000
     36643      4967  TIP3      OH2             6.0586368075       -2.4799495465      -26.2336075069  TIP3      4775            0.0000000000
     36644      4967  TIP3      H1              6.0030028520       -2.5543142853      -27.2036125130  TIP3      4775            0.0000000000
     36645      4967  TIP3      H2              5.1151746551       -2.5883025363      -25.9909496371  TIP3      4775            0.0000000000
     36646      4968  TIP3      OH2            17.5039281824      -17.4108959300      -39.6992079070  TIP3      4776            0.0000000000
     36647      4968  TIP3      H1             16.5524548536      -17.3034479126      -39.4561842976  TIP3      4776            0.0000000000
     36648      4968  TIP3      H2             17.7227252149      -16.5547659860      -40.1044023528  TIP3      4776            0.0000000000
     36649      4969  TIP3      OH2             5.4849435734       -8.6573071196      -37.7339569666  TIP3      4777            0.0000000000
     36650      4969  TIP3      H1              5.2086974913       -7.8841910395      -38.2652502143  TIP3      4777            0.0000000000
     36651      4969  TIP3      H2              4.8360357653       -9.3256916332      -37.9733925185  TIP3      4777            0.0000000000
     36652      4970  TIP3      OH2            18.6054297610       -3.0963160453      -41.3415226574  TIP3      4778            0.0000000000
     36653      4970  TIP3      H1             18.7250590666       -2.1337226224      -41.2197982511  TIP3      4778            0.0000000000
     36654      4970  TIP3      H2             19.5429609690       -3.3578788234      -41.3918390505  TIP3      4778            0.0000000000
     36655      4971  TIP3      OH2             1.5811772889       -6.2301099710      -28.8367448410  TIP3      4779            0.0000000000
     36656      4971  TIP3      H1              1.1378080544       -6.3145385417      -29.6998302683  TIP3      4779            0.0000000000
     36657      4971  TIP3      H2              1.6647423152       -7.1751048638      -28.6099647008  TIP3      4779            0.0000000000
     36658      4972  TIP3      OH2             1.3401537103       -3.4940337770      -32.0567718290  TIP3      4780            0.0000000000
     36659      4972  TIP3      H1              2.2984588237       -3.6096570663      -32.0785261563  TIP3      4780            0.0000000000
     36660      4972  TIP3      H2              1.2595802005       -2.6740249019      -31.5548850593  TIP3      4780            0.0000000000
     36661      4973  TIP3      OH2            19.5841881531       -2.7904126281      -26.3337222694  TIP3      4781            0.0000000000
     36662      4973  TIP3      H1             19.4659742740       -3.7434366770      -26.4213093027  TIP3      4781            0.0000000000
     36663      4973  TIP3      H2             18.6912149338       -2.5358927308      -26.0003381038  TIP3      4781            0.0000000000
     36664      4974  TIP3      OH2            10.5425765202       -3.2299661258      -27.5329058414  TIP3      4782            0.0000000000
     36665      4974  TIP3      H1             10.6042225681       -2.4161035131      -26.9821308782  TIP3      4782            0.0000000000
     36666      4974  TIP3      H2              9.6828159602       -3.6082339666      -27.2723078615  TIP3      4782            0.0000000000
     36667      4975  TIP3      OH2            10.9727555875        0.4917207259      -37.7227286223  TIP3      4783            0.0000000000
     36668      4975  TIP3      H1             10.8961326813        0.4366843840      -38.6891756845  TIP3      4783            0.0000000000
     36669      4975  TIP3      H2             11.0084875538        1.4498417214      -37.5495160385  TIP3      4783            0.0000000000
     36670      4976  TIP3      OH2             4.6207810864       -0.6271374467      -35.8861738300  TIP3      4784            0.0000000000
     36671      4976  TIP3      H1              4.7679197585       -1.0427004772      -35.0053372129  TIP3      4784            0.0000000000
     36672      4976  TIP3      H2              3.7718924872       -1.0352428866      -36.1237698804  TIP3      4784            0.0000000000
     36673      4977  TIP3      OH2            14.0106100176       -0.2907162090      -40.7399733138  TIP3      4785            0.0000000000
     36674      4977  TIP3      H1             14.4636775967       -1.0536790070      -41.1735775209  TIP3      4785            0.0000000000
     36675      4977  TIP3      H2             14.0860298855       -0.5462098534      -39.8046366887  TIP3      4785            0.0000000000
     36676      4978  TIP3      OH2            13.7201370621       -0.3538854103      -37.9466406883  TIP3      4786            0.0000000000
     36677      4978  TIP3      H1             12.7631972176       -0.2900987366      -37.7636016287  TIP3      4786            0.0000000000
     36678      4978  TIP3      H2             13.9692768472       -1.1002186964      -37.3815445032  TIP3      4786            0.0000000000
     36679      4979  TIP3      OH2            16.7257560268      -11.3190507165      -25.9016964958  TIP3      4787            0.0000000000
     36680      4979  TIP3      H1             16.2280497886      -10.8641040761      -26.5996580343  TIP3      4787            0.0000000000
     36681      4979  TIP3      H2             16.7388500444      -12.2445460320      -26.2019906968  TIP3      4787            0.0000000000
     36682      4980  TIP3      OH2             3.8751471429       -4.9139425558      -27.8756733986  TIP3      4788            0.0000000000
     36683      4980  TIP3      H1              4.0820877836       -5.2836389293      -26.9923089325  TIP3      4788            0.0000000000
     36684      4980  TIP3      H2              3.0123404953       -5.3138288443      -28.1150639861  TIP3      4788            0.0000000000
     36685      4981  TIP3      OH2             6.5513835502      -16.4355963545      -31.9473682202  TIP3      4789            0.0000000000
     36686      4981  TIP3      H1              5.6473006379      -16.5648791007      -32.3113165065  TIP3      4789            0.0000000000
     36687      4981  TIP3      H2              6.4134178906      -15.6080579233      -31.4573255716  TIP3      4789            0.0000000000
     36688      4982  TIP3      OH2            11.1956114732      -16.7604511867      -28.5748844221  TIP3      4790            0.0000000000
     36689      4982  TIP3      H1             11.5834658357      -17.1915579909      -27.7921187836  TIP3      4790            0.0000000000
     36690      4982  TIP3      H2             10.2217742908      -16.8863313205      -28.4406327622  TIP3      4790            0.0000000000
     36691      4983  TIP3      OH2            14.4738725023      -12.9283164147      -27.6901544193  TIP3      4791            0.0000000000
     36692      4983  TIP3      H1             13.9212205833      -13.1319340243      -26.9031169480  TIP3      4791            0.0000000000
     36693      4983  TIP3      H2             14.3195335148      -11.9921865644      -27.9033924741  TIP3      4791            0.0000000000
     36694      4984  TIP3      OH2            15.2948103907       -8.0510681302      -41.7502823252  TIP3      4792            0.0000000000
     36695      4984  TIP3      H1             15.2975328645       -8.3039049986      -42.6834757934  TIP3      4792            0.0000000000
     36696      4984  TIP3      H2             16.1696152255       -7.6436215303      -41.6016732434  TIP3      4792            0.0000000000
     36697      4985  TIP3      OH2            10.8406981356      -14.1937408456      -41.2330864814  TIP3      4793            0.0000000000
     36698      4985  TIP3      H1             10.5141470364      -14.2480321667      -40.3172107698  TIP3      4793            0.0000000000
     36699      4985  TIP3      H2             10.5619437196      -15.0695969110      -41.5303150387  TIP3      4793            0.0000000000
     36700      4986  TIP3      OH2             6.6486022566      -11.4618192119      -30.6907487583  TIP3      4794            0.0000000000
     36701      4986  TIP3      H1              5.9211546950      -11.4726267429      -30.0425221841  TIP3      4794            0.0000000000
     36702      4986  TIP3      H2              6.6013219887      -10.5533121797      -31.0644605437  TIP3      4794            0.0000000000
     36703      4987  TIP3      OH2             6.6106713577      -11.3598476373      -35.8214008267  TIP3      4795            0.0000000000
     36704      4987  TIP3      H1              5.6705639304      -11.6000164152      -35.9597668461  TIP3      4795            0.0000000000
     36705      4987  TIP3      H2              6.9851459372      -11.6372771544      -36.6823838567  TIP3      4795            0.0000000000
     36706      4988  TIP3      OH2            12.1378335158      -10.8573562645      -37.0845700052  TIP3      4796            0.0000000000
     36707      4988  TIP3      H1             11.7348150474      -10.0190991902      -37.4070967337  TIP3      4796            0.0000000000
     36708      4988  TIP3      H2             12.8245089117      -11.0090439462      -37.7604720554  TIP3      4796            0.0000000000
     36709      4989  TIP3      OH2            11.1660003761      -10.6859354891      -25.5735560103  TIP3      4797            0.0000000000
     36710      4989  TIP3      H1             10.6569201450      -11.4365883331      -25.2723043076  TIP3      4797            0.0000000000
     36711      4989  TIP3      H2             12.0307195545      -10.7501116014      -25.1132597188  TIP3      4797            0.0000000000
     36712      4990  TIP3      OH2            13.2229495113      -11.3406640938      -34.2186357330  TIP3      4798            0.0000000000
     36713      4990  TIP3      H1             12.8608844339      -10.7995812997      -34.9418158831  TIP3      4798            0.0000000000
     36714      4990  TIP3      H2             13.2435094299      -12.2072783307      -34.6739018460  TIP3      4798            0.0000000000
     36715      4991  TIP3      OH2             4.2770454285      -11.2179410413      -29.0099982414  TIP3      4799            0.0000000000
     36716      4991  TIP3      H1              4.3775785425      -10.8070001138      -28.1324076920  TIP3      4799            0.0000000000
     36717      4991  TIP3      H2              3.8322985105      -12.0550730346      -28.7955267852  TIP3      4799            0.0000000000
     36718      4992  TIP3      OH2             7.8239687037      -13.5962388381      -41.8275111936  TIP3      4800            0.0000000000
     36719      4992  TIP3      H1              7.2703684029      -14.2187937216      -41.3104296464  TIP3      4800            0.0000000000
     36720      4992  TIP3      H2              7.2245118689      -13.2053202442      -42.4609975733  TIP3      4800            0.0000000000
     36721      4993  TIP3      OH2             0.9326998445      -14.1108113533      -35.0165125264  TIP3      4801            0.0000000000
     36722      4993  TIP3      H1              1.6179556261      -14.1491638454      -34.3187261705  TIP3      4801            0.0000000000
     36723      4993  TIP3      H2              1.3802963864      -14.4801197384      -35.8002827772  TIP3      4801            0.0000000000
     36724      4994  TIP3      OH2             2.2253339735      -13.3831142898      -39.6560966003  TIP3      4802            0.0000000000
     36725      4994  TIP3      H1              2.7189755247      -12.7985070800      -40.2653638471  TIP3      4802            0.0000000000
     36726      4994  TIP3      H2              1.5376643925      -12.7559326986      -39.3452026452  TIP3      4802            0.0000000000
     36727      4995  TIP3      OH2            12.3556843827       -9.7723423536      -29.6682359345  TIP3      4803            0.0000000000
     36728      4995  TIP3      H1             12.7464640912      -10.4603887210      -30.2432551025  TIP3      4803            0.0000000000
     36729      4995  TIP3      H2             11.8920367698      -10.2960025175      -28.9960555861  TIP3      4803            0.0000000000
     36730      4996  TIP3      OH2             9.1646921275      -13.7865756496      -34.8111696155  TIP3      4804            0.0000000000
     36731      4996  TIP3      H1              8.2290160633      -13.7912468150      -34.5284058744  TIP3      4804            0.0000000000
     36732      4996  TIP3      H2              9.6447662634      -13.9716939906      -33.9930678497  TIP3      4804            0.0000000000
     36733      4997  TIP3      OH2             3.9717532848      -12.2467360907      -35.9506319855  TIP3      4805            0.0000000000
     36734      4997  TIP3      H1              3.0908342575      -12.0887882272      -36.3473723865  TIP3      4805            0.0000000000
     36735      4997  TIP3      H2              4.2576347682      -13.0785746733      -36.3633067221  TIP3      4805            0.0000000000
     36736      4998  TIP3      OH2             7.6085443985      -12.1751671676      -38.3234445719  TIP3      4806            0.0000000000
     36737      4998  TIP3      H1              8.5675509868      -12.0797038824      -38.1593840776  TIP3      4806            0.0000000000
     36738      4998  TIP3      H2              7.3842721694      -11.5267669256      -39.0120942761  TIP3      4806            0.0000000000
     36739      4999  TIP3      OH2            13.5739264562      -14.5558930605      -31.5852453911  TIP3      4807            0.0000000000
     36740      4999  TIP3      H1             12.8929442442      -14.5122904175      -30.8752475885  TIP3      4807            0.0000000000
     36741      4999  TIP3      H2             13.0625282172      -14.8174096909      -32.3641572095  TIP3      4807            0.0000000000
     36742      5000  TIP3      OH2             6.3153433303      -11.0237221956      -40.7246866947  TIP3      4808            0.0000000000
     36743      5000  TIP3      H1              5.7593381503      -11.3677532098      -41.4457432077  TIP3      4808            0.0000000000
     36744      5000  TIP3      H2              7.1409453303      -10.8024665166      -41.1858047104  TIP3      4808            0.0000000000
     36745      5001  TIP3      OH2            16.7754828203        1.0755175962      -25.2472348505  TIP3      4809            0.0000000000
     36746      5001  TIP3      H1             17.0514673406        1.4880468664      -26.0853240484  TIP3      4809            0.0000000000
     36747      5001  TIP3      H2             17.4665864252        1.3940257609      -24.6377923514  TIP3      4809            0.0000000000
     36748      5002  TIP3      OH2             4.4407252642       -6.4607989625      -25.6858520835  TIP3      4810            0.0000000000
     36749      5002  TIP3      H1              5.1525966752       -6.1822058309      -25.1099249369  TIP3      4810            0.0000000000
     36750      5002  TIP3      H2              3.6648003103       -6.3663743935      -25.0915861602  TIP3      4810            0.0000000000
     36751      5003  TIP3      OH2            10.4524419961      -11.0355127106      -32.9261204722  TIP3      4811            0.0000000000
     36752      5003  TIP3      H1             11.0429106834      -11.5744031745      -33.4626689267  TIP3      4811            0.0000000000
     36753      5003  TIP3      H2             10.2978287444      -11.5876185801      -32.1477551866  TIP3      4811            0.0000000000
     36754      5004  TIP3      OH2             5.4566009599      -14.8968489113      -36.4743055275  TIP3      4812            0.0000000000
     36755      5004  TIP3      H1              5.1448983567      -15.8186053981      -36.4951960818  TIP3      4812            0.0000000000
     36756      5004  TIP3      H2              6.2409512963      -14.9611891516      -37.0378230384  TIP3      4812            0.0000000000
     36757      5005  TIP3      OH2             9.0848763182      -12.7133159762      -30.5096714196  TIP3      4813            0.0000000000
     36758      5005  TIP3      H1              8.2609935799      -12.1917250771      -30.4336987793  TIP3      4813            0.0000000000
     36759      5005  TIP3      H2              9.6397060014      -12.3550120226      -29.7914363031  TIP3      4813            0.0000000000
     36760      5006  TIP3      OH2             9.6829259135       -6.5185018295      -38.7846268064  TIP3      4814            0.0000000000
     36761      5006  TIP3      H1              8.8758696281       -6.9585977159      -39.1315303386  TIP3      4814            0.0000000000
     36762      5006  TIP3      H2              9.4470013817       -6.3744641467      -37.8479317588  TIP3      4814            0.0000000000
     36763      5007  TIP3      OH2            16.8799791255       -7.3287419497      -30.0585591733  TIP3      4815            0.0000000000
     36764      5007  TIP3      H1             17.4245061055       -6.7752285224      -30.6467615958  TIP3      4815            0.0000000000
     36765      5007  TIP3      H2             15.9961445013       -7.2158933551      -30.4616644800  TIP3      4815            0.0000000000
     36766      5008  TIP3      OH2            13.5461515797      -13.6981541855      -40.6316090630  TIP3      4816            0.0000000000
     36767      5008  TIP3      H1             12.6011458451      -13.5397495450      -40.8071713512  TIP3      4816            0.0000000000
     36768      5008  TIP3      H2             13.8402425626      -12.8230608680      -40.3273211308  TIP3      4816            0.0000000000
     36769      5009  TIP3      OH2            11.1761989175       -6.2182616311      -27.6016061153  TIP3      4817            0.0000000000
     36770      5009  TIP3      H1             10.8362447300       -6.6501633720      -26.8094521063  TIP3      4817            0.0000000000
     36771      5009  TIP3      H2             10.9105937766       -5.3021387323      -27.4724160657  TIP3      4817            0.0000000000
     36772      5010  TIP3      OH2            14.2410814396      -11.7514820053      -38.9752093420  TIP3      4818            0.0000000000
     36773      5010  TIP3      H1             15.1351710357      -11.8953231897      -38.6176481858  TIP3      4818            0.0000000000
     36774      5010  TIP3      H2             14.3336350342      -10.9384521852      -39.4958157864  TIP3      4818            0.0000000000
     36775      5011  TIP3      OH2             4.7888844640       -7.0869320402      -33.0126310532  TIP3      4819            0.0000000000
     36776      5011  TIP3      H1              5.4660199811       -7.1749608481      -33.7108816603  TIP3      4819            0.0000000000
     36777      5011  TIP3      H2              4.8433888313       -7.9475003574      -32.5595672461  TIP3      4819            0.0000000000
     36778      5012  TIP3      OH2            11.7786036258       -5.0347030255      -39.6940067305  TIP3      4820            0.0000000000
     36779      5012  TIP3      H1             11.3954926459       -4.1734914829      -39.4315902726  TIP3      4820            0.0000000000
     36780      5012  TIP3      H2             11.0272886905       -5.6550175732      -39.5690807146  TIP3      4820            0.0000000000
     36781      5013  TIP3      OH2             1.7765391988       -8.6978924274      -27.7711349912  TIP3      4821            0.0000000000
     36782      5013  TIP3      H1              1.9428323096       -9.1287711898      -26.9086717996  TIP3      4821            0.0000000000
     36783      5013  TIP3      H2              1.1470540148       -9.3062673732      -28.1987649945  TIP3      4821            0.0000000000
     36784      5014  TIP3      OH2             8.7720978833       -9.1453922513      -25.5832220561  TIP3      4822            0.0000000000
     36785      5014  TIP3      H1              8.4647805715       -9.4313355894      -26.4627404115  TIP3      4822            0.0000000000
     36786      5014  TIP3      H2              9.7082509592       -9.4074462523      -25.5974728032  TIP3      4822            0.0000000000
     36787      5015  TIP3      OH2            13.4802445690       -3.7957665877      -27.6240439529  TIP3      4823            0.0000000000
     36788      5015  TIP3      H1             12.5567284336       -3.6193140629      -27.8608426508  TIP3      4823            0.0000000000
     36789      5015  TIP3      H2             13.4451408226       -3.5061305590      -26.6879507395  TIP3      4823            0.0000000000
     36790      5016  TIP3      OH2            19.1207550935      -11.6194425127      -39.1854774107  TIP3      4824            0.0000000000
     36791      5016  TIP3      H1             18.5813386870      -11.9309171409      -39.9344801354  TIP3      4824            0.0000000000
     36792      5016  TIP3      H2             19.2173881781      -10.6872748661      -39.4743721900  TIP3      4824            0.0000000000
     36793      5017  TIP3      OH2            19.1326915874       -5.7648728311      -26.4053879748  TIP3      4825            0.0000000000
     36794      5017  TIP3      H1             18.2486538758       -5.5478585073      -26.7975597716  TIP3      4825            0.0000000000
     36795      5017  TIP3      H2             19.6785722849       -5.8228304797      -27.2226360395  TIP3      4825            0.0000000000
     36796      5018  TIP3      OH2            17.4364064652       -2.7939322511      -38.8520318846  TIP3      4826            0.0000000000
     36797      5018  TIP3      H1             17.0619031570       -3.6194409279      -38.5175473521  TIP3      4826            0.0000000000
     36798      5018  TIP3      H2             17.7333376278       -2.9996164080      -39.7585070046  TIP3      4826            0.0000000000
     36799      5019  TIP3      OH2            14.6403106378       -7.9740520475      -31.7479984177  TIP3      4827            0.0000000000
     36800      5019  TIP3      H1             13.6903683633       -8.1630837496      -31.8378469359  TIP3      4827            0.0000000000
     36801      5019  TIP3      H2             15.0430439453       -8.7489855813      -32.1567456137  TIP3      4827            0.0000000000
     36802      5020  TIP3      OH2             7.1554057118       -3.6392375322      -35.6281434157  TIP3      4828            0.0000000000
     36803      5020  TIP3      H1              7.6562035609       -2.8323635386      -35.8354043094  TIP3      4828            0.0000000000
     36804      5020  TIP3      H2              6.2791388664       -3.4065959265      -35.9626370594  TIP3      4828            0.0000000000
     36805      5021  TIP3      OH2             2.8842814470       -8.7807659474      -41.1054235413  TIP3      4829            0.0000000000
     36806      5021  TIP3      H1              3.5069410011       -8.1602957018      -40.6819009530  TIP3      4829            0.0000000000
     36807      5021  TIP3      H2              2.0162497124       -8.5057290196      -40.7631172742  TIP3      4829            0.0000000000
     36808      5022  TIP3      OH2             8.5742787736       -5.9764185607      -36.1092502498  TIP3      4830            0.0000000000
     36809      5022  TIP3      H1              8.2541136563       -5.0557959478      -36.0309189217  TIP3      4830            0.0000000000
     36810      5022  TIP3      H2              7.8556525156       -6.4686129468      -35.6658087293  TIP3      4830            0.0000000000
     36811      5023  TIP3      OH2             9.0228539250       -1.7845541587      -29.7026506741  TIP3      4831            0.0000000000
     36812      5023  TIP3      H1              9.4842928686       -0.9827479578      -29.9908717163  TIP3      4831            0.0000000000
     36813      5023  TIP3      H2              9.6574541696       -2.1374941094      -29.0572173950  TIP3      4831            0.0000000000
     36814      5024  TIP3      OH2             7.2536041687       -0.9786233458      -36.5998368198  TIP3      4832            0.0000000000
     36815      5024  TIP3      H1              6.2892778810       -0.8430145341      -36.4437571808  TIP3      4832            0.0000000000
     36816      5024  TIP3      H2              7.6133985559       -0.1473455947      -36.2404566952  TIP3      4832            0.0000000000
     36817      5025  TIP3      OH2            12.5388345564       -5.7947644627      -30.0945284741  TIP3      4833            0.0000000000
     36818      5025  TIP3      H1             12.2251170374       -5.9732228138      -29.1827982620  TIP3      4833            0.0000000000
     36819      5025  TIP3      H2             13.1833671277       -6.5037366531      -30.2534658580  TIP3      4833            0.0000000000
     36820      5026  TIP3      OH2            14.8529643977       -4.8068271760      -40.9669535057  TIP3      4834            0.0000000000
     36821      5026  TIP3      H1             15.1238106256       -5.2048770296      -40.1189126346  TIP3      4834            0.0000000000
     36822      5026  TIP3      H2             13.8859825528       -4.8973119924      -40.8974924030  TIP3      4834            0.0000000000
     36823      5027  TIP3      OH2            15.3596746193       -1.2024394014      -27.5834774971  TIP3      4835            0.0000000000
     36824      5027  TIP3      H1             14.6719826147       -1.6971106678      -28.0693006475  TIP3      4835            0.0000000000
     36825      5027  TIP3      H2             15.5470495200       -0.5093827341      -28.2521874496  TIP3      4835            0.0000000000
     36826      5028  TIP3      OH2            19.3538177152       -0.3303478881      -40.7427963784  TIP3      4836            0.0000000000
     36827      5028  TIP3      H1             20.0462874406        0.3068453781      -40.9989874255  TIP3      4836            0.0000000000
     36828      5028  TIP3      H2             18.6303126917        0.2672512894      -40.4513092984  TIP3      4836            0.0000000000
     36829      5029  TIP3      OH2             3.4149627615      -13.9606618466      -28.2244490367  TIP3      4837            0.0000000000
     36830      5029  TIP3      H1              2.5116314136      -13.6043375238      -28.2253715409  TIP3      4837            0.0000000000
     36831      5029  TIP3      H2              3.3189177435      -14.7945181388      -27.7377862994  TIP3      4837            0.0000000000
     36832      5030  TIP3      OH2            15.6755743515       -6.1050394596      -38.7470419895  TIP3      4838            0.0000000000
     36833      5030  TIP3      H1             15.4231734507       -6.9041340316      -38.2396924100  TIP3      4838            0.0000000000
     36834      5030  TIP3      H2             16.6141827413       -6.0253022113      -38.5119661236  TIP3      4838            0.0000000000
     36835      5031  TIP3      OH2             3.0360914629       -2.1741237275      -29.7769201000  TIP3      4839            0.0000000000
     36836      5031  TIP3      H1              3.3474457704       -3.0928050480      -29.7707099421  TIP3      4839            0.0000000000
     36837      5031  TIP3      H2              3.2929091556       -1.8776270160      -28.8950778079  TIP3      4839            0.0000000000
     36838      5032  TIP3      OH2             7.7845082517       -4.0793692578      -40.0664205537  TIP3      4840            0.0000000000
     36839      5032  TIP3      H1              8.0524408621       -4.6447507608      -39.3293071155  TIP3      4840            0.0000000000
     36840      5032  TIP3      H2              7.8726077247       -3.1712573995      -39.7140475774  TIP3      4840            0.0000000000
     36841      5033  TIP3      OH2             4.2714170881       -6.8573850925      -39.6246963100  TIP3      4841            0.0000000000
     36842      5033  TIP3      H1              3.6201218690       -6.4519738272      -39.0117166664  TIP3      4841            0.0000000000
     36843      5033  TIP3      H2              4.8488412197       -6.1027373803      -39.8338070250  TIP3      4841            0.0000000000
     36844      5034  TIP3      OH2            12.1575983844      -14.1804372824      -29.2545790604  TIP3      4842            0.0000000000
     36845      5034  TIP3      H1             12.8716389154      -14.1271726744      -28.6104144524  TIP3      4842            0.0000000000
     36846      5034  TIP3      H2             11.7741246165      -15.0592579172      -29.0486849036  TIP3      4842            0.0000000000
     36847      5035  TIP3      OH2            12.8892120774      -14.6009539916      -38.1356309919  TIP3      4843            0.0000000000
     36848      5035  TIP3      H1             13.1400794509      -14.1502859228      -38.9684572626  TIP3      4843            0.0000000000
     36849      5035  TIP3      H2             13.4776496034      -14.1687644081      -37.5072753144  TIP3      4843            0.0000000000
     36850      5036  TIP3      OH2            10.5908421394       -2.4351686759      -39.3295384368  TIP3      4844            0.0000000000
     36851      5036  TIP3      H1              9.7700935461       -1.9166142953      -39.2723774016  TIP3      4844            0.0000000000
     36852      5036  TIP3      H2             11.1298906663       -1.9566254019      -39.9868258828  TIP3      4844            0.0000000000
     36853      5037  TIP3      OH2            10.1210798548      -12.8710850818      -37.3447120699  TIP3      4845            0.0000000000
     36854      5037  TIP3      H1             10.8995160022      -12.2803922402      -37.3144627890  TIP3      4845            0.0000000000
     36855      5037  TIP3      H2              9.8555132487      -12.9931720884      -36.4153006090  TIP3      4845            0.0000000000
     36856      5038  TIP3      OH2            10.6731936114      -11.8464306966      -28.1695650812  TIP3      4846            0.0000000000
     36857      5038  TIP3      H1             10.7698876420      -11.2516178391      -27.4019075990  TIP3      4846            0.0000000000
     36858      5038  TIP3      H2             11.3572076021      -12.5213783161      -28.0767049369  TIP3      4846            0.0000000000
     36859      5039  TIP3      OH2            10.9770095705      -15.8067704215      -36.4710249387  TIP3      4847            0.0000000000
     36860      5039  TIP3      H1             10.6537137004      -15.1561238033      -35.8261904958  TIP3      4847            0.0000000000
     36861      5039  TIP3      H2             11.6759849347      -15.2599172446      -36.9097515156  TIP3      4847            0.0000000000
     36862      5040  TIP3      OH2             7.9660278123       -1.4007376218      -39.3035790028  TIP3      4848            0.0000000000
     36863      5040  TIP3      H1              8.1374503389       -0.5813982273      -39.8119831932  TIP3      4848            0.0000000000
     36864      5040  TIP3      H2              7.7108991617       -1.0572798040      -38.4163775412  TIP3      4848            0.0000000000
     36865      5041  TIP3      OH2             6.6355422729      -14.7118468634      -39.6894192866  TIP3      4849            0.0000000000
     36866      5041  TIP3      H1              6.5811514043      -13.7934123470      -39.3623502013  TIP3      4849            0.0000000000
     36867      5041  TIP3      H2              7.5555377950      -14.9335079200      -39.4396424270  TIP3      4849            0.0000000000
     36868      5042  TIP3      OH2            16.8634123507      -13.9626531235      -27.2869522727  TIP3      4850            0.0000000000
     36869      5042  TIP3      H1             15.9354693618      -13.6622924939      -27.4302406085  TIP3      4850            0.0000000000
     36870      5042  TIP3      H2             17.1848856097      -14.0095873227      -28.2003992396  TIP3      4850            0.0000000000
     36871      5043  TIP3      OH2            15.4672554305      -10.2121983532      -33.3062822753  TIP3      4851            0.0000000000
     36872      5043  TIP3      H1             14.5969729034      -10.5960978010      -33.5702099302  TIP3      4851            0.0000000000
     36873      5043  TIP3      H2             15.7854586025      -10.9107496750      -32.6916868918  TIP3      4851            0.0000000000
     36874      5044  TIP3      OH2             4.8774790108       -4.2463174899      -40.6995594278  TIP3      4852            0.0000000000
     36875      5044  TIP3      H1              5.5462707955       -3.6344435200      -40.3757872237  TIP3      4852            0.0000000000
     36876      5044  TIP3      H2              5.3931646366       -4.7264762836      -41.3763400507  TIP3      4852            0.0000000000
     36877      5045  TIP3      OH2             3.2714346460      -11.5761540949      -41.4988806670  TIP3      4853            0.0000000000
     36878      5045  TIP3      H1              3.2427896744      -10.6101973889      -41.3870013005  TIP3      4853            0.0000000000
     36879      5045  TIP3      H2              2.4035287765      -11.7700714676      -41.8716635148  TIP3      4853            0.0000000000
     36880      5046  TIP3      OH2            16.5396798146       -0.9142351057      -31.6229494305  TIP3      4854            0.0000000000
     36881      5046  TIP3      H1             16.4535412739       -0.2369476867      -32.3207230464  TIP3      4854            0.0000000000
     36882      5046  TIP3      H2             17.5045912057       -0.8638134277      -31.4489044184  TIP3      4854            0.0000000000
     36883      5047  TIP3      OH2             4.0308916568      -16.7991119646      -32.8091882460  TIP3      4855            0.0000000000
     36884      5047  TIP3      H1              3.8414342898      -16.7826984572      -33.7739185754  TIP3      4855            0.0000000000
     36885      5047  TIP3      H2              3.6196143932      -17.6542024797      -32.5618513211  TIP3      4855            0.0000000000
     36886      5048  TIP3      OH2             2.9889018970       -2.8754179995      -36.6693671588  TIP3      4856            0.0000000000
     36887      5048  TIP3      H1              2.1305176295       -2.4367232007      -36.7144269923  TIP3      4856            0.0000000000
     36888      5048  TIP3      H2              3.4550091680       -2.4164685409      -37.3819864177  TIP3      4856            0.0000000000
     36889      5049  TIP3      OH2             2.2045991093       -0.2425352656      -25.3959230678  TIP3      4857            0.0000000000
     36890      5049  TIP3      H1              2.8177498223       -0.4442206319      -24.6724227801  TIP3      4857            0.0000000000
     36891      5049  TIP3      H2              1.7801877807       -1.0982611520      -25.5706691807  TIP3      4857            0.0000000000
     36892      5050  TIP3      OH2             6.8156644636       -1.3489371955      -23.7633154343  TIP3      4858            0.0000000000
     36893      5050  TIP3      H1              7.6334823037       -1.7509263252      -23.4458003271  TIP3      4858            0.0000000000
     36894      5050  TIP3      H2              6.8463314590       -1.5722821696      -24.7163909940  TIP3      4858            0.0000000000
     36895      5051  TIP3      OH2            11.3907908483       -1.7598220322      -41.7916775999  TIP3      4859            0.0000000000
     36896      5051  TIP3      H1             10.5573060576       -2.2462835355      -41.9251694611  TIP3      4859            0.0000000000
     36897      5051  TIP3      H2             11.9039001736       -2.1765189557      -42.5027445581  TIP3      4859            0.0000000000
     36898      5052  TIP3      OH2            13.4292022400       -2.9548619569      -25.0860083561  TIP3      4860            0.0000000000
     36899      5052  TIP3      H1             13.0447786791       -3.7836291274      -24.7230567217  TIP3      4860            0.0000000000
     36900      5052  TIP3      H2             14.1348906196       -2.7788871469      -24.4427813649  TIP3      4860            0.0000000000
     36901      5053  TIP3      OH2            15.5874960365       -2.0122992088      -42.1780936723  TIP3      4861            0.0000000000
     36902      5053  TIP3      H1             15.8272334231       -2.8283215916      -41.7057495319  TIP3      4861            0.0000000000
     36903      5053  TIP3      H2             16.3427947274       -1.8201962797      -42.7441274080  TIP3      4861            0.0000000000
     36904      5054  TIP3      OH2             2.1176928527       -6.4996831343      -24.3737075061  TIP3      4862            0.0000000000
     36905      5054  TIP3      H1              2.2628075146       -7.3848262265      -24.7424103129  TIP3      4862            0.0000000000
     36906      5054  TIP3      H2              1.3848756934       -6.1779064659      -24.9276361232  TIP3      4862            0.0000000000
     36907      5055  TIP3      OH2             6.5404832188       -6.0373511737      -42.2266816559  TIP3      4863            0.0000000000
     36908      5055  TIP3      H1              6.5959033788       -6.8722726741      -41.7583894447  TIP3      4863            0.0000000000
     36909      5055  TIP3      H2              7.0895367071       -6.2599488244      -43.0047749717  TIP3      4863            0.0000000000
     36910      5056  TIP3      OH2             8.8497243404       -6.4879598000      -24.9873778581  TIP3      4864            0.0000000000
     36911      5056  TIP3      H1              8.4988189840       -6.1275295351      -25.8268443351  TIP3      4864            0.0000000000
     36912      5056  TIP3      H2              8.8973710141       -7.4532504421      -25.1556486783  TIP3      4864            0.0000000000
     36913      5057  TIP3      OH2            14.5097281867       -6.6064335767      -27.6052038075  TIP3      4865            0.0000000000
     36914      5057  TIP3      H1             15.2958112557       -6.0250292014      -27.6833057863  TIP3      4865            0.0000000000
     36915      5057  TIP3      H2             13.8135642386       -5.9344643724      -27.5573519631  TIP3      4865            0.0000000000
     36916      5058  TIP3      OH2             2.9951201293       -9.2234229103      -25.0329615243  TIP3      4866            0.0000000000
     36917      5058  TIP3      H1              3.4083965082      -10.0934354072      -25.1265507488  TIP3      4866            0.0000000000
     36918      5058  TIP3      H2              2.7745732936       -9.2291889437      -24.0899167137  TIP3      4866            0.0000000000
     36919      5059  TIP3      OH2             7.6682236976       -8.0592233505      -39.9475993947  TIP3      4867            0.0000000000
     36920      5059  TIP3      H1              7.1598729356       -8.6017799374      -39.3223718500  TIP3      4867            0.0000000000
     36921      5059  TIP3      H2              7.9878127686       -8.7447023733      -40.5841211512  TIP3      4867            0.0000000000
     36922      5060  TIP3      OH2             6.9356252762      -10.2769551649      -27.6236060845  TIP3      4868            0.0000000000
     36923      5060  TIP3      H1              6.3173803486       -9.5701559821      -27.3852076706  TIP3      4868            0.0000000000
     36924      5060  TIP3      H2              7.3069943695       -9.9239942464      -28.4522769746  TIP3      4868            0.0000000000
     36925      5061  TIP3      OH2             8.7446870565       -9.8428550137      -41.7524160720  TIP3      4869            0.0000000000
     36926      5061  TIP3      H1              8.6471403712      -10.0413701495      -42.6933634303  TIP3      4869            0.0000000000
     36927      5061  TIP3      H2              9.7217990930       -9.7810186325      -41.6315940362  TIP3      4869            0.0000000000
     36928      5062  TIP3      OH2            11.9805505425       -7.7531238279      -24.2813878052  TIP3      4870            0.0000000000
     36929      5062  TIP3      H1             12.9368088385       -7.7022802202      -24.4340353927  TIP3      4870            0.0000000000
     36930      5062  TIP3      H2             11.8758921762       -8.4992865128      -23.6977192833  TIP3      4870            0.0000000000
     36931      5063  TIP3      OH2            17.8495992135       -7.3766839833       42.8059786904  TIP3      4871            0.0000000000
     36932      5063  TIP3      H1             17.9976761345       -8.0424864342       42.1038008525  TIP3      4871            0.0000000000
     36933      5063  TIP3      H2             18.2525748146       -6.5177085828       42.5873900917  TIP3      4871            0.0000000000
     36934      5064  TIP3      OH2             7.3370755733      -12.8923796770      -26.6186860797  TIP3      4872            0.0000000000
     36935      5064  TIP3      H1              7.4322221733      -13.6124892213      -27.2701502630  TIP3      4872            0.0000000000
     36936      5064  TIP3      H2              7.2781827609      -12.0865350040      -27.1655469856  TIP3      4872            0.0000000000
     36937      5065  TIP3      OH2             7.7418999200      -14.5206511034      -29.0267765654  TIP3      4873            0.0000000000
     36938      5065  TIP3      H1              8.2453230005      -14.0619225389      -29.7370853970  TIP3      4873            0.0000000000
     36939      5065  TIP3      H2              6.8429472663      -14.6052155679      -29.4202761103  TIP3      4873            0.0000000000
     36940      5066  TIP3      OH2             9.2814020471       -9.0486531011      -28.7951000095  TIP3      4874            0.0000000000
     36941      5066  TIP3      H1             10.0293305047       -9.1885628215      -29.3820786585  TIP3      4874            0.0000000000
     36942      5066  TIP3      H2              8.8963981521       -8.2107620958      -29.1042342016  TIP3      4874            0.0000000000
     36943      5067  TIP3      OH2            13.6701940673      -11.2827192775      -23.9173063389  TIP3      4875            0.0000000000
     36944      5067  TIP3      H1             13.9332674857      -12.2029983502      -23.8313799898  TIP3      4875            0.0000000000
     36945      5067  TIP3      H2             14.5305145410      -10.8396148510      -23.8108917781  TIP3      4875            0.0000000000
     36946      5068  TIP3      OH2            15.0032230470       -8.4929227447      -25.7210066739  TIP3      4876            0.0000000000
     36947      5068  TIP3      H1             14.7650154577       -7.7543002580      -26.3188770145  TIP3      4876            0.0000000000
     36948      5068  TIP3      H2             15.9657043893       -8.5342072206      -25.8774424871  TIP3      4876            0.0000000000
     36949      5069  TIP3      OH2             5.7920138002      -11.6383203173      -24.6563943299  TIP3      4877            0.0000000000
     36950      5069  TIP3      H1              5.0297239145      -12.2208756270      -24.8310677430  TIP3      4877            0.0000000000
     36951      5069  TIP3      H2              6.4281403077      -12.0223781632      -25.2908016125  TIP3      4877            0.0000000000
     36952      5070  TIP3      OH2             8.5249012574      -17.0780956827      -28.6424234014  TIP3      4878            0.0000000000
     36953      5070  TIP3      H1              8.3355532844      -16.1203224119      -28.7583977256  TIP3      4878            0.0000000000
     36954      5070  TIP3      H2              7.7753871716      -17.4547569698      -29.1348555597  TIP3      4878            0.0000000000
     36955      5071  TIP3      OH2            12.5106104088      -13.5982075562      -25.9187828234  TIP3      4879            0.0000000000
     36956      5071  TIP3      H1             11.5530418051      -13.6316687305      -25.8379098890  TIP3      4879            0.0000000000
     36957      5071  TIP3      H2             12.8268865105      -14.2679238935      -25.2822926609  TIP3      4879            0.0000000000
     36958      5072  TIP3      OH2            14.0997047645      -14.9727678250      -23.9485444882  TIP3      4880            0.0000000000
     36959      5072  TIP3      H1             13.9963701379      -15.9489036250      -24.0236117251  TIP3      4880            0.0000000000
     36960      5072  TIP3      H2             13.7742470158      -14.7661368304      -23.0631036415  TIP3      4880            0.0000000000
     36961      5073  TIP3      OH2             3.8774192535      -13.7372966193      -24.9270460646  TIP3      4881            0.0000000000
     36962      5073  TIP3      H1              4.1171613456      -14.4723997959      -25.5165655792  TIP3      4881            0.0000000000
     36963      5073  TIP3      H2              3.8108419594      -14.1664217107      -24.0529798251  TIP3      4881            0.0000000000
     36964      5074  TIP3      OH2             8.7110229175      -17.7190532619      -25.9228872260  TIP3      4882            0.0000000000
     36965      5074  TIP3      H1              9.4132416731      -18.3984361660      -25.9735069885  TIP3      4882            0.0000000000
     36966      5074  TIP3      H2              8.6034208608      -17.5420067058      -26.8824902022  TIP3      4882            0.0000000000
     36967      5075  TIP3      OH2             8.5614999885        0.8318325560      -40.7312376020  TIP3      4883            0.0000000000
     36968      5075  TIP3      H1              9.5309663898        0.9255332133      -40.5961506692  TIP3      4883            0.0000000000
     36969      5075  TIP3      H2              8.3974142390        1.5025978003      -41.3917858997  TIP3      4883            0.0000000000
     36970      5076  TIP3      OH2             2.1368720406       -4.5918376672      -41.1847960627  TIP3      4884            0.0000000000
     36971      5076  TIP3      H1              3.0975797773       -4.4865989524      -40.9827706663  TIP3      4884            0.0000000000
     36972      5076  TIP3      H2              2.1782038035       -5.1527897185      -41.9642064859  TIP3      4884            0.0000000000
     36973      5077  TIP3      OH2             0.8969003113        0.7902389503      -36.2318076905  TIP3      4885            0.0000000000
     36974      5077  TIP3      H1              0.1784759812        0.3032600031      -36.6924543992  TIP3      4885            0.0000000000
     36975      5077  TIP3      H2              1.1773795496        0.1371196551      -35.5658249553  TIP3      4885            0.0000000000
     36976      5078  TIP3      OH2             1.7215568724       -1.0700771744      -34.3510272192  TIP3      4886            0.0000000000
     36977      5078  TIP3      H1              1.3665919605       -1.9481404385      -34.1508671039  TIP3      4886            0.0000000000
     36978      5078  TIP3      H2              1.9483066922       -0.7400710994      -33.4672318548  TIP3      4886            0.0000000000
     36979      5079  TIP3      OH2            19.2606463724       -0.2754075260      -31.4281883542  TIP3      4887            0.0000000000
     36980      5079  TIP3      H1             19.2914287814       -0.1173818970      -30.4685139585  TIP3      4887            0.0000000000
     36981      5079  TIP3      H2             19.9638771169        0.3084453670      -31.7300979153  TIP3      4887            0.0000000000
     36982      5080  TIP3      OH2            18.8317843791       -0.6872382409      -28.4973901866  TIP3      4888            0.0000000000
     36983      5080  TIP3      H1             18.3593943488       -1.4603444841      -28.8676358955  TIP3      4888            0.0000000000
     36984      5080  TIP3      H2             19.3276166059       -1.1201142428      -27.7851620202  TIP3      4888            0.0000000000
     36985      5081  TIP3      OH2            18.6080155061       -6.6365327934      -38.3741739135  TIP3      4889            0.0000000000
     36986      5081  TIP3      H1             19.4578288046       -6.2195642990      -38.1633510546  TIP3      4889            0.0000000000
     36987      5081  TIP3      H2             18.5815408334       -7.3429475818      -37.7007750144  TIP3      4889            0.0000000000
     36988      5082  TIP3      OH2            18.9465745251       -8.5420038021      -36.4954164840  TIP3      4890            0.0000000000
     36989      5082  TIP3      H1             18.1926002485       -9.0531364982      -36.1428053548  TIP3      4890            0.0000000000
     36990      5082  TIP3      H2             19.5665056876       -8.4115411701      -35.7498385946  TIP3      4890            0.0000000000
     36991      5083  TIP3      OH2            18.7015463617       -5.8684536882      -31.5232303314  TIP3      4891            0.0000000000
     36992      5083  TIP3      H1             19.5314491499       -6.2222708776      -31.8863331281  TIP3      4891            0.0000000000
     36993      5083  TIP3      H2             18.8495559198       -4.9055454487      -31.6666165006  TIP3      4891            0.0000000000
     36994      5084  TIP3      OH2            17.2701651301       -2.9557340753      -29.2293538793  TIP3      4892            0.0000000000
     36995      5084  TIP3      H1             16.5742135679       -2.6061367541      -28.6497985451  TIP3      4892            0.0000000000
     36996      5084  TIP3      H2             16.7252752488       -3.3475781398      -29.9452966967  TIP3      4892            0.0000000000
     36997      5085  TIP3      OH2            19.2573943883       -8.7252140960      -40.1400328096  TIP3      4893            0.0000000000
     36998      5085  TIP3      H1             18.6469311408       -8.3585974946      -40.7911125142  TIP3      4893            0.0000000000
     36999      5085  TIP3      H2             19.1838785996       -8.0502221450      -39.4311128474  TIP3      4893            0.0000000000
     37000      5086  TIP3      OH2            17.2219062989      -11.4446620148      -41.5105535087  TIP3      4894            0.0000000000
     37001      5086  TIP3      H1             17.7212036916      -10.8981306112      -42.1336536285  TIP3      4894            0.0000000000
     37002      5086  TIP3      H2             17.4103211531      -12.3137917992      -41.9220485573  TIP3      4894            0.0000000000
     37003      5087  TIP3      OH2            16.8734078712      -10.1234307625      -35.8105536663  TIP3      4895            0.0000000000
     37004      5087  TIP3      H1             16.5812825024      -11.0310774463      -36.0475253735  TIP3      4895            0.0000000000
     37005      5087  TIP3      H2             16.2284634924       -9.8508716202      -35.1465082806  TIP3      4895            0.0000000000
     37006      5088  TIP3      OH2             1.7804272950       -7.9940633476      -31.8598568866  TIP3      4896            0.0000000000
     37007      5088  TIP3      H1              1.9560320611       -8.0766957283      -32.8234342550  TIP3      4896            0.0000000000
     37008      5088  TIP3      H2              2.6739400366       -8.1744373664      -31.5078647800  TIP3      4896            0.0000000000
     37009      5089  TIP3      OH2            17.6341994325       -8.1041141498      -26.2289571920  TIP3      4897            0.0000000000
     37010      5089  TIP3      H1             18.2297114407       -8.8719130483      -26.0813903631  TIP3      4897            0.0000000000
     37011      5089  TIP3      H2             18.2472612072       -7.3498783199      -26.2440814447  TIP3      4897            0.0000000000
     37012      5090  TIP3      OH2            19.1285046170      -10.2058186829      -25.6112467315  TIP3      4898            0.0000000000
     37013      5090  TIP3      H1             18.2515406643      -10.6241082173      -25.7580760112  TIP3      4898            0.0000000000
     37014      5090  TIP3      H2             19.6902307576      -11.0098882486      -25.6398494106  TIP3      4898            0.0000000000
     37015      5091  TIP3      OH2            16.8780760030      -14.0872842400      -42.4848954372  TIP3      4899            0.0000000000
     37016      5091  TIP3      H1             17.4512700766      -14.5073299927      -41.8113193689  TIP3      4899            0.0000000000
     37017      5091  TIP3      H2             15.9847452285      -14.4106611045      -42.2754514402  TIP3      4899            0.0000000000
     37018      5092  TIP3      OH2            16.4681209228      -12.4748745601      -37.3857637657  TIP3      4900            0.0000000000
     37019      5092  TIP3      H1             16.7252209058      -13.4302583661      -37.3456814702  TIP3      4900            0.0000000000
     37020      5092  TIP3      H2             17.2191845061      -12.1181377711      -37.8821772278  TIP3      4900            0.0000000000
     37021      5093  TIP3      OH2            17.1045217657      -11.8441070142      -32.0472047502  TIP3      4901            0.0000000000
     37022      5093  TIP3      H1             18.0873955193      -11.8018933316      -31.9567886070  TIP3      4901            0.0000000000
     37023      5093  TIP3      H2             16.8797099916      -11.8445960696      -31.0929596508  TIP3      4901            0.0000000000
     37024      5094  TIP3      OH2            17.1256217784      -11.2118664027      -29.2995532021  TIP3      4902            0.0000000000
     37025      5094  TIP3      H1             16.2719128458      -10.9405579686      -28.8953572894  TIP3      4902            0.0000000000
     37026      5094  TIP3      H2             17.5875987330      -10.3487312241      -29.4245452069  TIP3      4902            0.0000000000
     37027      5095  TIP3      OH2             1.3980423680      -12.7067534041      -25.7245691868  TIP3      4903            0.0000000000
     37028      5095  TIP3      H1              2.3312383558      -12.9000361793      -25.5107409826  TIP3      4903            0.0000000000
     37029      5095  TIP3      H2              0.9382569347      -13.5213539612      -25.4217960273  TIP3      4903            0.0000000000
     37030      5096  TIP3      OH2            17.1103062212      -15.2207675763      -37.4231134719  TIP3      4904            0.0000000000
     37031      5096  TIP3      H1             17.3279165836      -15.6458310085      -36.5631684373  TIP3      4904            0.0000000000
     37032      5096  TIP3      H2             16.5070389800      -15.8587052738      -37.8581602967  TIP3      4904            0.0000000000
     37033      5097  TIP3      OH2             2.5983902057      -14.4026469707      -32.8561455109  TIP3      4905            0.0000000000
     37034      5097  TIP3      H1              3.0563863755      -15.2315053598      -32.6033188287  TIP3      4905            0.0000000000
     37035      5097  TIP3      H2              3.1538935752      -13.7135334060      -32.4688352700  TIP3      4905            0.0000000000
     37036      5098  TIP3      OH2             0.8789613208      -11.3991046407      -31.8229348938  TIP3      4906            0.0000000000
     37037      5098  TIP3      H1              1.4434472569      -11.6539079090      -32.5810374866  TIP3      4906            0.0000000000
     37038      5098  TIP3      H2              1.3506696282      -10.5981597612      -31.5528592576  TIP3      4906            0.0000000000
     37039      5099  TIP3      OH2            18.2602901590      -15.1157376062      -25.1545012802  TIP3      4907            0.0000000000
     37040      5099  TIP3      H1             17.6646388189      -14.6413508982      -25.7431967859  TIP3      4907            0.0000000000
     37041      5099  TIP3      H2             18.8298579557      -15.4827542392      -25.8801130311  TIP3      4907            0.0000000000
     37042      5100  TIP3      OH2            18.9230088952      -15.1489027621      -40.8563160427  TIP3      4908            0.0000000000
     37043      5100  TIP3      H1             19.3536004976      -15.8634159290      -41.3543310513  TIP3      4908            0.0000000000
     37044      5100  TIP3      H2             19.6503276564      -14.5039679783      -40.8356767887  TIP3      4908            0.0000000000
     37045      5101  TIP3      OH2             1.2415004129      -15.1456291124      -37.7621255161  TIP3      4909            0.0000000000
     37046      5101  TIP3      H1              0.2982210444      -14.9560550235      -37.8762908660  TIP3      4909            0.0000000000
     37047      5101  TIP3      H2              1.6529806104      -14.6456348276      -38.4852722482  TIP3      4909            0.0000000000
     37048      5102  TIP3      OH2            15.9780866996       -0.1957468046      -35.7899283262  TIP3      4910            0.0000000000
     37049      5102  TIP3      H1             16.6626420871       -0.4921802489      -36.4160095413  TIP3      4910            0.0000000000
     37050      5102  TIP3      H2             16.4940709122        0.3060227844      -35.1421654322  TIP3      4910            0.0000000000
     37051      5103  TIP3      OH2             1.1935830203      -16.4929101839      -29.4583528819  TIP3      4911            0.0000000000
     37052      5103  TIP3      H1              0.5255070503      -16.6838468936      -28.7735989501  TIP3      4911            0.0000000000
     37053      5103  TIP3      H2              0.7349919549      -15.8172680843      -29.9946912932  TIP3      4911            0.0000000000
     37054      5104  TIP3      OH2             3.4556218933       -3.2495947169      -25.2687705903  TIP3      4912            0.0000000000
     37055      5104  TIP3      H1              2.6179296943       -3.0706103055      -25.7305128525  TIP3      4912            0.0000000000
     37056      5104  TIP3      H2              3.1456510706       -3.3802963611      -24.3715643114  TIP3      4912            0.0000000000
     37057      5105  TIP3      OH2             6.3192873154       -2.2839595318      -29.0291349542  TIP3      4913            0.0000000000
     37058      5105  TIP3      H1              6.0047944919       -1.4065318016      -29.2845999932  TIP3      4913            0.0000000000
     37059      5105  TIP3      H2              7.2562732224       -2.2013403967      -29.3064478065  TIP3      4913            0.0000000000
     37060      5106  TIP3      OH2            10.6684015889       -0.8762547268      -26.0750407313  TIP3      4914            0.0000000000
     37061      5106  TIP3      H1             10.8508415643       -1.2015765728      -25.1758482867  TIP3      4914            0.0000000000
     37062      5106  TIP3      H2             11.5521192985       -0.5543055784      -26.3517699431  TIP3      4914            0.0000000000
     37063      5107  TIP3      OH2            12.9486795155        0.4137070132      -26.8041633002  TIP3      4915            0.0000000000
     37064      5107  TIP3      H1             13.6717401670       -0.1885891786      -27.0302467163  TIP3      4915            0.0000000000
     37065      5107  TIP3      H2             13.3153927488        0.8270017759      -25.9892291491  TIP3      4915            0.0000000000
     37066      5108  TIP3      OH2            17.7522359079      -17.0924088633      -27.6513628335  TIP3      4916            0.0000000000
     37067      5108  TIP3      H1             17.0766074717      -16.6791601315      -28.1914323194  TIP3      4916            0.0000000000
     37068      5108  TIP3      H2             18.1499291736      -17.7774106465      -28.2278064149  TIP3      4916            0.0000000000
     37069      5109  TIP3      OH2             3.7583550675        0.9542628323      -29.0359392514  TIP3      4917            0.0000000000
     37070      5109  TIP3      H1              3.0186228826        1.4545446381      -29.4098346434  TIP3      4917            0.0000000000
     37071      5109  TIP3      H2              3.4581501883        0.7654213852      -28.1319068717  TIP3      4917            0.0000000000
     37072      5110  TIP3      OH2             6.2255464761        0.5286225246      -29.9449007244  TIP3      4918            0.0000000000
     37073      5110  TIP3      H1              5.3328962850        0.6865456471      -29.5558895556  TIP3      4918            0.0000000000
     37074      5110  TIP3      H2              6.1724526341        1.1180321085      -30.7189598738  TIP3      4918            0.0000000000
     37075      5111  TIP3      OH2            10.9328053634        0.4434744294      -30.7744821181  TIP3      4919            0.0000000000
     37076      5111  TIP3      H1             10.4706830113        0.9987972988      -31.4215492808  TIP3      4919            0.0000000000
     37077      5111  TIP3      H2             11.0636675968        1.0752556644      -30.0366809528  TIP3      4919            0.0000000000
     37078      5112  TIP3      OH2            13.2152620478       -0.7550363413      -29.7403120107  TIP3      4920            0.0000000000
     37079      5112  TIP3      H1             12.3666959349       -0.4708935699      -30.1172010391  TIP3      4920            0.0000000000
     37080      5112  TIP3      H2             13.7077419586        0.0778594023      -29.8328194059  TIP3      4920            0.0000000000
     37081      5113  TIP3      OH2            15.7977353440        0.8152243262      -29.5270892554  TIP3      4921            0.0000000000
     37082      5113  TIP3      H1             15.7532212107        1.7751860972      -29.7543138404  TIP3      4921            0.0000000000
     37083      5113  TIP3      H2             16.0211331230        0.4408906898      -30.4018756850  TIP3      4921            0.0000000000
     37084      5114  TIP3      OH2             3.2235744755       -0.4013554899      -32.0767358035  TIP3      4922            0.0000000000
     37085      5114  TIP3      H1              3.1437777808       -0.8685812600      -31.2184870621  TIP3      4922            0.0000000000
     37086      5114  TIP3      H2              4.0370091849       -0.7806328865      -32.4659252590  TIP3      4922            0.0000000000
     37087      5115  TIP3      OH2             5.2947857745       -1.6886640021      -33.4230733689  TIP3      4923            0.0000000000
     37088      5115  TIP3      H1              5.1309005696       -2.6216198237      -33.1859288573  TIP3      4923            0.0000000000
     37089      5115  TIP3      H2              6.1521905202       -1.5326900735      -32.9748169940  TIP3      4923            0.0000000000
     37090      5116  TIP3      OH2             7.9041883653       -1.2001505147      -32.5418226016  TIP3      4924            0.0000000000
     37091      5116  TIP3      H1              8.0520730577       -2.1267857418      -32.8054093685  TIP3      4924            0.0000000000
     37092      5116  TIP3      H2              7.9418164778       -1.2580125097      -31.5763658691  TIP3      4924            0.0000000000
     37093      5117  TIP3      OH2            11.3474515995      -15.5510411070      -33.4103810645  TIP3      4925            0.0000000000
     37094      5117  TIP3      H1             10.6737998208      -16.1908500116      -33.1238281127  TIP3      4925            0.0000000000
     37095      5117  TIP3      H2             11.9016689455      -16.0888776147      -33.9881148358  TIP3      4925            0.0000000000
     37096      5118  TIP3      OH2            16.4929242224      -17.5151609742      -33.3445896481  TIP3      4926            0.0000000000
     37097      5118  TIP3      H1             17.0991077802      -16.9159439707      -33.8499752464  TIP3      4926            0.0000000000
     37098      5118  TIP3      H2             15.6094696714      -17.1523156693      -33.5634112003  TIP3      4926            0.0000000000
     37099      5119  TIP3      OH2            18.1518656104      -16.2562539201      -35.0713206397  TIP3      4927            0.0000000000
     37100      5119  TIP3      H1             18.8433087055      -16.8406829613      -35.4673630880  TIP3      4927            0.0000000000
     37101      5119  TIP3      H2             18.6670008699      -15.4286361687      -34.9642258677  TIP3      4927            0.0000000000
     37102      5120  TIP3      OH2             3.7205041494      -16.9330661585      -35.5433282329  TIP3      4928            0.0000000000
     37103      5120  TIP3      H1              2.9288561837      -17.1179538490      -36.0856867332  TIP3      4928            0.0000000000
     37104      5120  TIP3      H2              4.1777239432      -17.7925680932      -35.6159245806  TIP3      4928            0.0000000000
     37105      5121  TIP3      OH2             2.4544143583      -17.1756189128      -39.8485494510  TIP3      4929            0.0000000000
     37106      5121  TIP3      H1              2.9734041489      -16.5340121614      -40.3779141480  TIP3      4929            0.0000000000
     37107      5121  TIP3      H2              1.9274589588      -16.5928735518      -39.2783195064  TIP3      4929            0.0000000000
     37108      5122  TIP3      OH2             8.1843029337      -17.0011512166      -35.7683710037  TIP3      4930            0.0000000000
     37109      5122  TIP3      H1              9.0888910314      -16.6554494412      -35.8571632101  TIP3      4930            0.0000000000
     37110      5122  TIP3      H2              8.1584577372      -17.2186283860      -34.8387369064  TIP3      4930            0.0000000000
     37111      5123  TIP3      OH2            13.9113627247      -16.9863777497      -34.1461311055  TIP3      4931            0.0000000000
     37112      5123  TIP3      H1             13.8586794982      -16.8670366418      -35.0997940012  TIP3      4931            0.0000000000
     37113      5123  TIP3      H2             13.5284376532      -17.8897409389      -34.0275830148  TIP3      4931            0.0000000000
     37114      5124  TIP3      OH2            15.1717448469      -16.9629772734      -38.4962701395  TIP3      4932            0.0000000000
     37115      5124  TIP3      H1             14.4270547823      -16.3619537807      -38.6440602297  TIP3      4932            0.0000000000
     37116      5124  TIP3      H2             14.7315064158      -17.8137713732      -38.2583299386  TIP3      4932            0.0000000000
     37117      5125  TIP3      OH2             2.4072792178       -1.2119593924      -38.8204535948  TIP3      4933            0.0000000000
     37118      5125  TIP3      H1              1.7299984853       -1.2174128662      -39.5239103886  TIP3      4933            0.0000000000
     37119      5125  TIP3      H2              2.4386626363       -0.2592415702      -38.6690644760  TIP3      4933            0.0000000000
     37120      5126  TIP3      OH2             4.3071161049      -15.3240784479      -41.2942568075  TIP3      4934            0.0000000000
     37121      5126  TIP3      H1              4.8598383087      -15.8631014270      -41.8568134508  TIP3      4934            0.0000000000
     37122      5126  TIP3      H2              4.9693978724      -14.8902679852      -40.7246414028  TIP3      4934            0.0000000000
     37123      5127  TIP3      OH2             9.3437003721      -14.9864692823      -38.9199783840  TIP3      4935            0.0000000000
     37124      5127  TIP3      H1              9.6095484548      -15.5605523503      -38.1836504509  TIP3      4935            0.0000000000
     37125      5127  TIP3      H2              9.4176722396      -14.1193784783      -38.4573645835  TIP3      4935            0.0000000000
     37126      5128  TIP3      OH2            11.2423597662        0.3803742307      -40.4827366828  TIP3      4936            0.0000000000
     37127      5128  TIP3      H1             12.2100560472        0.3550344843      -40.6059471854  TIP3      4936            0.0000000000
     37128      5128  TIP3      H2             11.0798976928       -0.3677005611      -41.1087214932  TIP3      4936            0.0000000000
     37129      5129  TIP3      OH2            17.9720501774       -0.4167221889      -37.7579830641  TIP3      4937            0.0000000000
     37130      5129  TIP3      H1             17.7740072634       -1.1942620970      -38.3350928116  TIP3      4937            0.0000000000
     37131      5129  TIP3      H2             17.8850718590        0.3199026101      -38.3944696053  TIP3      4937            0.0000000000
     37132      5130  TIP3      OH2             3.6066811707      -16.4085191682      -26.0883384330  TIP3      4938            0.0000000000
     37133      5130  TIP3      H1              3.2143966864      -17.1911475136      -25.6679852587  TIP3      4938            0.0000000000
     37134      5130  TIP3      H2              4.5092267787      -16.4225938565      -25.7023761428  TIP3      4938            0.0000000000
     37135      5131  TIP3      OH2             5.6110079361      -17.0088960114      -24.4300932679  TIP3      4939            0.0000000000
     37136      5131  TIP3      H1              6.4720105752      -17.3254973419      -24.7554021068  TIP3      4939            0.0000000000
     37137      5131  TIP3      H2              5.2286417902      -17.8107577126      -24.0560612727  TIP3      4939            0.0000000000
     37138      5132  TIP3      OH2             4.2347280163       -0.2339750214      -41.8609531450  TIP3      4940            0.0000000000
     37139      5132  TIP3      H1              3.9268071598        0.0292826255      -40.9859655261  TIP3      4940            0.0000000000
     37140      5132  TIP3      H2              4.9904185918       -0.7954964171      -41.6926734774  TIP3      4940            0.0000000000
     37141      5133  TIP3      OH2            14.0472202346      -17.6410661181      -24.2605887097  TIP3      4941            0.0000000000
     37142      5133  TIP3      H1             14.0567679187      -18.2583782833      -23.5149367037  TIP3      4941            0.0000000000
     37143      5133  TIP3      H2             14.9124183065      -17.7724141071      -24.7047264806  TIP3      4941            0.0000000000
     37144      5134  TIP3      OH2            17.2208366341       -1.6743779980      -25.6301199145  TIP3      4942            0.0000000000
     37145      5134  TIP3      H1             16.4302007353       -1.8150744517      -26.2012914080  TIP3      4942            0.0000000000
     37146      5134  TIP3      H2             17.0962357583       -0.7138465633      -25.4643813188  TIP3      4942            0.0000000000
     37147      5135  TIP3      OH2            31.6404022931       -7.7962641625      -35.6958951888  TIP3      4943            0.0000000000
     37148      5135  TIP3      H1             31.6662621218       -6.8130426272      -35.7435789304  TIP3      4943            0.0000000000
     37149      5135  TIP3      H2             30.9442450521       -8.0086682941      -36.3291578808  TIP3      4943            0.0000000000
     37150      5136  TIP3      OH2            30.4988869462       -8.5311948805      -32.2177489915  TIP3      4944            0.0000000000
     37151      5136  TIP3      H1             30.5018893682       -9.1715339193      -31.4873127309  TIP3      4944            0.0000000000
     37152      5136  TIP3      H2             30.1976112388       -9.0607792553      -32.9632800444  TIP3      4944            0.0000000000
     37153      5137  TIP3      OH2            22.8778912416       -8.8531904041      -30.6576184410  TIP3      4945            0.0000000000
     37154      5137  TIP3      H1             22.9492303552       -9.5407383946      -29.9606018940  TIP3      4945            0.0000000000
     37155      5137  TIP3      H2             23.6239761455       -8.2834202291      -30.4252307651  TIP3      4945            0.0000000000
     37156      5138  TIP3      OH2            34.2162450437       -5.6097884789      -33.8973946092  TIP3      4946            0.0000000000
     37157      5138  TIP3      H1             33.7935622621       -6.3158942332      -33.4021699347  TIP3      4946            0.0000000000
     37158      5138  TIP3      H2             34.2842023882       -4.9138570478      -33.2241684471  TIP3      4946            0.0000000000
     37159      5139  TIP3      OH2            23.7966668929       -4.4033985322      -32.1576567504  TIP3      4947            0.0000000000
     37160      5139  TIP3      H1             23.4892150768       -5.2768311727      -32.4646654196  TIP3      4947            0.0000000000
     37161      5139  TIP3      H2             24.7521790822       -4.5858736317      -32.1049070525  TIP3      4947            0.0000000000
     37162      5140  TIP3      OH2            20.4042870304      -10.8665515546      -36.6244754938  TIP3      4948            0.0000000000
     37163      5140  TIP3      H1             20.0286298390       -9.9770978920      -36.7504373009  TIP3      4948            0.0000000000
     37164      5140  TIP3      H2             19.8845607305      -11.3902967368      -37.2549969144  TIP3      4948            0.0000000000
     37165      5141  TIP3      OH2            21.1318309477       -8.6370534241      -34.5131746008  TIP3      4949            0.0000000000
     37166      5141  TIP3      H1             21.4487254333       -9.4429051977      -34.0536484491  TIP3      4949            0.0000000000
     37167      5141  TIP3      H2             21.8236214395       -8.4972219003      -35.1745079287  TIP3      4949            0.0000000000
     37168      5142  TIP3      OH2            31.3485708294       -0.4158871465      -33.6866096758  TIP3      4950            0.0000000000
     37169      5142  TIP3      H1             31.9761626805       -1.1225658779      -33.9824528543  TIP3      4950            0.0000000000
     37170      5142  TIP3      H2             31.1110296890       -0.7671706180      -32.8249985792  TIP3      4950            0.0000000000
     37171      5143  TIP3      OH2            28.8960562304       -6.1358369695      -31.7161492283  TIP3      4951            0.0000000000
     37172      5143  TIP3      H1             29.2463478797       -6.7531716218      -32.3739928925  TIP3      4951            0.0000000000
     37173      5143  TIP3      H2             29.7075206777       -5.9694577188      -31.2071431478  TIP3      4951            0.0000000000
     37174      5144  TIP3      OH2            32.0405052144      -11.6632531533      -31.4214642801  TIP3      4952            0.0000000000
     37175      5144  TIP3      H1             32.2328230612      -12.6177712986      -31.4088199395  TIP3      4952            0.0000000000
     37176      5144  TIP3      H2             31.9569734521      -11.5313115614      -32.3848575451  TIP3      4952            0.0000000000
     37177      5145  TIP3      OH2            25.1772394644      -13.5675495852      -34.2067103620  TIP3      4953            0.0000000000
     37178      5145  TIP3      H1             25.2662675856      -12.7480710423      -34.7071149206  TIP3      4953            0.0000000000
     37179      5145  TIP3      H2             24.7745141326      -14.1644639568      -34.8782663912  TIP3      4953            0.0000000000
     37180      5146  TIP3      OH2            32.9205897173      -13.4703872357      -35.8194908817  TIP3      4954            0.0000000000
     37181      5146  TIP3      H1             33.5706979844      -13.8137120887      -35.1600161482  TIP3      4954            0.0000000000
     37182      5146  TIP3      H2             33.4812269648      -12.9228514058      -36.3815859527  TIP3      4954            0.0000000000
     37183      5147  TIP3      OH2            21.8072368428      -11.1584156790      -33.4783550998  TIP3      4955            0.0000000000
     37184      5147  TIP3      H1             22.4608340223      -11.7085627304      -33.0016348431  TIP3      4955            0.0000000000
     37185      5147  TIP3      H2             21.9129906965      -11.4995770787      -34.3801468335  TIP3      4955            0.0000000000
     37186      5148  TIP3      OH2            26.9714504511       -9.6475927619      -34.1716946277  TIP3      4956            0.0000000000
     37187      5148  TIP3      H1             27.6473703584      -10.1754880332      -33.6845865951  TIP3      4956            0.0000000000
     37188      5148  TIP3      H2             26.4085499849      -10.3796937504      -34.4697767068  TIP3      4956            0.0000000000
     37189      5149  TIP3      OH2            24.1116689088      -14.6645352233      -30.1738336004  TIP3      4957            0.0000000000
     37190      5149  TIP3      H1             23.7840921323      -14.1019872642      -30.9039061457  TIP3      4957            0.0000000000
     37191      5149  TIP3      H2             23.4281885231      -14.4628805536      -29.4794792530  TIP3      4957            0.0000000000
     37192      5150  TIP3      OH2            31.3433122199       -5.2118850233      -36.6138715956  TIP3      4958            0.0000000000
     37193      5150  TIP3      H1             31.1047887495       -5.4616252184      -37.5232303929  TIP3      4958            0.0000000000
     37194      5150  TIP3      H2             31.0597336593       -4.2702210781      -36.5761449836  TIP3      4958            0.0000000000
     37195      5151  TIP3      OH2            26.5955036805       -7.0381042987      -29.9241306853  TIP3      4959            0.0000000000
     37196      5151  TIP3      H1             25.8940845405       -6.3923104871      -29.6941909235  TIP3      4959            0.0000000000
     37197      5151  TIP3      H2             27.3022493149       -6.4382255013      -30.2154476597  TIP3      4959            0.0000000000
     37198      5152  TIP3      OH2            34.5330270022      -14.1781170544      -33.7828530257  TIP3      4960            0.0000000000
     37199      5152  TIP3      H1             34.4632162913      -14.9673009888      -33.2521173087  TIP3      4960            0.0000000000
     37200      5152  TIP3      H2             35.2568960051      -13.6934073241      -33.3288974320  TIP3      4960            0.0000000000
     37201      5153  TIP3      OH2            23.6457515085      -12.8274253513      -32.1264957445  TIP3      4961            0.0000000000
     37202      5153  TIP3      H1             24.2769642616      -12.1489331443      -31.7964030099  TIP3      4961            0.0000000000
     37203      5153  TIP3      H2             24.1739700290      -13.2393441462      -32.8578459085  TIP3      4961            0.0000000000
     37204      5154  TIP3      OH2            25.0361590934       -5.0402062082      -29.1166068871  TIP3      4962            0.0000000000
     37205      5154  TIP3      H1             24.9912404872       -4.1198779621      -29.4384504925  TIP3      4962            0.0000000000
     37206      5154  TIP3      H2             24.1653971873       -5.1096903928      -28.6503032513  TIP3      4962            0.0000000000
     37207      5155  TIP3      OH2            21.1044237393       -5.4212073729      -38.3220591290  TIP3      4963            0.0000000000
     37208      5155  TIP3      H1             20.9023952312       -5.0696225987      -39.2122756304  TIP3      4963            0.0000000000
     37209      5155  TIP3      H2             21.1897056429       -4.5980352195      -37.7945673614  TIP3      4963            0.0000000000
     37210      5156  TIP3      OH2            34.6477754234       -3.7941882125      -31.4758134899  TIP3      4964            0.0000000000
     37211      5156  TIP3      H1             33.6798756463       -3.6495447429      -31.4156559030  TIP3      4964            0.0000000000
     37212      5156  TIP3      H2             34.9747365100       -2.9132542627      -31.7410403558  TIP3      4964            0.0000000000
     37213      5157  TIP3      OH2            34.9775302402      -15.3533274081      -30.2979089411  TIP3      4965            0.0000000000
     37214      5157  TIP3      H1             34.2251282385      -14.7349144929      -30.2734881217  TIP3      4965            0.0000000000
     37215      5157  TIP3      H2             35.6662528150      -14.8646225491      -30.7573658981  TIP3      4965            0.0000000000
     37216      5158  TIP3      OH2            28.0201209283      -17.3389535720      -32.6997791166  TIP3      4966            0.0000000000
     37217      5158  TIP3      H1             27.8806399512      -18.3041293466      -32.7697632751  TIP3      4966            0.0000000000
     37218      5158  TIP3      H2             27.1406348082      -17.0361420625      -32.3881098661  TIP3      4966            0.0000000000
     37219      5159  TIP3      OH2            32.9661469069       -2.0087121284      -34.9267287607  TIP3      4967            0.0000000000
     37220      5159  TIP3      H1             33.4136282395       -2.7004458202      -35.4516804052  TIP3      4967            0.0000000000
     37221      5159  TIP3      H2             33.4088069226       -1.2139178930      -35.3055689402  TIP3      4967            0.0000000000
     37222      5160  TIP3      OH2            34.1929007018       -4.0658480080      -36.4798355132  TIP3      4968            0.0000000000
     37223      5160  TIP3      H1             33.9049671932       -4.7686012193      -37.0821912168  TIP3      4968            0.0000000000
     37224      5160  TIP3      H2             34.2412832819       -4.5509043901      -35.6282003292  TIP3      4968            0.0000000000
     37225      5161  TIP3      OH2            35.6099611633       -5.3463822919      -27.8742810178  TIP3      4969            0.0000000000
     37226      5161  TIP3      H1             35.9083032372       -6.0295850518      -28.5030295835  TIP3      4969            0.0000000000
     37227      5161  TIP3      H2             36.0118853952       -4.5567917373      -28.2961732189  TIP3      4969            0.0000000000
     37228      5162  TIP3      OH2            30.2727109476       -8.5584254168      -38.2176718033  TIP3      4970            0.0000000000
     37229      5162  TIP3      H1             29.6396065461       -7.9307809360      -38.6225245739  TIP3      4970            0.0000000000
     37230      5162  TIP3      H2             31.0246799487       -8.4655200589      -38.8385477961  TIP3      4970            0.0000000000
     37231      5163  TIP3      OH2            30.3676597230      -10.0071835555      -41.1078143920  TIP3      4971            0.0000000000
     37232      5163  TIP3      H1             31.0953304796      -10.0071518362      -40.4685560224  TIP3      4971            0.0000000000
     37233      5163  TIP3      H2             30.6908551183      -10.6495158368      -41.7414782111  TIP3      4971            0.0000000000
     37234      5164  TIP3      OH2            33.7524470936       -8.3155214952      -37.2811684664  TIP3      4972            0.0000000000
     37235      5164  TIP3      H1             33.0336661428       -8.0753067847      -36.6578141990  TIP3      4972            0.0000000000
     37236      5164  TIP3      H2             34.2314666521       -8.9797142546      -36.7312683809  TIP3      4972            0.0000000000
     37237      5165  TIP3      OH2            33.6390193998      -10.2026236514      -28.1520712866  TIP3      4973            0.0000000000
     37238      5165  TIP3      H1             33.6838270928       -9.3890550731      -27.6268273645  TIP3      4973            0.0000000000
     37239      5165  TIP3      H2             33.0547610997       -9.8744875339      -28.8619965913  TIP3      4973            0.0000000000
     37240      5166  TIP3      OH2            25.4062003239       -7.6525691224      -35.3638581547  TIP3      4974            0.0000000000
     37241      5166  TIP3      H1             24.9530597443       -8.0326278192      -36.1537678670  TIP3      4974            0.0000000000
     37242      5166  TIP3      H2             25.9204964543       -8.3285655101      -34.8785446967  TIP3      4974            0.0000000000
     37243      5167  TIP3      OH2            26.6954533495       -4.2925518159      -32.6539248704  TIP3      4975            0.0000000000
     37244      5167  TIP3      H1             26.6959118508       -4.7954896206      -33.4760307462  TIP3      4975            0.0000000000
     37245      5167  TIP3      H2             27.4825071872       -4.6554952291      -32.2081936156  TIP3      4975            0.0000000000
     37246      5168  TIP3      OH2            25.7018125808       -8.9258369110      -31.7030307108  TIP3      4976            0.0000000000
     37247      5168  TIP3      H1             26.2825840526       -8.8216520666      -32.4688310523  TIP3      4976            0.0000000000
     37248      5168  TIP3      H2             26.0852241155       -8.2763390738      -31.0660209253  TIP3      4976            0.0000000000
     37249      5169  TIP3      OH2            32.0793571131       -3.3575243997      -30.9911880505  TIP3      4977            0.0000000000
     37250      5169  TIP3      H1             31.8573289576       -2.7223853107      -30.3070058223  TIP3      4977            0.0000000000
     37251      5169  TIP3      H2             31.8738044435       -4.2172024593      -30.5572234712  TIP3      4977            0.0000000000
     37252      5170  TIP3      OH2            26.6587210082       -4.5032239831      -26.9741409928  TIP3      4978            0.0000000000
     37253      5170  TIP3      H1             26.2282433419       -3.7575777509      -26.5175377225  TIP3      4978            0.0000000000
     37254      5170  TIP3      H2             26.0009259616       -4.7126378792      -27.6812605967  TIP3      4978            0.0000000000
     37255      5171  TIP3      OH2            32.6713184714       -9.1702444720      -39.6128023484  TIP3      4979            0.0000000000
     37256      5171  TIP3      H1             33.1781540071       -8.9417844855      -38.7956792363  TIP3      4979            0.0000000000
     37257      5171  TIP3      H2             33.0498237849       -8.5989882614      -40.3119429614  TIP3      4979            0.0000000000
     37258      5172  TIP3      OH2            23.5960680378       -8.3577958559      -27.8209080019  TIP3      4980            0.0000000000
     37259      5172  TIP3      H1             23.6458702079       -7.6861795167      -27.1144457656  TIP3      4980            0.0000000000
     37260      5172  TIP3      H2             22.6604865755       -8.2662472764      -28.0644490292  TIP3      4980            0.0000000000
     37261      5173  TIP3      OH2            30.3452231476       -2.4278837803      -36.0907288641  TIP3      4981            0.0000000000
     37262      5173  TIP3      H1             30.7874308823       -2.0994260529      -35.3043007065  TIP3      4981            0.0000000000
     37263      5173  TIP3      H2             29.7974676583       -1.6834860698      -36.3761697408  TIP3      4981            0.0000000000
     37264      5174  TIP3      OH2            24.9312246892       -2.5055865801      -26.2537267707  TIP3      4982            0.0000000000
     37265      5174  TIP3      H1             24.8538311544       -2.5819299173      -27.2236536678  TIP3      4982            0.0000000000
     37266      5174  TIP3      H2             23.9997021826       -2.5894205400      -25.9630200773  TIP3      4982            0.0000000000
     37267      5175  TIP3      OH2            36.1151651560      -17.4956004290      -39.7912658464  TIP3      4983            0.0000000000
     37268      5175  TIP3      H1             35.2373877142      -17.2447623505      -39.4396786528  TIP3      4983            0.0000000000
     37269      5175  TIP3      H2             36.4546410003      -16.6698428632      -40.1350060657  TIP3      4983            0.0000000000
     37270      5176  TIP3      OH2            24.3887634250       -8.6861538226      -37.7286578663  TIP3      4984            0.0000000000
     37271      5176  TIP3      H1             24.0785099908       -7.8970721808      -38.2439106669  TIP3      4984            0.0000000000
     37272      5176  TIP3      H2             23.6908041822       -9.3136081899      -37.9748246597  TIP3      4984            0.0000000000
     37273      5177  TIP3      OH2            20.4515174981       -6.2328539314      -28.8422037397  TIP3      4985            0.0000000000
     37274      5177  TIP3      H1             19.9927224051       -6.3018479603      -29.6951921503  TIP3      4985            0.0000000000
     37275      5177  TIP3      H2             20.5157363475       -7.1831984495      -28.6201208783  TIP3      4985            0.0000000000
     37276      5178  TIP3      OH2            20.1968980606       -3.4945435738      -32.0562439624  TIP3      4986            0.0000000000
     37277      5178  TIP3      H1             21.1559233911       -3.6084516536      -32.0833996702  TIP3      4986            0.0000000000
     37278      5178  TIP3      H2             20.1161004053       -2.6736758256      -31.5549568136  TIP3      4986            0.0000000000
     37279      5179  TIP3      OH2            29.3940357968       -3.2554624251      -27.5026155454  TIP3      4987            0.0000000000
     37280      5179  TIP3      H1             29.4525975688       -2.4127132196      -27.0001560740  TIP3      4987            0.0000000000
     37281      5179  TIP3      H2             28.5208909948       -3.6174904647      -27.2575462633  TIP3      4987            0.0000000000
     37282      5180  TIP3      OH2            29.8223669975        0.4968873231      -37.7078084017  TIP3      4988            0.0000000000
     37283      5180  TIP3      H1             29.7701123530        0.4255441818      -38.6786672756  TIP3      4988            0.0000000000
     37284      5180  TIP3      H2             29.8778989175        1.4570036475      -37.5465656668  TIP3      4988            0.0000000000
     37285      5181  TIP3      OH2            23.4775952425       -0.6269512092      -35.8868918248  TIP3      4989            0.0000000000
     37286      5181  TIP3      H1             23.6240495411       -1.0420074431      -35.0056104954  TIP3      4989            0.0000000000
     37287      5181  TIP3      H2             22.6283808598       -1.0349799848      -36.1237264818  TIP3      4989            0.0000000000
     37288      5182  TIP3      OH2            33.1013192412       -0.2348665164      -40.6015045383  TIP3      4990            0.0000000000
     37289      5182  TIP3      H1             33.2680090207       -1.0219542360      -41.1835168232  TIP3      4990            0.0000000000
     37290      5182  TIP3      H2             32.9169311230       -0.6264654852      -39.7428965739  TIP3      4990            0.0000000000
     37291      5183  TIP3      OH2            32.5670643662       -0.3249791914      -37.8985204035  TIP3      4991            0.0000000000
     37292      5183  TIP3      H1             31.6017165684       -0.3027922194      -37.7894204498  TIP3      4991            0.0000000000
     37293      5183  TIP3      H2             32.8163694189       -1.1121846423      -37.3970424008  TIP3      4991            0.0000000000
     37294      5184  TIP3      OH2            35.2460877792      -11.2243537523      -25.8658933138  TIP3      4992            0.0000000000
     37295      5184  TIP3      H1             35.0795573423      -10.8452957056      -26.7276193601  TIP3      4992            0.0000000000
     37296      5184  TIP3      H2             35.6601252871      -12.0874010466      -26.1124975740  TIP3      4992            0.0000000000
     37297      5185  TIP3      OH2            22.7284803018       -4.9230556458      -27.8728629543  TIP3      4993            0.0000000000
     37298      5185  TIP3      H1             22.9405103762       -5.2817730155      -26.9841715436  TIP3      4993            0.0000000000
     37299      5185  TIP3      H2             21.8565582700       -5.3143027527      -28.0933450015  TIP3      4993            0.0000000000
     37300      5186  TIP3      OH2            25.4055924433      -16.4296112700      -31.9517283138  TIP3      4994            0.0000000000
     37301      5186  TIP3      H1             24.5021152451      -16.5665044324      -32.3133116739  TIP3      4994            0.0000000000
     37302      5186  TIP3      H2             25.2596043303      -15.6132671980      -31.4421992634  TIP3      4994            0.0000000000
     37303      5187  TIP3      OH2            30.0417239700      -16.7593635254      -28.5758233803  TIP3      4995            0.0000000000
     37304      5187  TIP3      H1             30.4370153055      -17.1949350368      -27.8003329545  TIP3      4995            0.0000000000
     37305      5187  TIP3      H2             29.0692517430      -16.8858774466      -28.4352200776  TIP3      4995            0.0000000000
     37306      5188  TIP3      OH2            33.2869418456      -12.9269147424      -27.7095002037  TIP3      4996            0.0000000000
     37307      5188  TIP3      H1             32.7793226969      -13.1163335897      -26.8896068033  TIP3      4996            0.0000000000
     37308      5188  TIP3      H2             33.1593591087      -11.9802214872      -27.8941781582  TIP3      4996            0.0000000000
     37309      5189  TIP3      OH2            34.2033223678       -8.1132090462      -41.7558406046  TIP3      4997            0.0000000000
     37310      5189  TIP3      H1             34.1650279419       -8.2159673581      -42.7249803407  TIP3      4997            0.0000000000
     37311      5189  TIP3      H2             35.0011963903       -7.5849881163      -41.6741888603  TIP3      4997            0.0000000000
     37312      5190  TIP3      OH2            29.6942373289      -14.1923400421      -41.2337765775  TIP3      4998            0.0000000000
     37313      5190  TIP3      H1             29.3713777149      -14.2478860241      -40.3181990809  TIP3      4998            0.0000000000
     37314      5190  TIP3      H2             29.4197489588      -15.0697610729      -41.5299342461  TIP3      4998            0.0000000000
     37315      5191  TIP3      OH2            25.4969025859      -11.4602184645      -30.7019904728  TIP3      4999            0.0000000000
     37316      5191  TIP3      H1             24.7796920034      -11.4792944842      -30.0436037760  TIP3      4999            0.0000000000
     37317      5191  TIP3      H2             25.4510175992      -10.5434839351      -31.0454323059  TIP3      4999            0.0000000000
     37318      5192  TIP3      OH2            25.4567916856      -11.3124736641      -35.8832085591  TIP3      5000            0.0000000000
     37319      5192  TIP3      H1             24.5221454814      -11.6389947990      -35.9422279790  TIP3      5000            0.0000000000
     37320      5192  TIP3      H2             25.8248982683      -11.7569067118      -36.6872619906  TIP3      5000            0.0000000000
     37321      5193  TIP3      OH2            30.9953531837      -10.8574883711      -37.0869663484  TIP3      5001            0.0000000000
     37322      5193  TIP3      H1             30.6179995368      -10.0160007660      -37.4273702961  TIP3      5001            0.0000000000
     37323      5193  TIP3      H2             31.7001795427      -11.0298442588      -37.7373316843  TIP3      5001            0.0000000000
     37324      5194  TIP3      OH2            30.0145627330      -10.6823005407      -25.5890251774  TIP3      5002            0.0000000000
     37325      5194  TIP3      H1             29.5244817687      -11.4349923483      -25.2734169421  TIP3      5002            0.0000000000
     37326      5194  TIP3      H2             30.8807654013      -10.7426982467      -25.1407238640  TIP3      5002            0.0000000000
     37327      5195  TIP3      OH2            32.0245570070      -11.3372905370      -34.1896409875  TIP3      5003            0.0000000000
     37328      5195  TIP3      H1             31.7755319416      -10.7855778366      -34.9448032358  TIP3      5003            0.0000000000
     37329      5195  TIP3      H2             32.1109952583      -12.1933391465      -34.6602219520  TIP3      5003            0.0000000000
     37330      5196  TIP3      OH2            23.1191285128      -11.2185731867      -29.0129853596  TIP3      5004            0.0000000000
     37331      5196  TIP3      H1             23.2163564902      -10.8244660313      -28.1295502298  TIP3      5004            0.0000000000
     37332      5196  TIP3      H2             22.6953140584      -12.0696066458      -28.8015465998  TIP3      5004            0.0000000000
     37333      5197  TIP3      OH2            26.6787740194      -13.5922813751      -41.8239291059  TIP3      5005            0.0000000000
     37334      5197  TIP3      H1             26.1262317232      -14.2206413598      -41.3127591523  TIP3      5005            0.0000000000
     37335      5197  TIP3      H2             26.0827253885      -13.2077021998      -42.4657997080  TIP3      5005            0.0000000000
     37336      5198  TIP3      OH2            19.7932409886      -14.0649003014      -35.0288027586  TIP3      5006            0.0000000000
     37337      5198  TIP3      H1             20.4691802293      -14.1608539679      -34.3251900625  TIP3      5006            0.0000000000
     37338      5198  TIP3      H2             20.2240748482      -14.4867565481      -35.7980836341  TIP3      5006            0.0000000000
     37339      5199  TIP3      OH2            21.0785120429      -13.3825658659      -39.6568995373  TIP3      5007            0.0000000000
     37340      5199  TIP3      H1             21.5742676257      -12.7983798429      -40.2647146432  TIP3      5007            0.0000000000
     37341      5199  TIP3      H2             20.3913857377      -12.7574402451      -39.3434744080  TIP3      5007            0.0000000000
     37342      5200  TIP3      OH2            31.2215036517       -9.7784173760      -29.6764398880  TIP3      5008            0.0000000000
     37343      5200  TIP3      H1             31.6127277624      -10.4767218201      -30.2456734169  TIP3      5008            0.0000000000
     37344      5200  TIP3      H2             30.7541506660      -10.2964014166      -28.9974568841  TIP3      5008            0.0000000000
     37345      5201  TIP3      OH2            28.0006225677      -13.7335900169      -34.8003183103  TIP3      5009            0.0000000000
     37346      5201  TIP3      H1             27.0684344726      -13.8188957068      -34.5039285019  TIP3      5009            0.0000000000
     37347      5201  TIP3      H2             28.5036013912      -13.9817752553      -34.0062825748  TIP3      5009            0.0000000000
     37348      5202  TIP3      OH2            22.8683614217      -12.2312064304      -35.9853545466  TIP3      5010            0.0000000000
     37349      5202  TIP3      H1             21.9653699924      -12.0994660856      -36.3428858790  TIP3      5010            0.0000000000
     37350      5202  TIP3      H2             23.1018493892      -13.1085141748      -36.3388267077  TIP3      5010            0.0000000000
     37351      5203  TIP3      OH2            26.4510480547      -12.0769552109      -38.2483328914  TIP3      5011            0.0000000000
     37352      5203  TIP3      H1             27.4321348769      -12.1358962487      -38.2005124538  TIP3      5011            0.0000000000
     37353      5203  TIP3      H2             26.2455251110      -11.5793277340      -39.0642880546  TIP3      5011            0.0000000000
     37354      5204  TIP3      OH2            32.3956745588      -14.5833191523      -31.5862832850  TIP3      5012            0.0000000000
     37355      5204  TIP3      H1             31.7239510431      -14.5154364258      -30.8765322891  TIP3      5012            0.0000000000
     37356      5204  TIP3      H2             31.8836220659      -14.7970128582      -32.3804456975  TIP3      5012            0.0000000000
     37357      5205  TIP3      OH2            25.1841708742      -11.0191431330      -40.7092929736  TIP3      5013            0.0000000000
     37358      5205  TIP3      H1             24.6166591697      -11.3641107439      -41.4292441396  TIP3      5013            0.0000000000
     37359      5205  TIP3      H2             25.9975650046      -10.8060656915      -41.1978980247  TIP3      5013            0.0000000000
     37360      5206  TIP3      OH2            35.6058706560        1.0589362344      -25.2558670903  TIP3      5014            0.0000000000
     37361      5206  TIP3      H1             35.9017783561        1.4576258239      -26.0855865041  TIP3      5014            0.0000000000
     37362      5206  TIP3      H2             36.2866874857        1.3831338304      -24.6399651357  TIP3      5014            0.0000000000
     37363      5207  TIP3      OH2            23.3139330641       -6.4595427109      -25.6870114295  TIP3      5015            0.0000000000
     37364      5207  TIP3      H1             24.0116872962       -6.1814256854      -25.0752459453  TIP3      5015            0.0000000000
     37365      5207  TIP3      H2             22.5410148478       -6.3480163280      -25.1104886358  TIP3      5015            0.0000000000
     37366      5208  TIP3      OH2            29.2683638942      -11.0549997960      -32.9620141504  TIP3      5016            0.0000000000
     37367      5208  TIP3      H1             29.9339502017      -11.5728587762      -33.4366105735  TIP3      5016            0.0000000000
     37368      5208  TIP3      H2             29.1660164997      -11.5711936045      -32.1454852588  TIP3      5016            0.0000000000
     37369      5209  TIP3      OH2            24.3231731182      -14.8784561931      -36.4726266091  TIP3      5017            0.0000000000
     37370      5209  TIP3      H1             23.9969956479      -15.7974497426      -36.4876559494  TIP3      5017            0.0000000000
     37371      5209  TIP3      H2             25.0998934751      -14.9770449216      -37.0399312410  TIP3      5017            0.0000000000
     37372      5210  TIP3      OH2            27.9410317546      -12.7130309239      -30.5039910974  TIP3      5018            0.0000000000
     37373      5210  TIP3      H1             27.1170075976      -12.1922640546      -30.4341736178  TIP3      5018            0.0000000000
     37374      5210  TIP3      H2             28.4955029011      -12.3526316027      -29.7868510600  TIP3      5018            0.0000000000
     37375      5211  TIP3      OH2            28.5444468226       -6.5181937320      -38.7877839445  TIP3      5019            0.0000000000
     37376      5211  TIP3      H1             27.7350599353       -6.9309651472      -39.1580994060  TIP3      5019            0.0000000000
     37377      5211  TIP3      H2             28.3021846062       -6.3274487328      -37.8631584804  TIP3      5019            0.0000000000
     37378      5212  TIP3      OH2            35.5699739864       -7.2269358853      -30.0083307077  TIP3      5020            0.0000000000
     37379      5212  TIP3      H1             36.2094659718       -7.0482895290      -30.7255575894  TIP3      5020            0.0000000000
     37380      5212  TIP3      H2             34.7464032769       -7.2550802921      -30.5305569904  TIP3      5020            0.0000000000
     37381      5213  TIP3      OH2            32.3837451801      -13.7041773981      -40.6247131546  TIP3      5021            0.0000000000
     37382      5213  TIP3      H1             31.4414554592      -13.5510807200      -40.8153606387  TIP3      5021            0.0000000000
     37383      5213  TIP3      H2             32.6554736785      -12.8165096426      -40.3185985909  TIP3      5021            0.0000000000
     37384      5214  TIP3      OH2            30.0229022565       -6.2352714989      -27.5921394276  TIP3      5022            0.0000000000
     37385      5214  TIP3      H1             29.6863254173       -6.6566943970      -26.7936783269  TIP3      5022            0.0000000000
     37386      5214  TIP3      H2             29.7950191696       -5.3072945497      -27.4692725524  TIP3      5022            0.0000000000
     37387      5215  TIP3      OH2            33.0979116191      -11.7456264258      -39.0388172670  TIP3      5023            0.0000000000
     37388      5215  TIP3      H1             33.9577152521      -11.8619217355      -38.5914460759  TIP3      5023            0.0000000000
     37389      5215  TIP3      H2             33.1696112288      -10.8850343657      -39.4807037213  TIP3      5023            0.0000000000
     37390      5216  TIP3      OH2            23.6362244478       -7.0983792757      -33.0238644961  TIP3      5024            0.0000000000
     37391      5216  TIP3      H1             24.3304626019       -7.1622924885      -33.6959720752  TIP3      5024            0.0000000000
     37392      5216  TIP3      H2             23.6919977649       -7.9450763749      -32.5428637923  TIP3      5024            0.0000000000
     37393      5217  TIP3      OH2            30.6341047008       -5.0351526793      -39.7086460198  TIP3      5025            0.0000000000
     37394      5217  TIP3      H1             30.2597381521       -4.1668285968      -39.4413576944  TIP3      5025            0.0000000000
     37395      5217  TIP3      H2             29.8815898529       -5.6486515214      -39.5679287921  TIP3      5025            0.0000000000
     37396      5218  TIP3      OH2            20.6238198884       -8.6821985143      -27.7524955323  TIP3      5026            0.0000000000
     37397      5218  TIP3      H1             20.7985054342       -9.1365777900      -26.9095938527  TIP3      5026            0.0000000000
     37398      5218  TIP3      H2             20.0087899617       -9.2963064065      -28.1879014109  TIP3      5026            0.0000000000
     37399      5219  TIP3      OH2            27.6203614937       -9.1990664542      -25.5520902527  TIP3      5027            0.0000000000
     37400      5219  TIP3      H1             27.3250649742       -9.4030155578      -26.4543672390  TIP3      5027            0.0000000000
     37401      5219  TIP3      H2             28.5763038194       -9.4020809133      -25.6035450589  TIP3      5027            0.0000000000
     37402      5220  TIP3      OH2            32.3063024703       -3.8145332231      -27.6362588775  TIP3      5028            0.0000000000
     37403      5220  TIP3      H1             31.3876628078       -3.6177383605      -27.8635010635  TIP3      5028            0.0000000000
     37404      5220  TIP3      H2             32.3179235861       -3.5120649889      -26.7085945845  TIP3      5028            0.0000000000
     37405      5221  TIP3      OH2            36.1771754950       -2.7876839292      -38.8243325746  TIP3      5029            0.0000000000
     37406      5221  TIP3      H1             35.8763639321       -3.6303834971      -38.4895104835  TIP3      5029            0.0000000000
     37407      5221  TIP3      H2             36.5864150866       -2.9642933316      -39.6813549036  TIP3      5029            0.0000000000
     37408      5222  TIP3      OH2            33.4325559566       -7.9979989203      -31.7102496705  TIP3      5030            0.0000000000
     37409      5222  TIP3      H1             32.4924546035       -8.2083415237      -31.8690621253  TIP3      5030            0.0000000000
     37410      5222  TIP3      H2             33.9043461798       -8.7251709870      -32.1620752701  TIP3      5030            0.0000000000
     37411      5223  TIP3      OH2            26.0217558855       -3.6681331322      -35.6489517610  TIP3      5031            0.0000000000
     37412      5223  TIP3      H1             26.5139326239       -2.8481461324      -35.8311665028  TIP3      5031            0.0000000000
     37413      5223  TIP3      H2             25.1403522210       -3.4182164939      -35.9597752147  TIP3      5031            0.0000000000
     37414      5224  TIP3      OH2            21.7243573230       -8.7507316736      -41.1424789701  TIP3      5032            0.0000000000
     37415      5224  TIP3      H1             22.3624462321       -8.1696562508      -40.6902534928  TIP3      5032            0.0000000000
     37416      5224  TIP3      H2             20.8805906371       -8.5106244898      -40.7269246929  TIP3      5032            0.0000000000
     37417      5225  TIP3      OH2            27.4120092560       -5.9907098769      -36.1159909292  TIP3      5033            0.0000000000
     37418      5225  TIP3      H1             27.1426187187       -5.0520972434      -36.0335511281  TIP3      5033            0.0000000000
     37419      5225  TIP3      H2             26.6787952990       -6.4119010405      -35.6410556121  TIP3      5033            0.0000000000
     37420      5226  TIP3      OH2            27.8757911964       -1.7839252803      -29.6993675936  TIP3      5034            0.0000000000
     37421      5226  TIP3      H1             28.3410077197       -0.9843516873      -29.9900169360  TIP3      5034            0.0000000000
     37422      5226  TIP3      H2             28.4965238663       -2.1355291247      -29.0380134258  TIP3      5034            0.0000000000
     37423      5227  TIP3      OH2            26.1174893108       -0.9829226584      -36.5879996497  TIP3      5035            0.0000000000
     37424      5227  TIP3      H1             25.1515648273       -0.8452677906      -36.4432077306  TIP3      5035            0.0000000000
     37425      5227  TIP3      H2             26.4727587929       -0.1457225521      -36.2385100535  TIP3      5035            0.0000000000
     37426      5228  TIP3      OH2            31.4112221442       -5.7971150375      -30.0922505023  TIP3      5036            0.0000000000
     37427      5228  TIP3      H1             31.0799493504       -5.9747263506      -29.1866430980  TIP3      5036            0.0000000000
     37428      5228  TIP3      H2             32.0434794492       -6.5159925575      -30.2515809462  TIP3      5036            0.0000000000
     37429      5229  TIP3      OH2            33.7090430163       -4.7985424127      -40.9613695001  TIP3      5037            0.0000000000
     37430      5229  TIP3      H1             33.9768006287       -5.2015826450      -40.1207646519  TIP3      5037            0.0000000000
     37431      5229  TIP3      H2             32.7461691574       -4.8870614326      -40.9012857404  TIP3      5037            0.0000000000
     37432      5230  TIP3      OH2            34.1757164482       -1.1703207911      -27.5954065664  TIP3      5038            0.0000000000
     37433      5230  TIP3      H1             33.5302065996       -1.7074774410      -28.0915777764  TIP3      5038            0.0000000000
     37434      5230  TIP3      H2             34.4181694546       -0.5070505205      -28.2744066288  TIP3      5038            0.0000000000
     37435      5231  TIP3      OH2            22.3489160193      -13.9168424565      -28.2555103649  TIP3      5039            0.0000000000
     37436      5231  TIP3      H1             21.4123017592      -13.6331866792      -28.2121303079  TIP3      5039            0.0000000000
     37437      5231  TIP3      H2             22.1721895404      -14.7638713848      -27.7661528522  TIP3      5039            0.0000000000
     37438      5232  TIP3      OH2            34.5245516031       -6.1070857566      -38.7411050326  TIP3      5040            0.0000000000
     37439      5232  TIP3      H1             34.2651134199       -6.9088478298      -38.2245786317  TIP3      5040            0.0000000000
     37440      5232  TIP3      H2             35.4615774287       -6.0358377379      -38.5067830886  TIP3      5040            0.0000000000
     37441      5233  TIP3      OH2            21.8903010628       -2.1733274107      -29.7773969259  TIP3      5041            0.0000000000
     37442      5233  TIP3      H1             22.2068744362       -3.0891095915      -29.7737326506  TIP3      5041            0.0000000000
     37443      5233  TIP3      H2             22.1577007430       -1.8788604470      -28.8988592215  TIP3      5041            0.0000000000
     37444      5234  TIP3      OH2            26.6338703184       -4.0713271149      -40.0743065956  TIP3      5042            0.0000000000
     37445      5234  TIP3      H1             26.9145491012       -4.6255419492      -39.3353517319  TIP3      5042            0.0000000000
     37446      5234  TIP3      H2             26.7259272249       -3.1643742321      -39.7182940342  TIP3      5042            0.0000000000
     37447      5235  TIP3      OH2            23.1606732773       -6.8631057784      -39.5738655181  TIP3      5043            0.0000000000
     37448      5235  TIP3      H1             22.4644217183       -6.4425868618      -39.0225300243  TIP3      5043            0.0000000000
     37449      5235  TIP3      H2             23.6881163103       -6.0926687638      -39.8496331563  TIP3      5043            0.0000000000
     37450      5236  TIP3      OH2            30.9925493091      -14.1886539206      -29.2302872330  TIP3      5044            0.0000000000
     37451      5236  TIP3      H1             31.7427454275      -14.1229966330      -28.6295045988  TIP3      5044            0.0000000000
     37452      5236  TIP3      H2             30.6260130600      -15.0724161588      -29.0377052901  TIP3      5044            0.0000000000
     37453      5237  TIP3      OH2            31.7666344420      -14.6195126139      -38.1505022409  TIP3      5045            0.0000000000
     37454      5237  TIP3      H1             32.0038837265      -14.1490503223      -38.9761458612  TIP3      5045            0.0000000000
     37455      5237  TIP3      H2             32.3326911704      -14.1818068445      -37.5099035649  TIP3      5045            0.0000000000
     37456      5238  TIP3      OH2            29.4501063404       -2.3988886607      -39.0436354733  TIP3      5046            0.0000000000
     37457      5238  TIP3      H1             28.6092676258       -1.9514930309      -39.2317120394  TIP3      5046            0.0000000000
     37458      5238  TIP3      H2             29.9121326696       -2.0823139464      -39.8693645485  TIP3      5046            0.0000000000
     37459      5239  TIP3      OH2            28.9298022051      -12.8063290215      -37.3406993093  TIP3      5047            0.0000000000
     37460      5239  TIP3      H1             29.7652628819      -12.2956145272      -37.3193940747  TIP3      5047            0.0000000000
     37461      5239  TIP3      H2             28.7378569426      -13.0289083589      -36.4104556750  TIP3      5047            0.0000000000
     37462      5240  TIP3      OH2            29.5620855821      -11.8392411960      -28.1571488252  TIP3      5048            0.0000000000
     37463      5240  TIP3      H1             29.6574384672      -11.2610916880      -27.3750502217  TIP3      5048            0.0000000000
     37464      5240  TIP3      H2             30.2233030478      -12.5405658426      -28.0727932255  TIP3      5048            0.0000000000
     37465      5241  TIP3      OH2            29.7983677496      -15.8011153216      -36.4813093898  TIP3      5049            0.0000000000
     37466      5241  TIP3      H1             29.5249080107      -15.1637325628      -35.8036507661  TIP3      5049            0.0000000000
     37467      5241  TIP3      H2             30.5164513702      -15.2690703589      -36.9096674214  TIP3      5049            0.0000000000
     37468      5242  TIP3      OH2            26.8144927066       -1.4005813718      -39.3065486387  TIP3      5050            0.0000000000
     37469      5242  TIP3      H1             26.9931480725       -0.5828934320      -39.8120987492  TIP3      5050            0.0000000000
     37470      5242  TIP3      H2             26.5700467001       -1.0568749253      -38.4164114898  TIP3      5050            0.0000000000
     37471      5243  TIP3      OH2            25.4988670875      -14.7272202865      -39.6921274747  TIP3      5051            0.0000000000
     37472      5243  TIP3      H1             25.4262319540      -13.8102098091      -39.3722692136  TIP3      5051            0.0000000000
     37473      5243  TIP3      H2             26.4177083718      -14.9366773839      -39.4384947018  TIP3      5051            0.0000000000
     37474      5244  TIP3      OH2            35.6759747641      -14.0502716481      -27.4006452344  TIP3      5052            0.0000000000
     37475      5244  TIP3      H1             34.7847902967      -13.6331775325      -27.4373622025  TIP3      5052            0.0000000000
     37476      5244  TIP3      H2             36.0100706462      -13.9158886391      -28.2907069598  TIP3      5052            0.0000000000
     37477      5245  TIP3      OH2            34.3499313112      -10.1706889691      -33.2406427683  TIP3      5053            0.0000000000
     37478      5245  TIP3      H1             33.5265788731      -10.5944523399      -33.5593331688  TIP3      5053            0.0000000000
     37479      5245  TIP3      H2             34.7410890194      -10.9144058267      -32.7581612655  TIP3      5053            0.0000000000
     37480      5246  TIP3      OH2            23.7490587031       -4.2398432084      -40.7024393296  TIP3      5054            0.0000000000
     37481      5246  TIP3      H1             24.4250925659       -3.6324967833      -40.3805668736  TIP3      5054            0.0000000000
     37482      5246  TIP3      H2             24.2573277574       -4.7269541222      -41.3795551417  TIP3      5054            0.0000000000
     37483      5247  TIP3      OH2            22.1236448991      -11.5686421113      -41.4982916004  TIP3      5055            0.0000000000
     37484      5247  TIP3      H1             22.0976216816      -10.6062575035      -41.3890363480  TIP3      5055            0.0000000000
     37485      5247  TIP3      H2             21.2575755459      -11.7678211574      -41.8693913779  TIP3      5055            0.0000000000
     37486      5248  TIP3      OH2            35.4438313465       -0.9125548362      -31.6150244782  TIP3      5056            0.0000000000
     37487      5248  TIP3      H1             35.2744686142       -0.2243889905      -32.2867562399  TIP3      5056            0.0000000000
     37488      5248  TIP3      H2             36.3822949269       -0.8192938665      -31.4381752748  TIP3      5056            0.0000000000
     37489      5249  TIP3      OH2            22.8847362149      -16.7951607729      -32.8116428698  TIP3      5057            0.0000000000
     37490      5249  TIP3      H1             22.7034662308      -16.7859788363      -33.7788848779  TIP3      5057            0.0000000000
     37491      5249  TIP3      H2             22.4748331236      -17.6519675463      -32.5622603861  TIP3      5057            0.0000000000
     37492      5250  TIP3      OH2            21.8457638940       -2.8757104559      -36.6701414790  TIP3      5058            0.0000000000
     37493      5250  TIP3      H1             20.9871999358       -2.4369128770      -36.7142471061  TIP3      5058            0.0000000000
     37494      5250  TIP3      H2             22.3116260581       -2.4164106887      -37.3824588384  TIP3      5058            0.0000000000
     37495      5251  TIP3      OH2            21.0479479755       -0.2124120251      -25.3688665555  TIP3      5059            0.0000000000
     37496      5251  TIP3      H1             21.6396482142       -0.4352020148      -24.6284263443  TIP3      5059            0.0000000000
     37497      5251  TIP3      H2             20.6611943428       -1.0753037894      -25.5958489060  TIP3      5059            0.0000000000
     37498      5252  TIP3      OH2            25.7473149252       -1.3178618585      -23.8292943926  TIP3      5060            0.0000000000
     37499      5252  TIP3      H1             26.4934037352       -1.7863198558      -23.4650365572  TIP3      5060            0.0000000000
     37500      5252  TIP3      H2             25.6924382784       -1.5942907125      -24.7602027892  TIP3      5060            0.0000000000
     37501      5253  TIP3      OH2            29.7442074643       -2.0808915364      -41.4499759456  TIP3      5061            0.0000000000
     37502      5253  TIP3      H1             29.0882376475       -2.5391265932      -41.9695393379  TIP3      5061            0.0000000000
     37503      5253  TIP3      H2             30.4715636448       -2.0494766575      -42.1352548790  TIP3      5061            0.0000000000
     37504      5254  TIP3      OH2            32.2638370214       -2.9346016121      -25.0430275273  TIP3      5062            0.0000000000
     37505      5254  TIP3      H1             31.9264576293       -3.8040154452      -24.7494361731  TIP3      5062            0.0000000000
     37506      5254  TIP3      H2             33.0111005554       -2.7961765333      -24.4335628744  TIP3      5062            0.0000000000
     37507      5255  TIP3      OH2            34.4129901947       -2.0919059172      -42.1798627579  TIP3      5063            0.0000000000
     37508      5255  TIP3      H1             34.6999490527       -2.8672935443      -41.6940952591  TIP3      5063            0.0000000000
     37509      5255  TIP3      H2             35.1674760338       -1.7613323039      -42.6759839463  TIP3      5063            0.0000000000
     37510      5256  TIP3      OH2            20.8815453753       -6.5142785459      -24.3307970283  TIP3      5064            0.0000000000
     37511      5256  TIP3      H1             21.1524743904       -7.3584429338      -24.7439399822  TIP3      5064            0.0000000000
     37512      5256  TIP3      H2             20.2652080790       -6.1741806949      -25.0085374384  TIP3      5064            0.0000000000
     37513      5257  TIP3      OH2            25.3805929645       -6.0414907628      -42.2345229453  TIP3      5065            0.0000000000
     37514      5257  TIP3      H1             25.4449877261       -6.8746677558      -41.7658043749  TIP3      5065            0.0000000000
     37515      5257  TIP3      H2             25.9514871467       -6.2511265601      -43.0002807833  TIP3      5065            0.0000000000
     37516      5258  TIP3      OH2            27.6778227138       -6.4784407625      -25.0089739296  TIP3      5066            0.0000000000
     37517      5258  TIP3      H1             27.3516707501       -6.1375110329      -25.8631786381  TIP3      5066            0.0000000000
     37518      5258  TIP3      H2             27.7472335562       -7.4464364746      -25.1458419755  TIP3      5066            0.0000000000
     37519      5259  TIP3      OH2            33.3330477235       -6.6368705751      -27.6633420846  TIP3      5067            0.0000000000
     37520      5259  TIP3      H1             34.1279650189       -6.0477293557      -27.6938121205  TIP3      5067            0.0000000000
     37521      5259  TIP3      H2             32.6693527089       -5.9401732961      -27.5574171475  TIP3      5067            0.0000000000
     37522      5260  TIP3      OH2            21.8993803380       -9.1971731650      -25.0109371446  TIP3      5068            0.0000000000
     37523      5260  TIP3      H1             22.2862798378      -10.0697415536      -25.1501994495  TIP3      5068            0.0000000000
     37524      5260  TIP3      H2             21.5963876722       -9.2677463408      -24.1078820192  TIP3      5068            0.0000000000
     37525      5261  TIP3      OH2            26.5552615961       -8.0733666837      -39.9077909037  TIP3      5069            0.0000000000
     37526      5261  TIP3      H1             25.9681948063       -8.6171889396      -39.3704158780  TIP3      5069            0.0000000000
     37527      5261  TIP3      H2             26.8374709352       -8.7294096235      -40.5962128740  TIP3      5069            0.0000000000
     37528      5262  TIP3      OH2            25.7931572805      -10.2971877329      -27.6347030464  TIP3      5070            0.0000000000
     37529      5262  TIP3      H1             25.1879587736       -9.5842661819      -27.3745609295  TIP3      5070            0.0000000000
     37530      5262  TIP3      H2             26.1698921171       -9.9286653163      -28.4526524283  TIP3      5070            0.0000000000
     37531      5263  TIP3      OH2            27.5979671843       -9.8393395835      -41.7255683308  TIP3      5071            0.0000000000
     37532      5263  TIP3      H1             27.4832823208      -10.0443204489      -42.6641630035  TIP3      5071            0.0000000000
     37533      5263  TIP3      H2             28.5793547067       -9.7825029331      -41.6391250730  TIP3      5071            0.0000000000
     37534      5264  TIP3      OH2            30.8061064913       -7.7213298408      -24.2553864952  TIP3      5072            0.0000000000
     37535      5264  TIP3      H1             31.7562146897       -7.7226693548      -24.4549491642  TIP3      5072            0.0000000000
     37536      5264  TIP3      H2             30.6998293276       -8.5191616427      -23.7212167465  TIP3      5072            0.0000000000
     37537      5265  TIP3      OH2            26.1826748418      -12.9014181741      -26.5818686666  TIP3      5073            0.0000000000
     37538      5265  TIP3      H1             26.3010613726      -13.6052462433      -27.2514695165  TIP3      5073            0.0000000000
     37539      5265  TIP3      H2             26.1181390928      -12.0965735762      -27.1383748454  TIP3      5073            0.0000000000
     37540      5266  TIP3      OH2            26.5951622085      -14.5156817122      -29.0202642879  TIP3      5074            0.0000000000
     37541      5266  TIP3      H1             27.0980007430      -14.0649301741      -29.7364593432  TIP3      5074            0.0000000000
     37542      5266  TIP3      H2             25.6961131460      -14.6034080039      -29.4143791309  TIP3      5074            0.0000000000
     37543      5267  TIP3      OH2            28.1448483060       -9.0302195583      -28.7888009157  TIP3      5075            0.0000000000
     37544      5267  TIP3      H1             28.8806416712       -9.1958701004      -29.3847377496  TIP3      5075            0.0000000000
     37545      5267  TIP3      H2             27.7718270648       -8.1991797579      -29.1195103997  TIP3      5075            0.0000000000
     37546      5268  TIP3      OH2            32.4755731967      -11.2756847504      -23.8639340145  TIP3      5076            0.0000000000
     37547      5268  TIP3      H1             32.7741776909      -12.1962460930      -23.8949552598  TIP3      5076            0.0000000000
     37548      5268  TIP3      H2             33.3483838714      -10.8387937373      -23.8481010421  TIP3      5076            0.0000000000
     37549      5269  TIP3      OH2            33.8195090297       -8.4808119547      -25.6983499936  TIP3      5077            0.0000000000
     37550      5269  TIP3      H1             33.6125709693       -7.7518328427      -26.3148773799  TIP3      5077            0.0000000000
     37551      5269  TIP3      H2             34.7865696885       -8.5327415804      -25.8522420883  TIP3      5077            0.0000000000
     37552      5270  TIP3      OH2            24.6924225186      -11.6707011544      -24.6572046959  TIP3      5078            0.0000000000
     37553      5270  TIP3      H1             23.8873924297      -12.2212089103      -24.8046162535  TIP3      5078            0.0000000000
     37554      5270  TIP3      H2             25.2841195176      -12.0405129067      -25.3384319821  TIP3      5078            0.0000000000
     37555      5271  TIP3      OH2            27.3923697332      -17.0806746046      -28.6733720979  TIP3      5079            0.0000000000
     37556      5271  TIP3      H1             27.1969468156      -16.1201392447      -28.7606375163  TIP3      5079            0.0000000000
     37557      5271  TIP3      H2             26.6299129716      -17.4490474736      -29.1505849360  TIP3      5079            0.0000000000
     37558      5272  TIP3      OH2            31.3478584501      -13.5670896212      -25.8791247608  TIP3      5080            0.0000000000
     37559      5272  TIP3      H1             30.3921310394      -13.6380019081      -25.8397934808  TIP3      5080            0.0000000000
     37560      5272  TIP3      H2             31.6885954651      -14.2562196135      -25.2742901266  TIP3      5080            0.0000000000
     37561      5273  TIP3      OH2            32.9894736191      -14.9982647295      -24.0244705339  TIP3      5081            0.0000000000
     37562      5273  TIP3      H1             32.8876010296      -15.9676193571      -24.0177163420  TIP3      5081            0.0000000000
     37563      5273  TIP3      H2             32.6887537775      -14.6924899914      -23.1377994657  TIP3      5081            0.0000000000
     37564      5274  TIP3      OH2            22.7876191730      -13.7250533063      -24.9131210723  TIP3      5082            0.0000000000
     37565      5274  TIP3      H1             22.9109974023      -14.4570493941      -25.5505608761  TIP3      5082            0.0000000000
     37566      5274  TIP3      H2             22.6202927333      -14.2084303633      -24.0866525505  TIP3      5082            0.0000000000
     37567      5275  TIP3      OH2            27.6055678996      -17.6807320214      -25.9434351605  TIP3      5083            0.0000000000
     37568      5275  TIP3      H1             28.2663841123      -18.3895370754      -25.9980608379  TIP3      5083            0.0000000000
     37569      5275  TIP3      H2             27.4602089984      -17.5154502604      -26.8944373114  TIP3      5083            0.0000000000
     37570      5276  TIP3      OH2            27.4081196339        0.8482878930      -40.7288440958  TIP3      5084            0.0000000000
     37571      5276  TIP3      H1             28.3807985216        0.9185325791      -40.6043719429  TIP3      5084            0.0000000000
     37572      5276  TIP3      H2             27.2540163771        1.4983732078      -41.4164303718  TIP3      5084            0.0000000000
     37573      5277  TIP3      OH2            20.9780746543       -4.6110668390      -41.1837917783  TIP3      5085            0.0000000000
     37574      5277  TIP3      H1             21.9334040115       -4.4809898338      -40.9801943536  TIP3      5085            0.0000000000
     37575      5277  TIP3      H2             21.0618394460       -5.1537180786      -41.9697897811  TIP3      5085            0.0000000000
     37576      5278  TIP3      OH2            19.7525933108        0.7893611725      -36.2308082362  TIP3      5086            0.0000000000
     37577      5278  TIP3      H1             19.0345697878        0.3026255940      -36.6920552547  TIP3      5086            0.0000000000
     37578      5278  TIP3      H2             20.0335509001        0.1362600097      -35.5648325296  TIP3      5086            0.0000000000
     37579      5279  TIP3      OH2            20.5794007050       -1.0693385171      -34.3477522069  TIP3      5087            0.0000000000
     37580      5279  TIP3      H1             20.2218960361       -1.9462768385      -34.1466217809  TIP3      5087            0.0000000000
     37581      5279  TIP3      H2             20.8225825084       -0.7435681267      -33.4656957699  TIP3      5087            0.0000000000
     37582      5280  TIP3      OH2            35.9503831795       -4.8494985212      -23.9306499284  TIP3      5088            0.0000000000
     37583      5280  TIP3      H1             35.1575794311       -4.9938145848      -23.3940848210  TIP3      5088            0.0000000000
     37584      5280  TIP3      H2             36.4466654498       -4.2117283643      -23.3913861380  TIP3      5088            0.0000000000
     37585      5281  TIP3      OH2            36.1027165143       -3.0423432877      -29.1813860529  TIP3      5089            0.0000000000
     37586      5281  TIP3      H1             35.4427048309       -2.5849371422      -28.6400569896  TIP3      5089            0.0000000000
     37587      5281  TIP3      H2             35.5681743392       -3.3681269544      -29.9376637716  TIP3      5089            0.0000000000
     37588      5282  TIP3      OH2            36.3731727910      -11.4812727873      -41.5546496905  TIP3      5090            0.0000000000
     37589      5282  TIP3      H1             36.5874200261      -10.8408418753      -42.2478566886  TIP3      5090            0.0000000000
     37590      5282  TIP3      H2             36.2105678550      -12.3229853070      -42.0141870284  TIP3      5090            0.0000000000
     37591      5283  TIP3      OH2            35.2578071640      -10.0226706240      -35.8929889210  TIP3      5091            0.0000000000
     37592      5283  TIP3      H1             35.4133448764      -10.9757876326      -35.8585017246  TIP3      5091            0.0000000000
     37593      5283  TIP3      H2             35.2520045273       -9.8087689046      -34.9439382127  TIP3      5091            0.0000000000
     37594      5284  TIP3      OH2            20.6313170656       -8.0404857022      -31.8715718666  TIP3      5092            0.0000000000
     37595      5284  TIP3      H1             20.8485816015       -8.0579597123      -32.8279180537  TIP3      5092            0.0000000000
     37596      5284  TIP3      H2             21.5316474419       -8.1600147266      -31.4985761576  TIP3      5092            0.0000000000
     37597      5285  TIP3      OH2           -37.0264822077       -8.0930583995      -25.9560841611  TIP3      5093            0.0000000000
     37598      5285  TIP3      H1            -36.4450879781       -8.8688895335      -25.9788372888  TIP3      5093            0.0000000000
     37599      5285  TIP3      H2            -36.4857458475       -7.3587961676      -26.2894853682  TIP3      5093            0.0000000000
     37600      5286  TIP3      OH2            35.6238608553      -14.0096993076      -42.4054783466  TIP3      5094            0.0000000000
     37601      5286  TIP3      H1             36.2681691787      -14.4749627021      -41.8496158318  TIP3      5094            0.0000000000
     37602      5286  TIP3      H2             34.8091372838      -14.4964776590      -42.2527043217  TIP3      5094            0.0000000000
     37603      5287  TIP3      OH2            35.2765793450      -12.5248994509      -37.5708878488  TIP3      5095            0.0000000000
     37604      5287  TIP3      H1             35.5628067827      -13.3905759799      -37.2241868429  TIP3      5095            0.0000000000
     37605      5287  TIP3      H2             36.0757600093      -12.1729946603      -37.9589444583  TIP3      5095            0.0000000000
     37606      5288  TIP3      OH2            35.5286203305      -12.4706495674      -32.0720535982  TIP3      5096            0.0000000000
     37607      5288  TIP3      H1             36.4739753722      -12.3467952563      -32.2466372254  TIP3      5096            0.0000000000
     37608      5288  TIP3      H2             35.5429504752      -11.9663825239      -31.2375170308  TIP3      5096            0.0000000000
     37609      5289  TIP3      OH2            35.9895453538      -11.2141163817      -29.0935896067  TIP3      5097            0.0000000000
     37610      5289  TIP3      H1             35.0847663555      -10.9188602741      -28.9021669336  TIP3      5097            0.0000000000
     37611      5289  TIP3      H2             36.3900703340      -10.4500585005      -29.5384523018  TIP3      5097            0.0000000000
     37612      5290  TIP3      OH2            20.2518950947      -12.6743584880      -25.6223420783  TIP3      5098            0.0000000000
     37613      5290  TIP3      H1             21.1853790320      -12.9560874148      -25.5304732455  TIP3      5098            0.0000000000
     37614      5290  TIP3      H2             19.8008975298      -13.5288050976      -25.4615368900  TIP3      5098            0.0000000000
     37615      5291  TIP3      OH2            35.1642728755      -15.4078984465      -36.8812148014  TIP3      5099            0.0000000000
     37616      5291  TIP3      H1             36.0385862021      -15.6787048199      -36.5520859323  TIP3      5099            0.0000000000
     37617      5291  TIP3      H2             35.1266937825      -15.9477033650      -37.7009080555  TIP3      5099            0.0000000000
     37618      5292  TIP3      OH2            21.4356263292      -14.3908482233      -32.8405123470  TIP3      5100            0.0000000000
     37619      5292  TIP3      H1             21.8865947686      -15.2244990370      -32.5904165171  TIP3      5100            0.0000000000
     37620      5292  TIP3      H2             22.0214752980      -13.7197810047      -32.4665962514  TIP3      5100            0.0000000000
     37621      5293  TIP3      OH2            19.6770352631      -11.3259575632      -31.9189856793  TIP3      5101            0.0000000000
     37622      5293  TIP3      H1             20.3384732989      -11.6726974530      -32.5578012737  TIP3      5101            0.0000000000
     37623      5293  TIP3      H2             20.2262204995      -10.6219698115      -31.5277695266  TIP3      5101            0.0000000000
     37624      5294  TIP3      OH2            20.0950477436      -15.1439861864      -37.7610090217  TIP3      5102            0.0000000000
     37625      5294  TIP3      H1             19.1536400843      -14.9549570869      -37.8747713881  TIP3      5102            0.0000000000
     37626      5294  TIP3      H2             20.5093170671      -14.6454406919      -38.4848528162  TIP3      5102            0.0000000000
     37627      5295  TIP3      OH2            34.7083237917       -0.3195854159      -35.7374480725  TIP3      5103            0.0000000000
     37628      5295  TIP3      H1             35.3570262215       -0.6640580527      -36.3587302704  TIP3      5103            0.0000000000
     37629      5295  TIP3      H2             35.2550171001        0.2538672559      -35.1677957013  TIP3      5103            0.0000000000
     37630      5296  TIP3      OH2            19.8816827792      -16.6371508745      -29.6926723413  TIP3      5104            0.0000000000
     37631      5296  TIP3      H1             19.5575649306      -16.6330823109      -28.7575806115  TIP3      5104            0.0000000000
     37632      5296  TIP3      H2             19.5749212871      -15.7669153817      -29.9726314231  TIP3      5104            0.0000000000
     37633      5297  TIP3      OH2            22.2744071132       -3.2752855733      -25.2634304481  TIP3      5105            0.0000000000
     37634      5297  TIP3      H1             21.4472065838       -3.0509886807      -25.7134784207  TIP3      5105            0.0000000000
     37635      5297  TIP3      H2             21.9983424937       -3.3366146746      -24.3493138674  TIP3      5105            0.0000000000
     37636      5298  TIP3      OH2            25.1731546238       -2.2859872845      -29.0314824043  TIP3      5106            0.0000000000
     37637      5298  TIP3      H1             24.8607025990       -1.4076876498      -29.2835638111  TIP3      5106            0.0000000000
     37638      5298  TIP3      H2             26.1105502363       -2.2030715121      -29.3075070244  TIP3      5106            0.0000000000
     37639      5299  TIP3      OH2            29.5194941460       -0.8668146041      -26.0849863115  TIP3      5107            0.0000000000
     37640      5299  TIP3      H1             29.7108551380       -1.2192660801      -25.2064387895  TIP3      5107            0.0000000000
     37641      5299  TIP3      H2             30.4112941915       -0.5518088123      -26.3631789926  TIP3      5107            0.0000000000
     37642      5300  TIP3      OH2            31.8170169684        0.4086256816      -26.7891338653  TIP3      5108            0.0000000000
     37643      5300  TIP3      H1             32.5607112466       -0.1697703169      -27.0275609856  TIP3      5108            0.0000000000
     37644      5300  TIP3      H2             32.1835307030        0.8494795849      -25.9942401454  TIP3      5108            0.0000000000
     37645      5301  TIP3      OH2            22.6136923285        0.9514737030      -29.0244877655  TIP3      5109            0.0000000000
     37646      5301  TIP3      H1             21.8818224045        1.4531308917      -29.4184378597  TIP3      5109            0.0000000000
     37647      5301  TIP3      H2             22.3058472027        0.7683651829      -28.1262768909  TIP3      5109            0.0000000000
     37648      5302  TIP3      OH2            25.0808295891        0.5301134715      -29.9479983610  TIP3      5110            0.0000000000
     37649      5302  TIP3      H1             24.1892268911        0.6923543269      -29.5566900151  TIP3      5110            0.0000000000
     37650      5302  TIP3      H2             25.0310241358        1.1183011969      -30.7227823240  TIP3      5110            0.0000000000
     37651      5303  TIP3      OH2            29.7909844623        0.4411127616      -30.7805520640  TIP3      5111            0.0000000000
     37652      5303  TIP3      H1             29.3248689771        0.9984987295      -31.4231174272  TIP3      5111            0.0000000000
     37653      5303  TIP3      H2             29.9184290216        1.0727479003      -30.0397893955  TIP3      5111            0.0000000000
     37654      5304  TIP3      OH2            32.0829736256       -0.7626616522      -29.7584144087  TIP3      5112            0.0000000000
     37655      5304  TIP3      H1             31.2253773504       -0.4833457939      -30.1148193889  TIP3      5112            0.0000000000
     37656      5304  TIP3      H2             32.5400823047        0.0934504632      -29.8191494658  TIP3      5112            0.0000000000
     37657      5305  TIP3      OH2            34.6565584091        0.8746967084      -29.5021890375  TIP3      5113            0.0000000000
     37658      5305  TIP3      H1             34.5535494322        1.8129207442      -29.7535374708  TIP3      5113            0.0000000000
     37659      5305  TIP3      H2             34.8984220023        0.4662386807      -30.3555823038  TIP3      5113            0.0000000000
     37660      5306  TIP3      OH2            22.0779868461       -0.3987630506      -32.0772807762  TIP3      5114            0.0000000000
     37661      5306  TIP3      H1             21.9951161351       -0.8532541104      -31.2130123726  TIP3      5114            0.0000000000
     37662      5306  TIP3      H2             22.8918937771       -0.7818343453      -32.4627801333  TIP3      5114            0.0000000000
     37663      5307  TIP3      OH2            24.1480291551       -1.6892341227      -33.4238170934  TIP3      5115            0.0000000000
     37664      5307  TIP3      H1             23.9863988948       -2.6220231266      -33.1853359639  TIP3      5115            0.0000000000
     37665      5307  TIP3      H2             25.0042725853       -1.5298480282      -32.9713569134  TIP3      5115            0.0000000000
     37666      5308  TIP3      OH2            26.7284047719       -1.2115040530      -32.5540873208  TIP3      5116            0.0000000000
     37667      5308  TIP3      H1             26.9079567097       -2.1332176058      -32.8088957644  TIP3      5116            0.0000000000
     37668      5308  TIP3      H2             26.7954400258       -1.2561801339      -31.5872453843  TIP3      5116            0.0000000000
     37669      5309  TIP3      OH2            30.2034135423      -15.5512771843      -33.4187119747  TIP3      5117            0.0000000000
     37670      5309  TIP3      H1             29.5337636904      -16.1926223030      -33.1250440245  TIP3      5117            0.0000000000
     37671      5309  TIP3      H2             30.7639198020      -16.0879403644      -33.9901064060  TIP3      5117            0.0000000000
     37672      5310  TIP3      OH2            35.3594496429      -17.5175410746      -33.3148587334  TIP3      5118            0.0000000000
     37673      5310  TIP3      H1             35.9027279004      -16.8672260202      -33.7728676889  TIP3      5118            0.0000000000
     37674      5310  TIP3      H2             34.4620359241      -17.1791385501      -33.5352311225  TIP3      5118            0.0000000000
     37675      5311  TIP3      OH2            22.5768229091      -16.9298272544      -35.5450222261  TIP3      5119            0.0000000000
     37676      5311  TIP3      H1             21.7852942450      -17.1181096588      -36.0864875242  TIP3      5119            0.0000000000
     37677      5311  TIP3      H2             23.0329159107      -17.7908923313      -35.6143216463  TIP3      5119            0.0000000000
     37678      5312  TIP3      OH2            21.3045941677      -17.1696709815      -39.8484832666  TIP3      5120            0.0000000000
     37679      5312  TIP3      H1             21.8279751375      -16.5332643462      -40.3799954331  TIP3      5120            0.0000000000
     37680      5312  TIP3      H2             20.7804344981      -16.5861628314      -39.2763449139  TIP3      5120            0.0000000000
     37681      5313  TIP3      OH2            27.0396135093      -17.0015002023      -35.7693453115  TIP3      5121            0.0000000000
     37682      5313  TIP3      H1             27.9404663537      -16.6481107772      -35.8521203725  TIP3      5121            0.0000000000
     37683      5313  TIP3      H2             27.0110505961      -17.2205104737      -34.8390736917  TIP3      5121            0.0000000000
     37684      5314  TIP3      OH2            32.8109058596      -17.0160770534      -34.1670421821  TIP3      5122            0.0000000000
     37685      5314  TIP3      H1             32.7255298860      -16.8573919460      -35.1169641046  TIP3      5122            0.0000000000
     37686      5314  TIP3      H2             32.3746593490      -17.8926824603      -34.0334799182  TIP3      5122            0.0000000000
     37687      5315  TIP3      OH2            33.9396240726      -17.0150120802      -38.5745893266  TIP3      5123            0.0000000000
     37688      5315  TIP3      H1             33.2347809157      -16.3567505493      -38.6218659609  TIP3      5123            0.0000000000
     37689      5315  TIP3      H2             33.5039100551      -17.8430269011      -38.2622392917  TIP3      5123            0.0000000000
     37690      5316  TIP3      OH2            21.2664701599       -1.2201949123      -38.8243052829  TIP3      5124            0.0000000000
     37691      5316  TIP3      H1             20.5857326574       -1.2186827854      -39.5242676924  TIP3      5124            0.0000000000
     37692      5316  TIP3      H2             21.2959363586       -0.2653741774      -38.6697445274  TIP3      5124            0.0000000000
     37693      5317  TIP3      OH2            23.1622858605      -15.3231584654      -41.2946230077  TIP3      5125            0.0000000000
     37694      5317  TIP3      H1             23.7159117617      -15.8624462660      -41.8559524266  TIP3      5125            0.0000000000
     37695      5317  TIP3      H2             23.8222979153      -14.8891467713      -40.7235659223  TIP3      5125            0.0000000000
     37696      5318  TIP3      OH2            28.2035045040      -14.9927101682      -38.9214572632  TIP3      5126            0.0000000000
     37697      5318  TIP3      H1             28.4679120968      -15.5670422124      -38.1847139332  TIP3      5126            0.0000000000
     37698      5318  TIP3      H2             28.2830296549      -14.1300717597      -38.4619759976  TIP3      5126            0.0000000000
     37699      5319  TIP3      OH2            30.1189709046        0.3552911068      -40.5018448213  TIP3      5127            0.0000000000
     37700      5319  TIP3      H1             31.0843812815        0.3491814166      -40.6621224732  TIP3      5127            0.0000000000
     37701      5319  TIP3      H2             29.9344917445       -0.4050782673      -41.1043073089  TIP3      5127            0.0000000000
     37702      5320  TIP3      OH2            22.8824737731      -16.6024134681      -26.1689081270  TIP3      5128            0.0000000000
     37703      5320  TIP3      H1             22.1686444139      -17.0729415674      -25.6796634071  TIP3      5128            0.0000000000
     37704      5320  TIP3      H2             23.5763196578      -16.4824186934      -25.5111116383  TIP3      5128            0.0000000000
     37705      5321  TIP3      OH2            24.6203961062      -16.9780299401      -24.3002940962  TIP3      5129            0.0000000000
     37706      5321  TIP3      H1             25.3633250305      -17.3904770369      -24.7590373750  TIP3      5129            0.0000000000
     37707      5321  TIP3      H2             24.0712021586      -17.7545235072      -24.0515648294  TIP3      5129            0.0000000000
     37708      5322  TIP3      OH2            23.0883335545       -0.2402872801      -41.8610358491  TIP3      5130            0.0000000000
     37709      5322  TIP3      H1             22.7843752932        0.0319276547      -40.9872374671  TIP3      5130            0.0000000000
     37710      5322  TIP3      H2             23.8475908686       -0.7926613027      -41.6928944111  TIP3      5130            0.0000000000
     37711      5323  TIP3      OH2            32.8870099201      -17.6839465204      -24.3270461576  TIP3      5131            0.0000000000
     37712      5323  TIP3      H1             32.9813705743      -18.1802964283      -23.5125152763  TIP3      5131            0.0000000000
     37713      5323  TIP3      H2             33.7853523761      -17.7328959178      -24.7265758029  TIP3      5131            0.0000000000
     37714      5324  TIP3      OH2            35.9846971397       -1.7178026203      -25.5967792450  TIP3      5132            0.0000000000
     37715      5324  TIP3      H1             35.2563694799       -1.8406777903      -26.2324313450  TIP3      5132            0.0000000000
     37716      5324  TIP3      H2             35.8868562594       -0.7432314257      -25.4721473521  TIP3      5132            0.0000000000
     37717      5325  TIP3      OH2           -24.8997725760       11.0740747025      -35.7078395464  TIP3      5133            0.0000000000
     37718      5325  TIP3      H1            -24.9197381859       12.0533464244      -35.7409070094  TIP3      5133            0.0000000000
     37719      5325  TIP3      H2            -25.6332062885       10.8383641009      -36.3014862126  TIP3      5133            0.0000000000
     37720      5326  TIP3      OH2           -26.0456962897       10.3158221350      -32.2059269487  TIP3      5134            0.0000000000
     37721      5326  TIP3      H1            -26.0554925955        9.6693297325      -31.4779673896  TIP3      5134            0.0000000000
     37722      5326  TIP3      H2            -26.4050283764        9.8078923548      -32.9513675643  TIP3      5134            0.0000000000
     37723      5327  TIP3      OH2           -33.6578640753        9.9937254352      -30.6797582158  TIP3      5135            0.0000000000
     37724      5327  TIP3      H1            -33.6092826352        9.3062532041      -29.9790101487  TIP3      5135            0.0000000000
     37725      5327  TIP3      H2            -32.9281474594       10.5739942807      -30.4268087776  TIP3      5135            0.0000000000
     37726      5328  TIP3      OH2           -22.3666606520       13.2731430295      -33.9182752204  TIP3      5136            0.0000000000
     37727      5328  TIP3      H1            -22.7833585229       12.5570750101      -33.4286926839  TIP3      5136            0.0000000000
     37728      5328  TIP3      H2            -22.3394619173       13.9792661673      -33.2464066931  TIP3      5136            0.0000000000
     37729      5329  TIP3      OH2           -32.8148350685       14.4564023018      -32.1523237571  TIP3      5137            0.0000000000
     37730      5329  TIP3      H1            -33.1181443220       13.5817842000      -32.4611477121  TIP3      5137            0.0000000000
     37731      5329  TIP3      H2            -31.8576982535       14.2690993802      -32.1042813249  TIP3      5137            0.0000000000
     37732      5330  TIP3      OH2           -35.9214009711        8.0341350999      -36.9281106587  TIP3      5138            0.0000000000
     37733      5330  TIP3      H1            -36.4280838306        8.8233510027      -36.6345351845  TIP3      5138            0.0000000000
     37734      5330  TIP3      H2            -36.6511738335        7.4545177446      -37.0789731333  TIP3      5138            0.0000000000
     37735      5331  TIP3      OH2           -35.4509380289       10.1791082846      -34.5539128105  TIP3      5139            0.0000000000
     37736      5331  TIP3      H1            -35.1705048821        9.4109410712      -34.0369294298  TIP3      5139            0.0000000000
     37737      5331  TIP3      H2            -34.7115015309       10.3195190522      -35.1578033458  TIP3      5139            0.0000000000
     37738      5332  TIP3      OH2           -25.2439749660       18.4344850093      -33.6760282610  TIP3      5140            0.0000000000
     37739      5332  TIP3      H1            -24.5977551289       17.7443030160      -33.9646651954  TIP3      5140            0.0000000000
     37740      5332  TIP3      H2            -25.4638786517       18.1001421215      -32.8060620817  TIP3      5140            0.0000000000
     37741      5333  TIP3      OH2           -27.6751458185       12.7188162101      -31.7237505012  TIP3      5141            0.0000000000
     37742      5333  TIP3      H1            -27.3388867707       12.0961308379      -32.3858809509  TIP3      5141            0.0000000000
     37743      5333  TIP3      H2            -26.8617042154       12.8792412969      -31.2139304615  TIP3      5141            0.0000000000
     37744      5334  TIP3      OH2           -19.0715286967        4.3930492044      -31.0222867945  TIP3      5142            0.0000000000
     37745      5334  TIP3      H1            -18.9091021028        4.9723635336      -30.2462359535  TIP3      5142            0.0000000000
     37746      5334  TIP3      H2            -18.4969178408        4.8181660437      -31.6720650960  TIP3      5142            0.0000000000
     37747      5335  TIP3      OH2           -24.5147335242        7.1933991081      -31.4147079851  TIP3      5143            0.0000000000
     37748      5335  TIP3      H1            -24.3350305444        6.2367882423      -31.4023367611  TIP3      5143            0.0000000000
     37749      5335  TIP3      H2            -24.6113180697        7.3284509869      -32.3766668776  TIP3      5143            0.0000000000
     37750      5336  TIP3      OH2           -31.3825990255        5.2763698479      -34.1995370032  TIP3      5144            0.0000000000
     37751      5336  TIP3      H1            -31.2821607998        6.1107037694      -34.6946680412  TIP3      5144            0.0000000000
     37752      5336  TIP3      H2            -31.7853395152        4.7063005634      -34.8898832777  TIP3      5144            0.0000000000
     37753      5337  TIP3      OH2           -23.6546423278        5.3577588878      -35.8295346637  TIP3      5145            0.0000000000
     37754      5337  TIP3      H1            -23.0055101811        5.0445231160      -35.1586856291  TIP3      5145            0.0000000000
     37755      5337  TIP3      H2            -23.0919712100        5.9346222073      -36.3715395868  TIP3      5145            0.0000000000
     37756      5338  TIP3      OH2           -34.7508254099        7.6600577920      -33.5469249216  TIP3      5146            0.0000000000
     37757      5338  TIP3      H1            -34.0778310287        7.1678605579      -33.0336820219  TIP3      5146            0.0000000000
     37758      5338  TIP3      H2            -34.5913798524        7.3284508473      -34.4413390516  TIP3      5146            0.0000000000
     37759      5339  TIP3      OH2           -29.6228297546        9.2451675146      -34.1427372505  TIP3      5147            0.0000000000
     37760      5339  TIP3      H1            -28.9422362041        8.6670124754      -33.7555282001  TIP3      5147            0.0000000000
     37761      5339  TIP3      H2            -30.1267195985        8.5901598753      -34.6631785414  TIP3      5147            0.0000000000
     37762      5340  TIP3      OH2           -18.4946288507        5.8567614851      -28.7572385333  TIP3      5148            0.0000000000
     37763      5340  TIP3      H1            -19.2640732422        6.4739979780      -28.8546230319  TIP3      5148            0.0000000000
     37764      5340  TIP3      H2            -18.6174863275        5.6857699761      -27.8141050406  TIP3      5148            0.0000000000
     37765      5341  TIP3      OH2           -32.4787672504        4.1831779498      -30.1652758728  TIP3      5149            0.0000000000
     37766      5341  TIP3      H1            -32.7553957053        4.7512371337      -30.9160022746  TIP3      5149            0.0000000000
     37767      5341  TIP3      H2            -33.1721673514        4.4107311410      -29.4971999031  TIP3      5149            0.0000000000
     37768      5342  TIP3      OH2           -25.2042656185       13.6506415242      -36.6140126425  TIP3      5150            0.0000000000
     37769      5342  TIP3      H1            -25.4766601502       13.3842530701      -37.5073936934  TIP3      5150            0.0000000000
     37770      5342  TIP3      H2            -25.5037917089       14.5872680750      -36.5677736150  TIP3      5150            0.0000000000
     37771      5343  TIP3      OH2           -29.9539473919       11.8211785220      -29.9246309271  TIP3      5151            0.0000000000
     37772      5343  TIP3      H1            -30.6771322223       12.4484390922      -29.6963913938  TIP3      5151            0.0000000000
     37773      5343  TIP3      H2            -29.2592519172       12.4302471739      -30.2166535376  TIP3      5151            0.0000000000
     37774      5344  TIP3      OH2           -21.8459768854        4.7089460850      -33.8232306718  TIP3      5152            0.0000000000
     37775      5344  TIP3      H1            -22.0625307780        3.9439585316      -33.2840387247  TIP3      5152            0.0000000000
     37776      5344  TIP3      H2            -21.1715443430        5.1455223413      -33.2750737820  TIP3      5152            0.0000000000
     37777      5345  TIP3      OH2           -32.9294656789        5.9974781469      -32.1254681115  TIP3      5153            0.0000000000
     37778      5345  TIP3      H1            -32.3347266469        6.7109987964      -31.8022886773  TIP3      5153            0.0000000000
     37779      5345  TIP3      H2            -32.3820348598        5.6274003649      -32.8642346146  TIP3      5153            0.0000000000
     37780      5346  TIP3      OH2           -31.5369892106       13.8258426479      -29.1252235995  TIP3      5154            0.0000000000
     37781      5346  TIP3      H1            -31.5898204485       14.7438850565      -29.4454827951  TIP3      5154            0.0000000000
     37782      5346  TIP3      H2            -32.4152557387       13.7475790796      -28.6833564155  TIP3      5154            0.0000000000
     37783      5347  TIP3      OH2           -35.4430594347       13.5015309442      -38.3421557461  TIP3      5155            0.0000000000
     37784      5347  TIP3      H1            -35.6534976848       13.7997138173      -39.2438625734  TIP3      5155            0.0000000000
     37785      5347  TIP3      H2            -35.3734230429       14.3056820503      -37.7896381916  TIP3      5155            0.0000000000
     37786      5348  TIP3      OH2           -21.8351686359       15.1111570892      -31.5475314529  TIP3      5156            0.0000000000
     37787      5348  TIP3      H1            -22.8040182362       15.2207420376      -31.4298253096  TIP3      5156            0.0000000000
     37788      5348  TIP3      H2            -21.5680029684       16.0254788591      -31.7559197451  TIP3      5156            0.0000000000
     37789      5349  TIP3      OH2           -21.5421726452        3.3808390372      -30.2264462406  TIP3      5157            0.0000000000
     37790      5349  TIP3      H1            -22.2379494156        4.0487646917      -30.2494901552  TIP3      5157            0.0000000000
     37791      5349  TIP3      H2            -20.7950140499        3.8320912121      -30.6639561809  TIP3      5157            0.0000000000
     37792      5350  TIP3      OH2           -28.5491081838        1.5169559932      -32.6977539265  TIP3      5158            0.0000000000
     37793      5350  TIP3      H1            -28.6929518069        0.5533364306      -32.7740238686  TIP3      5158            0.0000000000
     37794      5350  TIP3      H2            -29.4274584153        1.8207362069      -32.3883472259  TIP3      5158            0.0000000000
     37795      5351  TIP3      OH2           -23.5753851700       16.8937314638      -34.9647431859  TIP3      5159            0.0000000000
     37796      5351  TIP3      H1            -23.1494722365       16.1730020072      -35.4725897954  TIP3      5159            0.0000000000
     37797      5351  TIP3      H2            -23.1286403047       17.6804287673      -35.3434468650  TIP3      5159            0.0000000000
     37798      5352  TIP3      OH2           -22.3591767674       14.8182473632      -36.4519633203  TIP3      5160            0.0000000000
     37799      5352  TIP3      H1            -22.6592302423       14.1290784712      -37.0694631132  TIP3      5160            0.0000000000
     37800      5352  TIP3      H2            -22.3325920700       14.3250480434      -35.6109003338  TIP3      5160            0.0000000000
     37801      5353  TIP3      OH2           -20.7324167255       13.4264976608      -27.9438917818  TIP3      5161            0.0000000000
     37802      5353  TIP3      H1            -20.6026702647       12.7595213591      -28.6552076451  TIP3      5161            0.0000000000
     37803      5353  TIP3      H2            -20.5415888302       14.2621071322      -28.4074001606  TIP3      5161            0.0000000000
     37804      5354  TIP3      OH2           -26.2609992095       10.3119883765      -38.2046739011  TIP3      5162            0.0000000000
     37805      5354  TIP3      H1            -26.9435165849       10.8935980514      -38.5961654713  TIP3      5162            0.0000000000
     37806      5354  TIP3      H2            -25.5431175447       10.3974253385      -38.8584961069  TIP3      5162            0.0000000000
     37807      5355  TIP3      OH2           -26.2129893944        8.8459912112      -41.1102701988  TIP3      5163            0.0000000000
     37808      5355  TIP3      H1            -25.4818109057        8.8464642362      -40.4704305750  TIP3      5163            0.0000000000
     37809      5355  TIP3      H2            -25.8770803040        8.2042352337      -41.7399347583  TIP3      5163            0.0000000000
     37810      5356  TIP3      OH2           -18.8443474136        9.7351545978      -29.9017203938  TIP3      5164            0.0000000000
     37811      5356  TIP3      H1            -19.5204588020       10.4398425183      -29.8648376918  TIP3      5164            0.0000000000
     37812      5356  TIP3      H2            -18.3698584485        9.9569164901      -30.7186495656  TIP3      5164            0.0000000000
     37813      5357  TIP3      OH2           -22.7978246368       10.5211538583      -37.2531675426  TIP3      5165            0.0000000000
     37814      5357  TIP3      H1            -23.5438491135       10.7597785774      -36.6504428835  TIP3      5165            0.0000000000
     37815      5357  TIP3      H2            -22.3267138021        9.8432436296      -36.7332228406  TIP3      5165            0.0000000000
     37816      5358  TIP3      OH2           -22.8903466867        8.6957312814      -28.1444531881  TIP3      5166            0.0000000000
     37817      5358  TIP3      H1            -22.8586888311        9.5088422123      -27.6182535935  TIP3      5166            0.0000000000
     37818      5358  TIP3      H2            -23.5039397294        8.9893712113      -28.8430688522  TIP3      5166            0.0000000000
     37819      5359  TIP3      OH2           -31.1692154430       11.1819074359      -35.3461775747  TIP3      5167            0.0000000000
     37820      5359  TIP3      H1            -31.5241418680       10.7802881889      -36.1746636114  TIP3      5167            0.0000000000
     37821      5359  TIP3      H2            -30.5666249161       10.4807351252      -35.0126136893  TIP3      5167            0.0000000000
     37822      5360  TIP3      OH2           -29.8725975593       14.5535897236      -32.6695718891  TIP3      5168            0.0000000000
     37823      5360  TIP3      H1            -29.8734186809       14.0342003467      -33.4825718116  TIP3      5168            0.0000000000
     37824      5360  TIP3      H2            -29.0866914241       14.2027411329      -32.2116089315  TIP3      5168            0.0000000000
     37825      5361  TIP3      OH2           -30.8503508571        9.9250729644      -31.6834050616  TIP3      5169            0.0000000000
     37826      5361  TIP3      H1            -30.3057718521       10.0212964982      -32.4892102396  TIP3      5169            0.0000000000
     37827      5361  TIP3      H2            -30.4715272414       10.5976084545      -31.0751913060  TIP3      5169            0.0000000000
     37828      5362  TIP3      OH2           -24.4337136140       15.4956282629      -30.9756314139  TIP3      5170            0.0000000000
     37829      5362  TIP3      H1            -24.7308626565       16.1339303819      -30.3209343747  TIP3      5170            0.0000000000
     37830      5362  TIP3      H2            -24.7016887914       14.6422969200      -30.5587595239  TIP3      5170            0.0000000000
     37831      5363  TIP3      OH2           -29.9001441000       14.3324160568      -26.9826822864  TIP3      5171            0.0000000000
     37832      5363  TIP3      H1            -30.3081406745       15.0794988327      -26.4980919563  TIP3      5171            0.0000000000
     37833      5363  TIP3      H2            -30.5782465005       14.1453998608      -27.6775253382  TIP3      5171            0.0000000000
     37834      5364  TIP3      OH2           -23.9172133703        9.7085355343      -39.5979180218  TIP3      5172            0.0000000000
     37835      5364  TIP3      H1            -23.3801074118        9.9035882990      -38.7905550068  TIP3      5172            0.0000000000
     37836      5364  TIP3      H2            -23.5074300813       10.2546140493      -40.2943636955  TIP3      5172            0.0000000000
     37837      5365  TIP3      OH2           -32.9287374631       10.5372558541      -27.7468026804  TIP3      5173            0.0000000000
     37838      5365  TIP3      H1            -32.9383519923       11.1943023886      -27.0193563012  TIP3      5173            0.0000000000
     37839      5365  TIP3      H2            -33.8504168919       10.6032379678      -28.0739780218  TIP3      5173            0.0000000000
     37840      5366  TIP3      OH2           -26.2193914428       16.4332404507      -36.1120294934  TIP3      5174            0.0000000000
     37841      5366  TIP3      H1            -25.7813359556       16.7527882683      -35.3160296687  TIP3      5174            0.0000000000
     37842      5366  TIP3      H2            -26.7652530394       17.1833328716      -36.3788937976  TIP3      5174            0.0000000000
     37843      5367  TIP3      OH2           -31.6662585340       16.3719676449      -26.2564606667  TIP3      5175            0.0000000000
     37844      5367  TIP3      H1            -31.7565964701       16.2822229878      -27.2220374927  TIP3      5175            0.0000000000
     37845      5367  TIP3      H2            -32.5935058255       16.2640200713      -25.9554363392  TIP3      5175            0.0000000000
     37846      5368  TIP3      OH2           -20.1765337305        1.4547334187      -39.6171306619  TIP3      5176            0.0000000000
     37847      5368  TIP3      H1            -21.1573041282        1.5401804669      -39.5187258646  TIP3      5176            0.0000000000
     37848      5368  TIP3      H2            -20.0322676285        2.2566452725      -40.1519692699  TIP3      5176            0.0000000000
     37849      5369  TIP3      OH2           -32.1968627764       10.1945959394      -37.7611947366  TIP3      5177            0.0000000000
     37850      5369  TIP3      H1            -32.4872171996       10.9770327401      -38.2644914151  TIP3      5177            0.0000000000
     37851      5369  TIP3      H2            -32.8742942946        9.5438298909      -37.9715460307  TIP3      5177            0.0000000000
     37852      5370  TIP3      OH2           -19.0940338830       15.7641843259      -41.3417555916  TIP3      5178            0.0000000000
     37853      5370  TIP3      H1            -18.9985311653       16.7283715840      -41.2083571066  TIP3      5178            0.0000000000
     37854      5370  TIP3      H2            -18.1551878413       15.5299886187      -41.3768297968  TIP3      5178            0.0000000000
     37855      5371  TIP3      OH2           -35.6987824840       12.5403379475      -29.0435471726  TIP3      5179            0.0000000000
     37856      5371  TIP3      H1            -36.4304439839       12.5917989527      -29.6826400368  TIP3      5179            0.0000000000
     37857      5371  TIP3      H2            -35.9594900572       11.6866916164      -28.6528528488  TIP3      5179            0.0000000000
     37858      5372  TIP3      OH2           -36.2012904141       15.5265775048      -32.2517224608  TIP3      5180            0.0000000000
     37859      5372  TIP3      H1            -35.3197642010       15.1957259052      -32.0446964503  TIP3      5180            0.0000000000
     37860      5372  TIP3      H2            -36.3894617649       16.1035609526      -31.5043983460  TIP3      5180            0.0000000000
     37861      5373  TIP3      OH2           -18.1345400897       16.0660850312      -26.3556257728  TIP3      5181            0.0000000000
     37862      5373  TIP3      H1            -18.2425840040       15.1057891913      -26.3905086160  TIP3      5181            0.0000000000
     37863      5373  TIP3      H2            -19.0081795722       16.3202891185      -25.9745394365  TIP3      5181            0.0000000000
     37864      5374  TIP3      OH2           -27.1728849910       15.5835272724      -27.4910664880  TIP3      5182            0.0000000000
     37865      5374  TIP3      H1            -27.1177240537       16.4338638330      -26.9918086920  TIP3      5182            0.0000000000
     37866      5374  TIP3      H2            -28.0662738781       15.2620174227      -27.2750397258  TIP3      5182            0.0000000000
     37867      5375  TIP3      OH2           -26.7413293752       19.3429173445      -37.7185509351  TIP3      5183            0.0000000000
     37868      5375  TIP3      H1            -26.8155334802       19.2915686027      -38.6877360573  TIP3      5183            0.0000000000
     37869      5375  TIP3      H2            -26.7030729344       20.3045310983      -37.5487624306  TIP3      5183            0.0000000000
     37870      5376  TIP3      OH2           -33.0904218705       18.2309511057      -35.8999703503  TIP3      5184            0.0000000000
     37871      5376  TIP3      H1            -32.9508174701       17.8040219498      -35.0299592658  TIP3      5184            0.0000000000
     37872      5376  TIP3      H2            -33.9199549009       17.8037340014      -36.1594012956  TIP3      5184            0.0000000000
     37873      5377  TIP3      OH2           -23.7120142227       18.5510648871      -40.7544705287  TIP3      5185            0.0000000000
     37874      5377  TIP3      H1            -23.2296930350       17.7964028705      -41.1605914269  TIP3      5185            0.0000000000
     37875      5377  TIP3      H2            -23.6311246539       18.3203505233      -39.8095878058  TIP3      5185            0.0000000000
     37876      5378  TIP3      OH2           -23.9882606343       18.5020877859      -37.9466029205  TIP3      5186            0.0000000000
     37877      5378  TIP3      H1            -24.9485849253       18.5660577586      -37.7640068375  TIP3      5186            0.0000000000
     37878      5378  TIP3      H2            -23.7426685456       17.7550600389      -37.3819232695  TIP3      5186            0.0000000000
     37879      5379  TIP3      OH2           -21.0155079195        7.5787902104      -25.9188688867  TIP3      5187            0.0000000000
     37880      5379  TIP3      H1            -21.4539809173        7.9869664814      -26.6697626483  TIP3      5187            0.0000000000
     37881      5379  TIP3      H2            -20.9586598341        6.6591868281      -26.2426791582  TIP3      5187            0.0000000000
     37882      5380  TIP3      OH2           -33.8333399917       14.0046472589      -27.8745114446  TIP3      5188            0.0000000000
     37883      5380  TIP3      H1            -33.6677496480       13.5836145955      -27.0064761713  TIP3      5188            0.0000000000
     37884      5380  TIP3      H2            -34.6754506310       13.5734458073      -28.1602444632  TIP3      5188            0.0000000000
     37885      5381  TIP3      OH2           -31.1495425001        2.4337314954      -31.9577154389  TIP3      5189            0.0000000000
     37886      5381  TIP3      H1            -32.0517014707        2.3044497762      -32.3193537658  TIP3      5189            0.0000000000
     37887      5381  TIP3      H2            -31.2955547248        3.2515782514      -31.4558794961  TIP3      5189            0.0000000000
     37888      5382  TIP3      OH2           -26.5292742483        2.0879505121      -28.5615114285  TIP3      5190            0.0000000000
     37889      5382  TIP3      H1            -26.1262149365        1.6696139369      -27.7817226114  TIP3      5190            0.0000000000
     37890      5382  TIP3      H2            -27.5011241158        1.9715180491      -28.4260158015  TIP3      5190            0.0000000000
     37891      5383  TIP3      OH2           -23.5298811769        5.9323171320      -27.7945659969  TIP3      5191            0.0000000000
     37892      5383  TIP3      H1            -23.8036122983        5.7619025600      -26.8716636025  TIP3      5191            0.0000000000
     37893      5383  TIP3      H2            -23.3560896917        6.8831116252      -27.8617800470  TIP3      5191            0.0000000000
     37894      5384  TIP3      OH2           -22.3998708926       10.8002212881      -41.7541451052  TIP3      5192            0.0000000000
     37895      5384  TIP3      H1            -22.4170114027       10.6128540930      -42.7082636214  TIP3      5192            0.0000000000
     37896      5384  TIP3      H2            -21.5540253600       11.2450464062      -41.6332789998  TIP3      5192            0.0000000000
     37897      5385  TIP3      OH2           -26.9136873261        4.6810687495      -41.2430535807  TIP3      5193            0.0000000000
     37898      5385  TIP3      H1            -27.1849984402        4.6016418912      -40.3135230191  TIP3      5193            0.0000000000
     37899      5385  TIP3      H2            -27.1191823147        3.7814272840      -41.5293376632  TIP3      5193            0.0000000000
     37900      5386  TIP3      OH2           -31.0556326174        7.3938112896      -30.6848213856  TIP3      5194            0.0000000000
     37901      5386  TIP3      H1            -31.7940437470        7.3796173323      -30.0464028771  TIP3      5194            0.0000000000
     37902      5386  TIP3      H2            -31.1248803267        8.3027073201      -31.0551344525  TIP3      5194            0.0000000000
     37903      5387  TIP3      OH2           -31.0884280048        7.5012184399      -35.8220538022  TIP3      5195            0.0000000000
     37904      5387  TIP3      H1            -32.0300362543        7.2591744186      -35.9571705314  TIP3      5195            0.0000000000
     37905      5387  TIP3      H2            -30.7131471026        7.2179632914      -36.6797368670  TIP3      5195            0.0000000000
     37906      5388  TIP3      OH2           -25.5730955759        8.0024417257      -37.0791761923  TIP3      5196            0.0000000000
     37907      5388  TIP3      H1            -25.9790491438        8.8369964342      -37.4060586266  TIP3      5196            0.0000000000
     37908      5388  TIP3      H2            -24.8870890807        7.8467726439      -37.7567351537  TIP3      5196            0.0000000000
     37909      5389  TIP3      OH2           -26.5110137179        8.2670267439      -25.5978811445  TIP3      5197            0.0000000000
     37910      5389  TIP3      H1            -27.0482323793        7.4724162509      -25.3481240475  TIP3      5197            0.0000000000
     37911      5389  TIP3      H2            -25.6578509371        8.0528262410      -25.2063679927  TIP3      5197            0.0000000000
     37912      5390  TIP3      OH2           -24.5393188807        7.5021540265      -34.2055909360  TIP3      5198            0.0000000000
     37913      5390  TIP3      H1            -24.8298736280        8.0640066012      -34.9447160654  TIP3      5198            0.0000000000
     37914      5390  TIP3      H2            -24.4516295503        6.6526432000      -34.6777203741  TIP3      5198            0.0000000000
     37915      5391  TIP3      OH2           -33.4213258051        7.6283784799      -29.0060855819  TIP3      5199            0.0000000000
     37916      5391  TIP3      H1            -33.3802539306        8.0463530173      -28.1291572152  TIP3      5199            0.0000000000
     37917      5391  TIP3      H2            -33.8910674455        6.8015695536      -28.8068418569  TIP3      5199            0.0000000000
     37918      5392  TIP3      OH2           -29.8917521869        5.2546033035      -41.8556823604  TIP3      5200            0.0000000000
     37919      5392  TIP3      H1            -30.4281935356        4.6421279726      -41.3088178976  TIP3      5200            0.0000000000
     37920      5392  TIP3      H2            -30.5227617182        5.6344155425      -42.4641853401  TIP3      5200            0.0000000000
     37921      5393  TIP3      OH2           -36.4895548796        4.9861786460      -35.1618690583  TIP3      5201            0.0000000000
     37922      5393  TIP3      H1            -36.0878555823        4.6827029443      -34.3205117954  TIP3      5201            0.0000000000
     37923      5393  TIP3      H2            -36.2557766684        4.3006746390      -35.7897001844  TIP3      5201            0.0000000000
     37924      5394  TIP3      OH2           -35.4795475805        5.5815998211      -39.6926765351  TIP3      5202            0.0000000000
     37925      5394  TIP3      H1            -34.9475974497        6.1329033821      -40.3023163715  TIP3      5202            0.0000000000
     37926      5394  TIP3      H2            -36.1939815114        6.1715922523      -39.4441173357  TIP3      5202            0.0000000000
     37927      5395  TIP3      OH2           -25.3867556280        9.0895125468      -29.6717704487  TIP3      5203            0.0000000000
     37928      5395  TIP3      H1            -24.9609039654        8.4036758524      -30.2314511923  TIP3      5203            0.0000000000
     37929      5395  TIP3      H2            -25.8031426353        8.5437809926      -28.9840310308  TIP3      5203            0.0000000000
     37930      5396  TIP3      OH2           -28.5405116888        5.0682358899      -34.8201807162  TIP3      5204            0.0000000000
     37931      5396  TIP3      H1            -29.4764235642        5.0657627831      -34.5334203288  TIP3      5204            0.0000000000
     37932      5396  TIP3      H2            -28.0616878410        4.8918904961      -33.9963390180  TIP3      5204            0.0000000000
     37933      5397  TIP3      OH2           -33.6567445104        6.6135312447      -35.9923052011  TIP3      5205            0.0000000000
     37934      5397  TIP3      H1            -34.5574797019        6.7737513162      -36.3427093534  TIP3      5205            0.0000000000
     37935      5397  TIP3      H2            -33.4434400197        5.7439720375      -36.3871260499  TIP3      5205            0.0000000000
     37936      5398  TIP3      OH2           -30.1060639652        6.6768713846      -38.3263519146  TIP3      5206            0.0000000000
     37937      5398  TIP3      H1            -29.1468311596        6.7757552010      -38.1602062400  TIP3      5206            0.0000000000
     37938      5398  TIP3      H2            -30.3296643366        7.3290360503      -39.0131823053  TIP3      5206            0.0000000000
     37939      5399  TIP3      OH2           -24.1427616067        4.3025132668      -31.5875844304  TIP3      5207            0.0000000000
     37940      5399  TIP3      H1            -24.8126201438        4.3508263692      -30.8678251296  TIP3      5207            0.0000000000
     37941      5399  TIP3      H2            -24.6585053291        4.0383428446      -32.3631401097  TIP3      5207            0.0000000000
     37942      5400  TIP3      OH2           -31.3666384066        7.8272622633      -40.7316068666  TIP3      5208            0.0000000000
     37943      5400  TIP3      H1            -31.9329555617        7.4914955099      -41.4481882802  TIP3      5208            0.0000000000
     37944      5400  TIP3      H2            -30.5563286761        8.0524377554      -41.2052222981  TIP3      5208            0.0000000000
     37945      5401  TIP3      OH2           -20.8980224558       19.8939676932      -25.2633630941  TIP3      5209            0.0000000000
     37946      5401  TIP3      H1            -20.6580348959       20.3183941927      -26.0999234873  TIP3      5209            0.0000000000
     37947      5401  TIP3      H2            -20.2574918310       20.2857762563      -24.6623748197  TIP3      5209            0.0000000000
     37948      5402  TIP3      OH2           -33.2504887475       12.4222479527      -25.7009494433  TIP3      5210            0.0000000000
     37949      5402  TIP3      H1            -32.5357249743       12.6509794459      -25.0787247661  TIP3      5210            0.0000000000
     37950      5402  TIP3      H2            -34.0101951439       12.5182574233      -25.0850453366  TIP3      5210            0.0000000000
     37951      5403  TIP3      OH2           -27.2723496378        7.8162180102      -32.9300209771  TIP3      5211            0.0000000000
     37952      5403  TIP3      H1            -26.6649169762        7.2880161976      -33.4612821926  TIP3      5211            0.0000000000
     37953      5403  TIP3      H2            -27.4083810934        7.2681839398      -32.1438116009  TIP3      5211            0.0000000000
     37954      5404  TIP3      OH2           -32.2623150864        3.9671755365      -36.4917539002  TIP3      5212            0.0000000000
     37955      5404  TIP3      H1            -32.5773043155        3.0458946779      -36.5112236571  TIP3      5212            0.0000000000
     37956      5404  TIP3      H2            -31.4657592541        3.8897097486      -37.0372947131  TIP3      5212            0.0000000000
     37957      5405  TIP3      OH2           -28.6438359627        6.1390544141      -30.5180377340  TIP3      5213            0.0000000000
     37958      5405  TIP3      H1            -29.4600305502        6.6692277415      -30.4293713595  TIP3      5213            0.0000000000
     37959      5405  TIP3      H2            -28.0767078742        6.4919554577      -29.8057287220  TIP3      5213            0.0000000000
     37960      5406  TIP3      OH2           -28.0307885263       12.3419311726      -38.7858712036  TIP3      5214            0.0000000000
     37961      5406  TIP3      H1            -28.8363900559       11.8973713198      -39.1319031736  TIP3      5214            0.0000000000
     37962      5406  TIP3      H2            -28.2656667244       12.4811035489      -37.8482210665  TIP3      5214            0.0000000000
     37963      5407  TIP3      OH2           -20.8476492559       11.5748950850      -30.0228880423  TIP3      5215            0.0000000000
     37964      5407  TIP3      H1            -20.2863679031       12.0589583968      -30.6552424095  TIP3      5215            0.0000000000
     37965      5407  TIP3      H2            -21.7091490930       11.6144702503      -30.4840579393  TIP3      5215            0.0000000000
     37966      5408  TIP3      OH2           -24.2040859926        5.1723112132      -40.5648903098  TIP3      5216            0.0000000000
     37967      5408  TIP3      H1            -25.1201744155        5.3250362395      -40.8220584129  TIP3      5216            0.0000000000
     37968      5408  TIP3      H2            -23.8604890041        6.0445964345      -40.3311839104  TIP3      5216            0.0000000000
     37969      5409  TIP3      OH2           -26.5511560410       12.6356223749      -27.5884323700  TIP3      5217            0.0000000000
     37970      5409  TIP3      H1            -26.9236702285       12.2165481143      -26.8115177985  TIP3      5217            0.0000000000
     37971      5409  TIP3      H2            -26.8022912683       13.5610425460      -27.4798149525  TIP3      5217            0.0000000000
     37972      5410  TIP3      OH2           -23.4721677301        7.1456652734      -38.9444154509  TIP3      5218            0.0000000000
     37973      5410  TIP3      H1            -22.5694582395        6.9556589383      -38.6190049923  TIP3      5218            0.0000000000
     37974      5410  TIP3      H2            -23.3675090253        7.9317789556      -39.5003060999  TIP3      5218            0.0000000000
     37975      5411  TIP3      OH2           -32.9044439127       11.7805058572      -33.0301517639  TIP3      5219            0.0000000000
     37976      5411  TIP3      H1            -32.2418924697       11.6753422606      -33.7286747704  TIP3      5219            0.0000000000
     37977      5411  TIP3      H2            -32.8617451259       10.9276110167      -32.5633966249  TIP3      5219            0.0000000000
     37978      5412  TIP3      OH2           -25.9409951483       13.8326976420      -39.7423179775  TIP3      5220            0.0000000000
     37979      5412  TIP3      H1            -26.3126489982       14.6809521905      -39.4210889824  TIP3      5220            0.0000000000
     37980      5412  TIP3      H2            -26.6780378187       13.2038982935      -39.5724140990  TIP3      5220            0.0000000000
     37981      5413  TIP3      OH2           -35.6920606571        9.9408481134      -28.0151580509  TIP3      5221            0.0000000000
     37982      5413  TIP3      H1            -35.5983464081        9.7192514253      -27.0738825541  TIP3      5221            0.0000000000
     37983      5413  TIP3      H2            -36.5440299110        9.5338525831      -28.2234710771  TIP3      5221            0.0000000000
     37984      5414  TIP3      OH2           -28.8778097111        9.7518657383      -25.6110853076  TIP3      5222            0.0000000000
     37985      5414  TIP3      H1            -29.2518562852        9.4150297838      -26.4443083762  TIP3      5222            0.0000000000
     37986      5414  TIP3      H2            -27.9754986371        9.3908324249      -25.6315066305  TIP3      5222            0.0000000000
     37987      5415  TIP3      OH2           -24.2311854727       15.0314829634      -27.5848908831  TIP3      5223            0.0000000000
     37988      5415  TIP3      H1            -25.1423914966       15.2406455431      -27.8517013935  TIP3      5223            0.0000000000
     37989      5415  TIP3      H2            -24.2698193552       15.3692175088      -26.6706906330  TIP3      5223            0.0000000000
     37990      5416  TIP3      OH2           -18.5752856985        7.2204512924      -39.2287626496  TIP3      5224            0.0000000000
     37991      5416  TIP3      H1            -19.1515443701        6.9099770413      -39.9525480306  TIP3      5224            0.0000000000
     37992      5416  TIP3      H2            -18.5093699119        8.1618249627      -39.4894174962  TIP3      5224            0.0000000000
     37993      5417  TIP3      OH2           -18.5930390589       13.0868237711      -26.4021272204  TIP3      5225            0.0000000000
     37994      5417  TIP3      H1            -19.4645412059       13.3146340660      -26.8028684785  TIP3      5225            0.0000000000
     37995      5417  TIP3      H2            -18.0259171882       13.0363238651      -27.1993984208  TIP3      5225            0.0000000000
     37996      5418  TIP3      OH2           -20.2767792342       16.0672189307      -38.8432254725  TIP3      5226            0.0000000000
     37997      5418  TIP3      H1            -20.6506395924       15.2373156699      -38.5175234528  TIP3      5226            0.0000000000
     37998      5418  TIP3      H2            -19.9839359490       15.8749628181      -39.7516872177  TIP3      5226            0.0000000000
     37999      5419  TIP3      OH2           -23.0736221511       10.8846436476      -31.7293524057  TIP3      5227            0.0000000000
     38000      5419  TIP3      H1            -24.0146505582       10.6768158527      -31.8431692398  TIP3      5227            0.0000000000
     38001      5419  TIP3      H2            -22.6417292542       10.1281722166      -32.1715230601  TIP3      5227            0.0000000000
     38002      5420  TIP3      OH2           -30.5642113253       15.2217356285      -35.6180850904  TIP3      5228            0.0000000000
     38003      5420  TIP3      H1            -30.0581944326       16.0214640689      -35.8336095553  TIP3      5228            0.0000000000
     38004      5420  TIP3      H2            -31.4367578779       15.4515473618      -35.9640472654  TIP3      5228            0.0000000000
     38005      5421  TIP3      OH2           -34.9246931916       10.0243215978      -41.0251164262  TIP3      5229            0.0000000000
     38006      5421  TIP3      H1            -34.2401554262       10.6582385978      -40.7204994688  TIP3      5229            0.0000000000
     38007      5421  TIP3      H2            -35.7403421954       10.4055724999      -40.7133177192  TIP3      5229            0.0000000000
     38008      5422  TIP3      OH2           -29.1381166134       12.8817548205      -36.1106278625  TIP3      5230            0.0000000000
     38009      5422  TIP3      H1            -29.4580434910       13.8005457371      -36.0304617574  TIP3      5230            0.0000000000
     38010      5422  TIP3      H2            -29.8548921192       12.3867302886      -35.6668752225  TIP3      5230            0.0000000000
     38011      5423  TIP3      OH2           -28.6791066581       17.0706284375      -29.7028130531  TIP3      5231            0.0000000000
     38012      5423  TIP3      H1            -28.2265878269       17.8812750812      -29.9848240231  TIP3      5231            0.0000000000
     38013      5423  TIP3      H2            -28.0674462132       16.7271259294      -29.0279245077  TIP3      5231            0.0000000000
     38014      5424  TIP3      OH2           -30.4589683647       17.8721563164      -36.5930376052  TIP3      5232            0.0000000000
     38015      5424  TIP3      H1            -31.4197366549       18.0108615588      -36.4420924664  TIP3      5232            0.0000000000
     38016      5424  TIP3      H2            -30.0979705737       18.7076507248      -36.2396058388  TIP3      5232            0.0000000000
     38017      5425  TIP3      OH2           -25.1727996189       13.0625994816      -30.1009147127  TIP3      5233            0.0000000000
     38018      5425  TIP3      H1            -25.4902417895       12.8791301486      -29.1906133438  TIP3      5233            0.0000000000
     38019      5425  TIP3      H2            -24.5286795339       12.3514740242      -30.2497727539  TIP3      5233            0.0000000000
     38020      5426  TIP3      OH2           -22.8763025203       14.0949908472      -40.9578246074  TIP3      5234            0.0000000000
     38021      5426  TIP3      H1            -22.5723407267       13.6531372572      -40.1410912089  TIP3      5234            0.0000000000
     38022      5426  TIP3      H2            -23.8329228774       13.9398053909      -40.8909257544  TIP3      5234            0.0000000000
     38023      5427  TIP3      OH2           -22.3511179503       17.6442161336      -27.6068242202  TIP3      5235            0.0000000000
     38024      5427  TIP3      H1            -23.0434856571       17.1595000339      -28.0945292708  TIP3      5235            0.0000000000
     38025      5427  TIP3      H2            -22.1795916014       18.3769821398      -28.2407501509  TIP3      5235            0.0000000000
     38026      5428  TIP3      OH2           -18.3482253798       18.5175685037      -40.7366759895  TIP3      5236            0.0000000000
     38027      5428  TIP3      H1            -17.6631581027       19.1587929642      -40.9971913499  TIP3      5236            0.0000000000
     38028      5428  TIP3      H2            -19.0695385191       19.1165708323      -40.4446704714  TIP3      5236            0.0000000000
     38029      5429  TIP3      OH2           -34.2972916135        4.9009017800      -28.2370082944  TIP3      5237            0.0000000000
     38030      5429  TIP3      H1            -35.1973883499        5.2579082742      -28.2194802401  TIP3      5237            0.0000000000
     38031      5429  TIP3      H2            -34.4054454264        4.0487526197      -27.7741138003  TIP3      5237            0.0000000000
     38032      5430  TIP3      OH2           -22.0468157065       12.7583731997      -38.7464866504  TIP3      5238            0.0000000000
     38033      5430  TIP3      H1            -22.2930330024       11.9540736585      -38.2409009668  TIP3      5238            0.0000000000
     38034      5430  TIP3      H2            -21.1066278926       12.8359646001      -38.5222045210  TIP3      5238            0.0000000000
     38035      5431  TIP3      OH2           -34.6200482289       16.7153147097      -29.8217899816  TIP3      5239            0.0000000000
     38036      5431  TIP3      H1            -34.4041041473       15.7710563363      -29.7835491998  TIP3      5239            0.0000000000
     38037      5431  TIP3      H2            -34.4417609172       16.9644099518      -28.9064007428  TIP3      5239            0.0000000000
     38038      5432  TIP3      OH2           -29.9171635753       14.7763587017      -40.0696789118  TIP3      5240            0.0000000000
     38039      5432  TIP3      H1            -29.6553481387       14.2140603159      -39.3277124012  TIP3      5240            0.0000000000
     38040      5432  TIP3      H2            -29.8386688405       15.6839145946      -39.7163735148  TIP3      5240            0.0000000000
     38041      5433  TIP3      OH2           -33.4627183273       11.9923510190      -39.6313971906  TIP3      5241            0.0000000000
     38042      5433  TIP3      H1            -34.0811283506       12.4025414115      -38.9930445147  TIP3      5241            0.0000000000
     38043      5433  TIP3      H2            -32.8782331637       12.7424708731      -39.8433646285  TIP3      5241            0.0000000000
     38044      5434  TIP3      OH2           -25.5896390371        4.6777426883      -29.2612704590  TIP3      5242            0.0000000000
     38045      5434  TIP3      H1            -24.8350612746        4.7677217832      -28.6499781124  TIP3      5242            0.0000000000
     38046      5434  TIP3      H2            -25.9322859234        3.7927252771      -29.0445913649  TIP3      5242            0.0000000000
     38047      5435  TIP3      OH2           -24.8605821508        4.2869332132      -38.1172718228  TIP3      5243            0.0000000000
     38048      5435  TIP3      H1            -24.5649923015        4.6771911617      -38.9736673831  TIP3      5243            0.0000000000
     38049      5435  TIP3      H2            -24.2115991182        4.6781296887      -37.5253530951  TIP3      5243            0.0000000000
     38050      5436  TIP3      OH2           -27.1270085101       16.4195838364      -39.3242879828  TIP3      5244            0.0000000000
     38051      5436  TIP3      H1            -27.9459105542       16.9398999614      -39.2710855148  TIP3      5244            0.0000000000
     38052      5436  TIP3      H2            -26.5822382659       16.9105301515      -39.9646379265  TIP3      5244            0.0000000000
     38053      5437  TIP3      OH2           -27.5920613240        5.9876643333      -37.3448718116  TIP3      5245            0.0000000000
     38054      5437  TIP3      H1            -26.8088592367        6.5737317255      -37.3151019147  TIP3      5245            0.0000000000
     38055      5437  TIP3      H2            -27.8546120675        5.8649048215      -36.4144982216  TIP3      5245            0.0000000000
     38056      5438  TIP3      OH2           -27.0284198859        7.0300486623      -28.1563584627  TIP3      5246            0.0000000000
     38057      5438  TIP3      H1            -26.9498036325        7.5980951762      -27.3759873701  TIP3      5246            0.0000000000
     38058      5438  TIP3      H2            -26.3581617609        6.3384395053      -28.0652346126  TIP3      5246            0.0000000000
     38059      5439  TIP3      OH2           -26.7341364011        3.0476481225      -36.4713623717  TIP3      5247            0.0000000000
     38060      5439  TIP3      H1            -27.0570105175        3.7011827974      -35.8290092074  TIP3      5247            0.0000000000
     38061      5439  TIP3      H2            -26.0352625410        3.5969711515      -36.9103098657  TIP3      5247            0.0000000000
     38062      5440  TIP3      OH2           -29.7373062576       17.4534001727      -39.3013637452  TIP3      5248            0.0000000000
     38063      5440  TIP3      H1            -29.5932914779       18.2766376097      -39.8154517858  TIP3      5248            0.0000000000
     38064      5440  TIP3      H2            -30.0165344134       17.8045122260      -38.4243313084  TIP3      5248            0.0000000000
     38065      5441  TIP3      OH2           -31.0544896072        4.1487025478      -39.6884037626  TIP3      5249            0.0000000000
     38066      5441  TIP3      H1            -31.1281826523        5.0660618893      -39.3617346393  TIP3      5249            0.0000000000
     38067      5441  TIP3      H2            -30.1399446423        3.9252430009      -39.4272314192  TIP3      5249            0.0000000000
     38068      5442  TIP3      OH2           -20.9311840854        5.7221316807      -27.7837356337  TIP3      5250            0.0000000000
     38069      5442  TIP3      H1            -21.7468039459        5.2983462347      -27.4351696003  TIP3      5250            0.0000000000
     38070      5442  TIP3      H2            -20.5555178574        4.9223095759      -28.1655226186  TIP3      5250            0.0000000000
     38071      5443  TIP3      OH2           -22.2319250151        8.6769208167      -33.2782629088  TIP3      5251            0.0000000000
     38072      5443  TIP3      H1            -23.0522929507        8.2324599309      -33.5644988991  TIP3      5251            0.0000000000
     38073      5443  TIP3      H2            -21.7518447212        7.9847270273      -32.7680460899  TIP3      5251            0.0000000000
     38074      5444  TIP3      OH2           -32.8439171314       14.6154587502      -40.7045004695  TIP3      5252            0.0000000000
     38075      5444  TIP3      H1            -32.1772860593       15.2292056816      -40.3815221364  TIP3      5252            0.0000000000
     38076      5444  TIP3      H2            -32.3215794085       14.1252001551      -41.3682679429  TIP3      5252            0.0000000000
     38077      5445  TIP3      OH2           -34.3726113160        7.2729904636      -41.5601257732  TIP3      5253            0.0000000000
     38078      5445  TIP3      H1            -34.4327940954        8.2220885299      -41.3574675094  TIP3      5253            0.0000000000
     38079      5445  TIP3      H2            -35.2766310576        7.0652476271      -41.8035925112  TIP3      5253            0.0000000000
     38080      5446  TIP3      OH2           -21.1792497319       17.9560669983      -31.6151066894  TIP3      5254            0.0000000000
     38081      5446  TIP3      H1            -21.2580993380       18.6234823592      -32.3220283306  TIP3      5254            0.0000000000
     38082      5446  TIP3      H2            -20.2128608226       17.9911759525      -31.4445670545  TIP3      5254            0.0000000000
     38083      5447  TIP3      OH2           -33.7012853881        2.0655955109      -32.8302527642  TIP3      5255            0.0000000000
     38084      5447  TIP3      H1            -33.8720593219        2.0612713426      -33.8023471812  TIP3      5255            0.0000000000
     38085      5447  TIP3      H2            -34.0972035082        1.2046025610      -32.5640924622  TIP3      5255            0.0000000000
     38086      5448  TIP3      OH2           -34.6844860387       15.9872409362      -36.6553071662  TIP3      5256            0.0000000000
     38087      5448  TIP3      H1            -35.5604844364       16.3862169616      -36.7196661764  TIP3      5256            0.0000000000
     38088      5448  TIP3      H2            -34.2425482037       16.4603440016      -37.3768278162  TIP3      5256            0.0000000000
     38089      5449  TIP3      OH2           -35.3142478324       18.6013796488      -25.4049269394  TIP3      5257            0.0000000000
     38090      5449  TIP3      H1            -34.8637165334       18.3621304953      -24.5974144390  TIP3      5257            0.0000000000
     38091      5449  TIP3      H2            -35.8934286058       17.8245062681      -25.5476005665  TIP3      5257            0.0000000000
     38092      5450  TIP3      OH2           -30.8593658781       17.5285580340      -23.7933023967  TIP3      5258            0.0000000000
     38093      5450  TIP3      H1            -30.0908226478       17.0615314908      -23.4395678550  TIP3      5258            0.0000000000
     38094      5450  TIP3      H2            -30.8736510590       17.2494685810      -24.7173223452  TIP3      5258            0.0000000000
     38095      5451  TIP3      OH2           -26.3239459494       17.1062364716      -41.7849188235  TIP3      5259            0.0000000000
     38096      5451  TIP3      H1            -27.1701643380       16.6345086596      -41.8927454816  TIP3      5259            0.0000000000
     38097      5451  TIP3      H2            -25.8234494973       16.6686404120      -42.4771860787  TIP3      5259            0.0000000000
     38098      5452  TIP3      OH2           -24.2952477183       15.9081458250      -25.0467527467  TIP3      5260            0.0000000000
     38099      5452  TIP3      H1            -24.6394507201       15.0442193011      -24.7503907120  TIP3      5260            0.0000000000
     38100      5452  TIP3      H2            -23.5394267434       16.0814149279      -24.4494784758  TIP3      5260            0.0000000000
     38101      5453  TIP3      OH2           -22.1218073855       16.8352829818      -42.1829586017  TIP3      5261            0.0000000000
     38102      5453  TIP3      H1            -21.8811870699       16.0217127586      -41.6994172553  TIP3      5261            0.0000000000
     38103      5453  TIP3      H2            -21.3385835505       17.0272712261      -42.7151792648  TIP3      5261            0.0000000000
     38104      5454  TIP3      OH2           -35.4683723433       12.3752880697      -24.4292359332  TIP3      5262            0.0000000000
     38105      5454  TIP3      H1            -35.3941479926       11.4368018021      -24.6798353318  TIP3      5262            0.0000000000
     38106      5454  TIP3      H2            -36.2987726935       12.6627520141      -24.8507853088  TIP3      5262            0.0000000000
     38107      5455  TIP3      OH2           -31.1801526632       12.8168767528      -42.2268204931  TIP3      5263            0.0000000000
     38108      5455  TIP3      H1            -31.1136374663       11.9855632006      -41.7519731076  TIP3      5263            0.0000000000
     38109      5455  TIP3      H2            -30.6288914407       12.5853678054      -42.9972743667  TIP3      5263            0.0000000000
     38110      5456  TIP3      OH2           -28.8065006241       12.3966661709      -25.0211837593  TIP3      5264            0.0000000000
     38111      5456  TIP3      H1            -29.2353043710       12.7258508329      -25.8389763562  TIP3      5264            0.0000000000
     38112      5456  TIP3      H2            -28.8598997527       11.4166003998      -25.1219738854  TIP3      5264            0.0000000000
     38113      5457  TIP3      OH2           -23.1949542336       12.2643844877      -27.5691055163  TIP3      5265            0.0000000000
     38114      5457  TIP3      H1            -22.4051192051       12.8314531217      -27.7040193703  TIP3      5265            0.0000000000
     38115      5457  TIP3      H2            -23.8858916871       12.9407802206      -27.5847587125  TIP3      5265            0.0000000000
     38116      5458  TIP3      OH2           -34.8116971065        9.5713778083      -25.0110752215  TIP3      5266            0.0000000000
     38117      5458  TIP3      H1            -34.2393654781        8.7883412365      -25.0891498475  TIP3      5266            0.0000000000
     38118      5458  TIP3      H2            -34.8728173966        9.6360583593      -24.0479590121  TIP3      5266            0.0000000000
     38119      5459  TIP3      OH2           -30.0414085940       10.7951619790      -39.9462389548  TIP3      5267            0.0000000000
     38120      5459  TIP3      H1            -30.5524716601       10.2561540802      -39.3189748269  TIP3      5267            0.0000000000
     38121      5459  TIP3      H2            -29.7357446116       10.1019420651      -40.5789731158  TIP3      5267            0.0000000000
     38122      5460  TIP3      OH2           -30.7919736268        8.5732772632      -27.6530322668  TIP3      5268            0.0000000000
     38123      5460  TIP3      H1            -31.3987694535        9.2862165888      -27.3869570720  TIP3      5268            0.0000000000
     38124      5460  TIP3      H2            -30.3970621917        8.9444071517      -28.4618393700  TIP3      5268            0.0000000000
     38125      5461  TIP3      OH2           -28.9856787069        9.0261207398      -41.7545159503  TIP3      5269            0.0000000000
     38126      5461  TIP3      H1            -29.0831700896        8.7988698452      -42.6817746786  TIP3      5269            0.0000000000
     38127      5461  TIP3      H2            -28.0048357854        9.0799060653      -41.6352198687  TIP3      5269            0.0000000000
     38128      5462  TIP3      OH2           -19.6368127290       11.4288244475       42.6859698616  TIP3      5270            0.0000000000
     38129      5462  TIP3      H1            -20.0860309245       10.9923492234       41.9394825929  TIP3      5270            0.0000000000
     38130      5462  TIP3      H2            -19.7387899939       12.3779196082       42.5221365361  TIP3      5270            0.0000000000
     38131      5463  TIP3      OH2           -30.3561233240        5.9636570466      -26.5771846342  TIP3      5271            0.0000000000
     38132      5463  TIP3      H1            -30.2751636851        5.2576452022      -27.2444144551  TIP3      5271            0.0000000000
     38133      5463  TIP3      H2            -30.4408700006        6.7673751122      -27.1314677580  TIP3      5271            0.0000000000
     38134      5464  TIP3      OH2           -29.9835028115        4.3288472390      -29.0421286113  TIP3      5272            0.0000000000
     38135      5464  TIP3      H1            -29.4724534531        4.7959345231      -29.7473962947  TIP3      5272            0.0000000000
     38136      5464  TIP3      H2            -30.8740206175        4.2576466010      -29.4548683870  TIP3      5272            0.0000000000
     38137      5465  TIP3      OH2           -28.4344481760        9.8362266431      -28.7858111017  TIP3      5273            0.0000000000
     38138      5465  TIP3      H1            -27.6862103877        9.6444089542      -29.3611235280  TIP3      5273            0.0000000000
     38139      5465  TIP3      H2            -28.8143374320       10.6495829103      -29.1606378641  TIP3      5273            0.0000000000
     38140      5466  TIP3      OH2           -22.7529619553       10.4506169206      -25.6492968339  TIP3      5274            0.0000000000
     38141      5466  TIP3      H1            -22.9426858617       11.1008393806      -26.3564681837  TIP3      5274            0.0000000000
     38142      5466  TIP3      H2            -21.7914258399       10.3194707207      -25.8193418360  TIP3      5274            0.0000000000
     38143      5467  TIP3      OH2           -31.9375058287        7.1765733482      -24.7097319026  TIP3      5275            0.0000000000
     38144      5467  TIP3      H1            -32.7109995043        6.6098057627      -24.8763472370  TIP3      5275            0.0000000000
     38145      5467  TIP3      H2            -31.2801196384        6.8279339602      -25.3416201614  TIP3      5275            0.0000000000
     38146      5468  TIP3      OH2           -29.2019204531        1.7587865090      -28.6342862245  TIP3      5276            0.0000000000
     38147      5468  TIP3      H1            -29.3653360216        2.7242685889      -28.7512550849  TIP3      5276            0.0000000000
     38148      5468  TIP3      H2            -29.9391327909        1.3935811755      -29.1555569441  TIP3      5276            0.0000000000
     38149      5469  TIP3      OH2           -27.8927421456        6.1023635996      -25.0157454303  TIP3      5277            0.0000000000
     38150      5469  TIP3      H1            -28.2256771658        5.8731950748      -24.1287420120  TIP3      5277            0.0000000000
     38151      5469  TIP3      H2            -28.6926565872        5.9005788736      -25.5510670486  TIP3      5277            0.0000000000
     38152      5470  TIP3      OH2           -25.2318715328        5.2732369923      -25.8774029731  TIP3      5278            0.0000000000
     38153      5470  TIP3      H1            -26.2000469596        5.2716638017      -25.8096875804  TIP3      5278            0.0000000000
     38154      5470  TIP3      H2            -24.9573563388        4.5737122307      -25.2829115998  TIP3      5278            0.0000000000
     38155      5471  TIP3      OH2           -33.7820333971        5.1352986888      -24.9235819361  TIP3      5279            0.0000000000
     38156      5471  TIP3      H1            -33.6108918992        4.3933790344      -25.5181014449  TIP3      5279            0.0000000000
     38157      5471  TIP3      H2            -33.9131669544        4.6837163110      -24.0582894054  TIP3      5279            0.0000000000
     38158      5472  TIP3      OH2           -29.0077497936        1.1260434584      -25.9462911313  TIP3      5280            0.0000000000
     38159      5472  TIP3      H1            -28.2893082043        0.4622924376      -25.9944902074  TIP3      5280            0.0000000000
     38160      5472  TIP3      H2            -29.1090673177        1.3031284080      -26.9073916360  TIP3      5280            0.0000000000
     38161      5473  TIP3      OH2           -28.6129990252        2.7594586605      -23.8509794907  TIP3      5281            0.0000000000
     38162      5473  TIP3      H1            -28.7701214674        2.2839528219      -24.6886614274  TIP3      5281            0.0000000000
     38163      5473  TIP3      H2            -29.1721693438        3.5537732954      -23.9506114336  TIP3      5281            0.0000000000
     38164      5474  TIP3      OH2           -29.1405831265       19.6736322760      -40.7407319404  TIP3      5282            0.0000000000
     38165      5474  TIP3      H1            -28.1712356629       19.7887384742      -40.6087168227  TIP3      5282            0.0000000000
     38166      5474  TIP3      H2            -29.3467180520       20.3557486498      -41.3815468634  TIP3      5282            0.0000000000
     38167      5475  TIP3      OH2           -35.5534382019       14.2500756135      -41.1696454659  TIP3      5283            0.0000000000
     38168      5475  TIP3      H1            -34.5964871170       14.3799932787      -40.9781475390  TIP3      5283            0.0000000000
     38169      5475  TIP3      H2            -35.5356459926       13.6874020411      -41.9472978754  TIP3      5283            0.0000000000
     38170      5476  TIP3      OH2            36.8644605571       19.7471331087      -36.3390074245  TIP3      5284            0.0000000000
     38171      5476  TIP3      H1             36.0025743026       19.4877716614      -36.7023703075  TIP3      5284            0.0000000000
     38172      5476  TIP3      H2             37.0113301070       19.0852996842      -35.6185669172  TIP3      5284            0.0000000000
     38173      5477  TIP3      OH2           -36.0473279809       17.8278177711      -34.4094290626  TIP3      5285            0.0000000000
     38174      5477  TIP3      H1            -36.3257151513       16.9199818925      -34.1709529436  TIP3      5285            0.0000000000
     38175      5477  TIP3      H2            -35.7486364733       18.1231817829      -33.5298909032  TIP3      5285            0.0000000000
     38176      5478  TIP3      OH2           -18.4535475185       18.5800118280      -31.4327024113  TIP3      5286            0.0000000000
     38177      5478  TIP3      H1            -18.4319271578       18.7348209210      -30.4721796946  TIP3      5286            0.0000000000
     38178      5478  TIP3      H2            -17.7476957676       19.1645991464      -31.7278771424  TIP3      5286            0.0000000000
     38179      5479  TIP3      OH2           -18.8537414035       18.1649660810      -28.5005815920  TIP3      5287            0.0000000000
     38180      5479  TIP3      H1            -19.3491786360       17.3976534169      -28.8595726790  TIP3      5287            0.0000000000
     38181      5479  TIP3      H2            -18.3922332804       17.7392729806      -27.7609530585  TIP3      5287            0.0000000000
     38182      5480  TIP3      OH2           -19.0742019354       12.1933744320      -38.4236381072  TIP3      5288            0.0000000000
     38183      5480  TIP3      H1            -18.2614533073       12.6430469423      -38.1450921996  TIP3      5288            0.0000000000
     38184      5480  TIP3      H2            -19.1479558335       11.5299535363      -37.6996032504  TIP3      5288            0.0000000000
     38185      5481  TIP3      OH2           -18.7639551262       10.3214193542      -36.4822232696  TIP3      5289            0.0000000000
     38186      5481  TIP3      H1            -19.5127765888        9.8001375579      -36.1126194115  TIP3      5289            0.0000000000
     38187      5481  TIP3      H2            -18.1637014221       10.4312778522      -35.7192881540  TIP3      5289            0.0000000000
     38188      5482  TIP3      OH2           -19.0031194255       13.0050637948      -31.5189696589  TIP3      5290            0.0000000000
     38189      5482  TIP3      H1            -18.1872555713       12.6214858488      -31.8868711129  TIP3      5290            0.0000000000
     38190      5482  TIP3      H2            -18.8501846269       13.9586062138      -31.6742829500  TIP3      5290            0.0000000000
     38191      5483  TIP3      OH2           -20.4449064749       15.9035254652      -29.2287950376  TIP3      5291            0.0000000000
     38192      5483  TIP3      H1            -21.1381265170       16.2552913043      -28.6442765785  TIP3      5291            0.0000000000
     38193      5483  TIP3      H2            -20.9905302238       15.5058449196      -29.9418371644  TIP3      5291            0.0000000000
     38194      5484  TIP3      OH2           -18.4253175703       10.1574463254      -40.1537846023  TIP3      5292            0.0000000000
     38195      5484  TIP3      H1            -19.1206062318       10.4491527415      -40.7590624888  TIP3      5292            0.0000000000
     38196      5484  TIP3      H2            -18.5449110926       10.8043624570      -39.4227938298  TIP3      5292            0.0000000000
     38197      5485  TIP3      OH2           -20.4421156750        7.4667593051      -41.4630236037  TIP3      5293            0.0000000000
     38198      5485  TIP3      H1            -20.0131997636        7.9518954808      -42.1671727316  TIP3      5293            0.0000000000
     38199      5485  TIP3      H2            -20.3430700391        6.5639338865      -41.8724293249  TIP3      5293            0.0000000000
     38200      5486  TIP3      OH2           -20.9360550648        8.7754673684      -35.9106992226  TIP3      5294            0.0000000000
     38201      5486  TIP3      H1            -21.0886403043        7.8203397955      -35.9653350180  TIP3      5294            0.0000000000
     38202      5486  TIP3      H2            -21.2557166495        8.9776901779      -35.0119341172  TIP3      5294            0.0000000000
     38203      5487  TIP3      OH2           -35.9595187013       10.8394811309      -31.8777513401  TIP3      5295            0.0000000000
     38204      5487  TIP3      H1            -35.7633645827       10.8047953008      -32.8439531812  TIP3      5295            0.0000000000
     38205      5487  TIP3      H2            -35.0663950021       10.7098325474      -31.4960370239  TIP3      5295            0.0000000000
     38206      5488  TIP3      OH2           -20.1184849058       10.7463668797      -26.2611472656  TIP3      5296            0.0000000000
     38207      5488  TIP3      H1            -19.5224576493        9.9898309362      -26.0660334160  TIP3      5296            0.0000000000
     38208      5488  TIP3      H2            -19.4967000643       11.4947431518      -26.2086379167  TIP3      5296            0.0000000000
     38209      5489  TIP3      OH2           -18.5764526369        8.6404645413      -25.6368227432  TIP3      5297            0.0000000000
     38210      5489  TIP3      H1            -19.4731435386        8.2393329262      -25.7049880751  TIP3      5297            0.0000000000
     38211      5489  TIP3      H2            -18.0401586881        7.8344284646      -25.6386007641  TIP3      5297            0.0000000000
     38212      5490  TIP3      OH2           -20.7401451168        5.0707703022      -42.3916554332  TIP3      5298            0.0000000000
     38213      5490  TIP3      H1            -20.2428770616        4.4133577162      -41.8653872497  TIP3      5298            0.0000000000
     38214      5490  TIP3      H2            -21.5831683619        4.5280842916      -42.3781072444  TIP3      5298            0.0000000000
     38215      5491  TIP3      OH2           -21.2750182358        6.3492503145      -37.4458917136  TIP3      5299            0.0000000000
     38216      5491  TIP3      H1            -20.9813616604        5.4106814799      -37.3537488285  TIP3      5299            0.0000000000
     38217      5491  TIP3      H2            -20.4951931076        6.7526860721      -37.8495497967  TIP3      5299            0.0000000000
     38218      5492  TIP3      OH2           -20.6308383192        6.8861080583      -32.0180268378  TIP3      5300            0.0000000000
     38219      5492  TIP3      H1            -19.6740987131        7.1328683970      -32.0322456427  TIP3      5300            0.0000000000
     38220      5492  TIP3      H2            -20.8113487949        7.0324498507      -31.0663290758  TIP3      5300            0.0000000000
     38221      5493  TIP3      OH2           -20.5893644050        7.6985285240      -29.4367689329  TIP3      5301            0.0000000000
     38222      5493  TIP3      H1            -21.3939340127        7.8798368689      -28.8980021034  TIP3      5301            0.0000000000
     38223      5493  TIP3      H2            -20.1129209612        8.5520565989      -29.4531141940  TIP3      5301            0.0000000000
     38224      5494  TIP3      OH2           -36.1174249772        6.0679281445      -25.7085204286  TIP3      5302            0.0000000000
     38225      5494  TIP3      H1            -35.2098311245        5.8453036433      -25.4359264046  TIP3      5302            0.0000000000
     38226      5494  TIP3      H2            -36.6735390584        5.3308482069      -25.4102831277  TIP3      5302            0.0000000000
     38227      5495  TIP3      OH2           -18.1845165336        1.6595213269      -23.9042685728  TIP3      5303            0.0000000000
     38228      5495  TIP3      H1            -17.9762678775        0.9749598033      -24.5511050289  TIP3      5303            0.0000000000
     38229      5495  TIP3      H2            -18.1834371931        2.4734647830      -24.4505730475  TIP3      5303            0.0000000000
     38230      5496  TIP3      OH2           -20.6078047461        3.6468975749      -37.4007979651  TIP3      5304            0.0000000000
     38231      5496  TIP3      H1            -20.3873641249        3.1876054876      -36.5677096516  TIP3      5304            0.0000000000
     38232      5496  TIP3      H2            -21.2025303611        3.0136722979      -37.8657265289  TIP3      5304            0.0000000000
     38233      5497  TIP3      OH2           -35.1721567149        4.3955841352      -32.8204399269  TIP3      5305            0.0000000000
     38234      5497  TIP3      H1            -34.6271850711        3.6112337879      -32.5987722997  TIP3      5305            0.0000000000
     38235      5497  TIP3      H2            -34.6119797700        5.1084637105      -32.4635892079  TIP3      5305            0.0000000000
     38236      5498  TIP3      OH2           -36.1110404948        7.9662962475      -31.4003915838  TIP3      5306            0.0000000000
     38237      5498  TIP3      H1            -36.0315717907        7.6172639660      -32.3077714842  TIP3      5306            0.0000000000
     38238      5498  TIP3      H2            -36.3330951427        8.8680327128      -31.6451075961  TIP3      5306            0.0000000000
     38239      5499  TIP3      OH2           -18.4756546192        3.8153933806      -25.4159209636  TIP3      5307            0.0000000000
     38240      5499  TIP3      H1            -19.4346153445        4.0722633151      -25.3890995209  TIP3      5307            0.0000000000
     38241      5499  TIP3      H2            -18.5808500809        3.2992098656      -26.2289905458  TIP3      5307            0.0000000000
     38242      5500  TIP3      OH2           -18.7497570078        3.7072854970      -40.8181104209  TIP3      5308            0.0000000000
     38243      5500  TIP3      H1            -18.3837024530        2.9980469399      -41.3668860880  TIP3      5308            0.0000000000
     38244      5500  TIP3      H2            -18.0464394677        4.3697724325      -40.8492781853  TIP3      5308            0.0000000000
     38245      5501  TIP3      OH2            37.3654005631        3.7190081893      -37.9919755214  TIP3      5309            0.0000000000
     38246      5501  TIP3      H1             36.4072863820        3.8841290450      -37.9699253146  TIP3      5309            0.0000000000
     38247      5501  TIP3      H2             37.6530899217        4.3569509324      -38.6800527402  TIP3      5309            0.0000000000
     38248      5502  TIP3      OH2           -21.7326384487       18.6607359865      -35.7912937702  TIP3      5310            0.0000000000
     38249      5502  TIP3      H1            -21.0493701635       18.3612393718      -36.4172258648  TIP3      5310            0.0000000000
     38250      5502  TIP3      H2            -21.2144101034       19.1634877014      -35.1466455866  TIP3      5310            0.0000000000
     38251      5503  TIP3      OH2            37.0777978509        2.3323898773      -29.3328417457  TIP3      5311            0.0000000000
     38252      5503  TIP3      H1             36.3304662994        2.1117924886      -28.7611798017  TIP3      5311            0.0000000000
     38253      5503  TIP3      H2             36.5642466805        2.8998801020      -29.9376621947  TIP3      5311            0.0000000000
     38254      5504  TIP3      OH2           -34.2603636272       15.6485027842      -25.2789104230  TIP3      5312            0.0000000000
     38255      5504  TIP3      H1            -35.1149020860       15.7769620843      -25.7065145524  TIP3      5312            0.0000000000
     38256      5504  TIP3      H2            -34.4930628117       15.4445027193      -24.3736781983  TIP3      5312            0.0000000000
     38257      5505  TIP3      OH2           -31.3637293134       16.5898523923      -28.9983645682  TIP3      5313            0.0000000000
     38258      5505  TIP3      H1            -31.7421163222       17.4387403715      -29.2824702948  TIP3      5313            0.0000000000
     38259      5505  TIP3      H2            -30.4433167949       16.6800168257      -29.3249901181  TIP3      5313            0.0000000000
     38260      5506  TIP3      OH2           -27.0547208102       17.9526674520      -26.1402638523  TIP3      5314            0.0000000000
     38261      5506  TIP3      H1            -26.9208598234       17.6515292148      -25.2059720672  TIP3      5314            0.0000000000
     38262      5506  TIP3      H2            -26.1688096673       18.3139078464      -26.3574482083  TIP3      5314            0.0000000000
     38263      5507  TIP3      OH2           -24.7533407583       19.2511901186      -26.7858447114  TIP3      5315            0.0000000000
     38264      5507  TIP3      H1            -24.0161428330       18.6737912364      -27.0401031143  TIP3      5315            0.0000000000
     38265      5507  TIP3      H2            -24.3752533613       19.7029750478      -26.0171089606  TIP3      5315            0.0000000000
     38266      5508  TIP3      OH2           -19.5029744033        1.5770754694      -27.9480039795  TIP3      5316            0.0000000000
     38267      5508  TIP3      H1            -20.3685205440        2.0315594256      -28.0415544418  TIP3      5316            0.0000000000
     38268      5508  TIP3      H2            -19.6278855232        0.7774234608      -28.4820691371  TIP3      5316            0.0000000000
     38269      5509  TIP3      OH2           -33.9337200438       19.8232302428      -28.9913690797  TIP3      5317            0.0000000000
     38270      5509  TIP3      H1            -34.6904963059       20.2856889337      -29.4038945224  TIP3      5317            0.0000000000
     38271      5509  TIP3      H2            -34.2968635109       19.6126829408      -28.1184887972  TIP3      5317            0.0000000000
     38272      5510  TIP3      OH2           -31.4721521112       19.3880993582      -29.9447897695  TIP3      5318            0.0000000000
     38273      5510  TIP3      H1            -32.3610469217       19.5486140293      -29.5425485165  TIP3      5318            0.0000000000
     38274      5510  TIP3      H2            -31.5249365680       19.9786493359      -30.7148388859  TIP3      5318            0.0000000000
     38275      5511  TIP3      OH2           -26.7673978229       19.3069275781      -30.7823266808  TIP3      5319            0.0000000000
     38276      5511  TIP3      H1            -27.2430538606       19.8631876004      -31.4188925009  TIP3      5319            0.0000000000
     38277      5511  TIP3      H2            -26.6482603935       19.9315984129      -30.0295319274  TIP3      5319            0.0000000000
     38278      5512  TIP3      OH2           -24.5031105867       18.0985237956      -29.7201304156  TIP3      5320            0.0000000000
     38279      5512  TIP3      H1            -25.3455365902       18.3845380297      -30.1104523775  TIP3      5320            0.0000000000
     38280      5512  TIP3      H2            -24.0041199992       18.9223230949      -29.8403030405  TIP3      5320            0.0000000000
     38281      5513  TIP3      OH2           -21.9499848224       19.6926237298      -29.5069072939  TIP3      5321            0.0000000000
     38282      5513  TIP3      H1            -21.9616092912       20.6496989035      -29.7507519464  TIP3      5321            0.0000000000
     38283      5513  TIP3      H2            -21.7079565372       19.3182191120      -30.3754237507  TIP3      5321            0.0000000000
     38284      5514  TIP3      OH2           -34.5126494955       18.4574381229      -32.0971497573  TIP3      5322            0.0000000000
     38285      5514  TIP3      H1            -34.5546023287       18.0272778761      -31.2173478094  TIP3      5322            0.0000000000
     38286      5514  TIP3      H2            -33.7013174457       18.0656346272      -32.4710371624  TIP3      5322            0.0000000000
     38287      5515  TIP3      OH2           -32.4129941128       17.1544416772      -33.4384040015  TIP3      5323            0.0000000000
     38288      5515  TIP3      H1            -32.5994219084       16.2301702331      -33.1799582570  TIP3      5323            0.0000000000
     38289      5515  TIP3      H2            -31.5664026221       17.3212479856      -32.9717651658  TIP3      5323            0.0000000000
     38290      5516  TIP3      OH2           -29.8101280444       17.6571349102      -32.5412401489  TIP3      5324            0.0000000000
     38291      5516  TIP3      H1            -29.6613272513       16.7297968996      -32.8056310469  TIP3      5324            0.0000000000
     38292      5516  TIP3      H2            -29.7689413889       17.5974587256      -31.5755657352  TIP3      5324            0.0000000000
     38293      5517  TIP3      OH2           -26.3632306867        3.3042342274      -33.4089995937  TIP3      5325            0.0000000000
     38294      5517  TIP3      H1            -27.0386918988        2.6655300987      -33.1243256223  TIP3      5325            0.0000000000
     38295      5517  TIP3      H2            -25.8102794252        2.7677308884      -33.9890292390  TIP3      5325            0.0000000000
     38296      5518  TIP3      OH2           -21.2249327913        1.3423317063      -33.3437153224  TIP3      5326            0.0000000000
     38297      5518  TIP3      H1            -20.6108898008        1.9430875383      -33.8317786222  TIP3      5326            0.0000000000
     38298      5518  TIP3      H2            -22.1062127138        1.7092505239      -33.5790865252  TIP3      5326            0.0000000000
     38299      5519  TIP3      OH2           -19.5585045669        2.5985685755      -35.0631113394  TIP3      5327            0.0000000000
     38300      5519  TIP3      H1            -18.8725190328        2.0211787654      -35.4761139141  TIP3      5327            0.0000000000
     38301      5519  TIP3      H2            -19.0495689176        3.4357566785      -34.9609006917  TIP3      5327            0.0000000000
     38302      5520  TIP3      OH2           -34.0118902447        1.9055298716      -35.5363672653  TIP3      5328            0.0000000000
     38303      5520  TIP3      H1            -34.7717934936        1.7234985522      -36.1298793562  TIP3      5328            0.0000000000
     38304      5520  TIP3      H2            -33.5068958971        1.0775257304      -35.6466099669  TIP3      5328            0.0000000000
     38305      5521  TIP3      OH2           -34.7583886081        1.8176210237      -39.6616527947  TIP3      5329            0.0000000000
     38306      5521  TIP3      H1            -34.6469526650        2.3902521871      -40.4380827559  TIP3      5329            0.0000000000
     38307      5521  TIP3      H2            -35.6135203709        2.1060019988      -39.3000842870  TIP3      5329            0.0000000000
     38308      5522  TIP3      OH2           -29.5259635398        1.8522012728      -35.7675396637  TIP3      5330            0.0000000000
     38309      5522  TIP3      H1            -28.6262914438        2.2126689633      -35.8488378560  TIP3      5330            0.0000000000
     38310      5522  TIP3      H2            -29.5549161234        1.6368565910      -34.8343144017  TIP3      5330            0.0000000000
     38311      5523  TIP3      OH2           -23.8019932300        1.8710430228      -34.1492380161  TIP3      5331            0.0000000000
     38312      5523  TIP3      H1            -23.8566022180        1.9896514431      -35.1057404276  TIP3      5331            0.0000000000
     38313      5523  TIP3      H2            -24.1923961901        0.9718174292      -34.0187580208  TIP3      5331            0.0000000000
     38314      5524  TIP3      OH2           -22.5516763060        1.8930592724      -38.3985460211  TIP3      5332            0.0000000000
     38315      5524  TIP3      H1            -23.2677687066        2.4837674477      -38.6787852623  TIP3      5332            0.0000000000
     38316      5524  TIP3      H2            -23.0004643958        1.0338663878      -38.2560696507  TIP3      5332            0.0000000000
     38317      5525  TIP3      OH2           -35.1331246493       17.7063335869      -38.9006293843  TIP3      5333            0.0000000000
     38318      5525  TIP3      H1            -35.9278711699       17.6213905978      -39.4655090257  TIP3      5333            0.0000000000
     38319      5525  TIP3      H2            -35.2584006178       18.6389213557      -38.6826983900  TIP3      5333            0.0000000000
     38320      5526  TIP3      OH2           -33.4077170073        3.6410941635      -41.3521274191  TIP3      5334            0.0000000000
     38321      5526  TIP3      H1            -32.8819154191        3.0032696141      -41.8451297492  TIP3      5334            0.0000000000
     38322      5526  TIP3      H2            -32.7739088376        3.9427486217      -40.6930567985  TIP3      5334            0.0000000000
     38323      5527  TIP3      OH2           -28.3767144076        3.8613196090      -38.9179199152  TIP3      5335            0.0000000000
     38324      5527  TIP3      H1            -28.1005077077        3.2975450776      -38.1780576589  TIP3      5335            0.0000000000
     38325      5527  TIP3      H2            -28.2940193764        4.7328609893      -38.4624560153  TIP3      5335            0.0000000000
     38326      5528  TIP3      OH2           -26.4706097504       19.2395698161      -40.4664846483  TIP3      5336            0.0000000000
     38327      5528  TIP3      H1            -25.5044316739       19.2156779396      -40.6063034218  TIP3      5336            0.0000000000
     38328      5528  TIP3      H2            -26.6426001889       18.4954510624      -41.0936712571  TIP3      5336            0.0000000000
     38329      5529  TIP3      OH2           -19.7395871408       18.4464059805      -37.7585974928  TIP3      5337            0.0000000000
     38330      5529  TIP3      H1            -19.9373890187       17.6655658956      -38.3332179333  TIP3      5337            0.0000000000
     38331      5529  TIP3      H2            -19.8278673903       19.1787150556      -38.3978284588  TIP3      5337            0.0000000000
     38332      5530  TIP3      OH2           -34.1144359021        2.4987159486      -26.0468181789  TIP3      5338            0.0000000000
     38333      5530  TIP3      H1            -34.5234210961        1.6665789118      -25.7340947727  TIP3      5338            0.0000000000
     38334      5530  TIP3      H2            -33.1944094866        2.4123481205      -25.7872419396  TIP3      5338            0.0000000000
     38335      5531  TIP3      OH2           -33.4319220221       18.6380492766      -41.8567503293  TIP3      5339            0.0000000000
     38336      5531  TIP3      H1            -33.7672803647       18.8876605880      -40.9876174373  TIP3      5339            0.0000000000
     38337      5531  TIP3      H2            -32.7169990669       18.0478012867      -41.6645686558  TIP3      5339            0.0000000000
     38338      5532  TIP3      OH2           -20.5039717910       17.1564667440      -25.6657699952  TIP3      5340            0.0000000000
     38339      5532  TIP3      H1            -21.2983979405       17.0748198334      -26.2351669303  TIP3      5340            0.0000000000
     38340      5532  TIP3      H2            -20.5697298039       18.1096610751      -25.4507059655  TIP3      5340            0.0000000000
     38341      5533  TIP3      OH2            -6.0451694229       11.0744438732      -35.7038743333  TIP3      5341            0.0000000000
     38342      5533  TIP3      H1             -6.0661963042       12.0529123681      -35.7382990027  TIP3      5341            0.0000000000
     38343      5533  TIP3      H2             -6.7760720904       10.8384387099      -36.3002375749  TIP3      5341            0.0000000000
     38344      5534  TIP3      OH2            -7.1960392468       10.3205990530      -32.2033431475  TIP3      5342            0.0000000000
     38345      5534  TIP3      H1             -7.2078013452        9.6738748250      -31.4810344000  TIP3      5342            0.0000000000
     38346      5534  TIP3      H2             -7.5462155518        9.8102238354      -32.9510673520  TIP3      5342            0.0000000000
     38347      5535  TIP3      OH2           -14.8416274446       10.0047874176      -30.6517345383  TIP3      5343            0.0000000000
     38348      5535  TIP3      H1            -14.7605888203        9.3146281276      -29.9629899877  TIP3      5343            0.0000000000
     38349      5535  TIP3      H2            -14.0905013893       10.5717252311      -30.4258926549  TIP3      5343            0.0000000000
     38350      5536  TIP3      OH2            -3.5139083135       13.2733440554      -33.9177599825  TIP3      5344            0.0000000000
     38351      5536  TIP3      H1             -3.9209546971       12.5544224713      -33.4244329150  TIP3      5344            0.0000000000
     38352      5536  TIP3      H2             -3.4825447169       13.9787641121      -33.2451678309  TIP3      5344            0.0000000000
     38353      5537  TIP3      OH2           -13.9164299339       14.4533370787      -32.1607764998  TIP3      5345            0.0000000000
     38354      5537  TIP3      H1            -14.2249822875       13.5780848130      -32.4668022248  TIP3      5345            0.0000000000
     38355      5537  TIP3      H2            -12.9613910053       14.2684951882      -32.1069341873  TIP3      5345            0.0000000000
     38356      5538  TIP3      OH2           -17.2781835492        8.0023712353      -36.6615550403  TIP3      5346            0.0000000000
     38357      5538  TIP3      H1            -17.7127312698        8.8741014232      -36.7157667900  TIP3      5346            0.0000000000
     38358      5538  TIP3      H2            -17.8399500616        7.4648031876      -37.2366191526  TIP3      5346            0.0000000000
     38359      5539  TIP3      OH2           -16.5633040500       10.2279066755      -34.5028621960  TIP3      5347            0.0000000000
     38360      5539  TIP3      H1            -16.2867313360        9.4039185400      -34.0585031095  TIP3      5347            0.0000000000
     38361      5539  TIP3      H2            -15.8713341371       10.3407531840      -35.1663991724  TIP3      5347            0.0000000000
     38362      5540  TIP3      OH2            -6.3919991921       18.4313873858      -33.6794836113  TIP3      5348            0.0000000000
     38363      5540  TIP3      H1             -5.7407059782       17.7445220111      -33.9672609998  TIP3      5348            0.0000000000
     38364      5540  TIP3      H2             -6.6084977127       18.0898220611      -32.8115318786  TIP3      5348            0.0000000000
     38365      5541  TIP3      OH2            -8.8185195735       12.7165076088      -31.7235160371  TIP3      5349            0.0000000000
     38366      5541  TIP3      H1             -8.4817088330       12.0954172662      -32.3868385678  TIP3      5349            0.0000000000
     38367      5541  TIP3      H2             -8.0048906427       12.8797228909      -31.2142771977  TIP3      5349            0.0000000000
     38368      5542  TIP3      OH2            -0.2285876959        4.3893035215      -31.0081382962  TIP3      5350            0.0000000000
     38369      5542  TIP3      H1             -0.0461413914        4.9706253608      -30.2394096971  TIP3      5350            0.0000000000
     38370      5542  TIP3      H2              0.3460452361        4.8040265263      -31.6674389622  TIP3      5350            0.0000000000
     38371      5543  TIP3      OH2            -5.6511636152        7.1911811102      -31.4118623013  TIP3      5351            0.0000000000
     38372      5543  TIP3      H1             -5.4814239062        6.2327663640      -31.4064688436  TIP3      5351            0.0000000000
     38373      5543  TIP3      H2             -5.7543677489        7.3300450133      -32.3733111284  TIP3      5351            0.0000000000
     38374      5544  TIP3      OH2           -12.5402768219        5.2817611772      -34.2017371010  TIP3      5352            0.0000000000
     38375      5544  TIP3      H1            -12.4286188162        6.1140471860      -34.6979518021  TIP3      5352            0.0000000000
     38376      5544  TIP3      H2            -12.9354394920        4.7067240209      -34.8927937858  TIP3      5352            0.0000000000
     38377      5545  TIP3      OH2            -4.7993741402        5.3580356544      -35.8336609384  TIP3      5353            0.0000000000
     38378      5545  TIP3      H1             -4.1511071285        5.0454920061      -35.1601867193  TIP3      5353            0.0000000000
     38379      5545  TIP3      H2             -4.2329891633        5.9339055914      -36.3732242726  TIP3      5353            0.0000000000
     38380      5546  TIP3      OH2           -15.9138169408        7.6873237497      -33.4615988964  TIP3      5354            0.0000000000
     38381      5546  TIP3      H1            -15.2437058417        7.1472276315      -33.0085488301  TIP3      5354            0.0000000000
     38382      5546  TIP3      H2            -15.8062064233        7.3762535231      -34.3756455349  TIP3      5354            0.0000000000
     38383      5547  TIP3      OH2           -10.7588351327        9.2488914336      -34.1419523751  TIP3      5355            0.0000000000
     38384      5547  TIP3      H1            -10.0833057393        8.6663634055      -33.7541192050  TIP3      5355            0.0000000000
     38385      5547  TIP3      H2            -11.2685978207        8.5956492358      -34.6603904908  TIP3      5355            0.0000000000
     38386      5548  TIP3      OH2             0.2105335949        5.7822509119      -28.7129663917  TIP3      5356            0.0000000000
     38387      5548  TIP3      H1             -0.3850313768        6.5541425516      -28.8575466698  TIP3      5356            0.0000000000
     38388      5548  TIP3      H2              0.2527332323        5.7219057375      -27.7493944583  TIP3      5356            0.0000000000
     38389      5549  TIP3      OH2           -13.6299787470        4.1817612680      -30.1459643925  TIP3      5357            0.0000000000
     38390      5549  TIP3      H1            -13.9108404717        4.7529352112      -30.8928575843  TIP3      5357            0.0000000000
     38391      5549  TIP3      H2            -14.3063621930        4.4105723219      -29.4664587265  TIP3      5357            0.0000000000
     38392      5550  TIP3      OH2            -6.3473075998       13.6527730007      -36.6142320121  TIP3      5358            0.0000000000
     38393      5550  TIP3      H1             -6.6213719341       13.3843713711      -37.5062836110  TIP3      5358            0.0000000000
     38394      5550  TIP3      H2             -6.6484229755       14.5883756484      -36.5679347530  TIP3      5358            0.0000000000
     38395      5551  TIP3      OH2           -11.1174086566       11.8215477448      -29.9257920203  TIP3      5359            0.0000000000
     38396      5551  TIP3      H1            -11.8198851999       12.4669254690      -29.6990132939  TIP3      5359            0.0000000000
     38397      5551  TIP3      H2            -10.4101434583       12.4202832428      -30.2162195247  TIP3      5359            0.0000000000
     38398      5552  TIP3      OH2            -2.9893079489        4.7055495399      -33.8444973666  TIP3      5360            0.0000000000
     38399      5552  TIP3      H1             -3.2071373985        3.9405989720      -33.3044938489  TIP3      5360            0.0000000000
     38400      5552  TIP3      H2             -2.3121055047        5.1447070084      -33.3032856070  TIP3      5360            0.0000000000
     38401      5553  TIP3      OH2           -14.0572713400        6.0285191743      -32.1181491598  TIP3      5361            0.0000000000
     38402      5553  TIP3      H1            -13.4353294123        6.7227229305      -31.8085587659  TIP3      5361            0.0000000000
     38403      5553  TIP3      H2            -13.5447324966        5.6266078616      -32.8636019686  TIP3      5361            0.0000000000
     38404      5554  TIP3      OH2           -12.6678759099       13.8289399312      -29.1019252336  TIP3      5362            0.0000000000
     38405      5554  TIP3      H1            -12.7215141399       14.7410432758      -29.4421272713  TIP3      5362            0.0000000000
     38406      5554  TIP3      H2            -13.5485459557       13.7462475433      -28.6569274122  TIP3      5362            0.0000000000
     38407      5555  TIP3      OH2           -16.6048444701       13.4372560452      -38.3229515879  TIP3      5363            0.0000000000
     38408      5555  TIP3      H1            -16.8068475347       13.8012447511      -39.2055853608  TIP3      5363            0.0000000000
     38409      5555  TIP3      H2            -16.5198944481       14.2538129495      -37.7837956252  TIP3      5363            0.0000000000
     38410      5556  TIP3      OH2            -2.9800347968       15.1108878190      -31.5485816813  TIP3      5364            0.0000000000
     38411      5556  TIP3      H1             -3.9481998992       15.2227330156      -31.4297156636  TIP3      5364            0.0000000000
     38412      5556  TIP3      H2             -2.7114766529       16.0255436176      -31.7553316467  TIP3      5364            0.0000000000
     38413      5557  TIP3      OH2            -2.6570601984        3.3903333044      -30.1611721216  TIP3      5365            0.0000000000
     38414      5557  TIP3      H1             -3.3790360024        4.0250752029      -30.2573806012  TIP3      5365            0.0000000000
     38415      5557  TIP3      H2             -1.9410938913        3.8095934918      -30.6833790247  TIP3      5365            0.0000000000
     38416      5558  TIP3      OH2            -9.6952349711        1.5147574855      -32.6942775478  TIP3      5366            0.0000000000
     38417      5558  TIP3      H1             -9.8413905580        0.5517668628      -32.7739528897  TIP3      5366            0.0000000000
     38418      5558  TIP3      H2            -10.5730023345        1.8202694289      -32.3876729022  TIP3      5366            0.0000000000
     38419      5559  TIP3      OH2            -4.7188186792       16.8937190492      -34.9657706954  TIP3      5367            0.0000000000
     38420      5559  TIP3      H1             -4.2925003988       16.1732486759      -35.4725282797  TIP3      5367            0.0000000000
     38421      5559  TIP3      H2             -4.2722754675       17.6805301055      -35.3437085847  TIP3      5367            0.0000000000
     38422      5560  TIP3      OH2            -3.4875499583       14.8192801833      -36.4691258845  TIP3      5368            0.0000000000
     38423      5560  TIP3      H1             -3.7988364304       14.1245007258      -37.0735860598  TIP3      5368            0.0000000000
     38424      5560  TIP3      H2             -3.4720221323       14.3332141026      -35.6210240412  TIP3      5368            0.0000000000
     38425      5561  TIP3      OH2            -1.8981639470       13.4205125112      -27.9494719493  TIP3      5369            0.0000000000
     38426      5561  TIP3      H1             -1.7434450660       12.7646058914      -28.6648579329  TIP3      5369            0.0000000000
     38427      5561  TIP3      H2             -1.6871335866       14.2604584522      -28.3956569104  TIP3      5369            0.0000000000
     38428      5562  TIP3      OH2            -7.3929244186       10.3115299443      -38.2005404089  TIP3      5370            0.0000000000
     38429      5562  TIP3      H1             -8.0824801914       10.8912774333      -38.5917850467  TIP3      5370            0.0000000000
     38430      5562  TIP3      H2             -6.6832592726       10.3981437954      -38.8615927561  TIP3      5370            0.0000000000
     38431      5563  TIP3      OH2            -7.3573137758        8.8464331243      -41.0999985419  TIP3      5371            0.0000000000
     38432      5563  TIP3      H1             -6.6176731493        8.8475360890      -40.4700925626  TIP3      5371            0.0000000000
     38433      5563  TIP3      H2             -7.0279115060        8.2097408827      -41.7394114386  TIP3      5371            0.0000000000
     38434      5564  TIP3      OH2            -0.0029793932        9.7303372476      -29.9085250482  TIP3      5372            0.0000000000
     38435      5564  TIP3      H1             -0.6615164928       10.4539087542      -29.8670096747  TIP3      5372            0.0000000000
     38436      5564  TIP3      H2              0.4826218417        9.9532285758      -30.7245406711  TIP3      5372            0.0000000000
     38437      5565  TIP3      OH2            -3.9511066376       10.5172094348      -37.2456289109  TIP3      5373            0.0000000000
     38438      5565  TIP3      H1             -4.6945229689       10.7615549583      -36.6432574334  TIP3      5373            0.0000000000
     38439      5565  TIP3      H2             -3.4781610504        9.8415030722      -36.7288817413  TIP3      5373            0.0000000000
     38440      5566  TIP3      OH2            -4.0166064106        8.6814841258      -28.1353183674  TIP3      5374            0.0000000000
     38441      5566  TIP3      H1             -4.0093044703        9.5045216915      -27.6196155958  TIP3      5374            0.0000000000
     38442      5566  TIP3      H2             -4.6426468812        8.9697665751      -28.8317627991  TIP3      5374            0.0000000000
     38443      5567  TIP3      OH2           -12.3347793721       11.1704399836      -35.3435388122  TIP3      5375            0.0000000000
     38444      5567  TIP3      H1            -12.6458055910       10.7824715932      -36.1921454505  TIP3      5375            0.0000000000
     38445      5567  TIP3      H2            -11.7157767412       10.4830056959      -35.0114070605  TIP3      5375            0.0000000000
     38446      5568  TIP3      OH2           -11.0204321611       14.5544146165      -32.6659944275  TIP3      5376            0.0000000000
     38447      5568  TIP3      H1            -11.0181859195       14.0357683508      -33.4816628767  TIP3      5376            0.0000000000
     38448      5568  TIP3      H2            -10.2327102066       14.2007933957      -32.2112910201  TIP3      5376            0.0000000000
     38449      5569  TIP3      OH2           -12.0067696231        9.9214308883      -31.6831914916  TIP3      5377            0.0000000000
     38450      5569  TIP3      H1            -11.4598678553       10.0162966011      -32.4878119378  TIP3      5377            0.0000000000
     38451      5569  TIP3      H2            -11.6107439702       10.5870160511      -31.0774734276  TIP3      5377            0.0000000000
     38452      5570  TIP3      OH2            -5.5765698111       15.4944391689      -30.9775898547  TIP3      5378            0.0000000000
     38453      5570  TIP3      H1             -5.8741375557       16.1333340645      -30.3234653133  TIP3      5378            0.0000000000
     38454      5570  TIP3      H2             -5.8397106095       14.6432970646      -30.5572160594  TIP3      5378            0.0000000000
     38455      5571  TIP3      OH2           -11.0496589014       14.3590286201      -26.9876803668  TIP3      5379            0.0000000000
     38456      5571  TIP3      H1            -11.4692724388       15.0984046030      -26.4978311582  TIP3      5379            0.0000000000
     38457      5571  TIP3      H2            -11.7212963076       14.1530162215      -27.6843832087  TIP3      5379            0.0000000000
     38458      5572  TIP3      OH2            -5.0588527606        9.7019366433      -39.5971552081  TIP3      5380            0.0000000000
     38459      5572  TIP3      H1             -4.5245161999        9.9032479538      -38.7905467701  TIP3      5380            0.0000000000
     38460      5572  TIP3      H2             -4.6512292482       10.2514070481      -40.2945564041  TIP3      5380            0.0000000000
     38461      5573  TIP3      OH2           -14.1132439745       10.5094695964      -27.8234085708  TIP3      5381            0.0000000000
     38462      5573  TIP3      H1            -14.0724801426       11.1736009056      -27.1056949972  TIP3      5381            0.0000000000
     38463      5573  TIP3      H2            -15.0491610484       10.5885715423      -28.0653358859  TIP3      5381            0.0000000000
     38464      5574  TIP3      OH2            -7.3634033233       16.4332325260      -36.1121839493  TIP3      5382            0.0000000000
     38465      5574  TIP3      H1             -6.9252978112       16.7527895735      -35.3162245465  TIP3      5382            0.0000000000
     38466      5574  TIP3      H2             -7.9092564680       17.1834006385      -36.3787142332  TIP3      5382            0.0000000000
     38467      5575  TIP3      OH2           -12.8254606172       16.3592422507      -26.2654229955  TIP3      5383            0.0000000000
     38468      5575  TIP3      H1            -12.8798791628       16.2753806654      -27.2329113633  TIP3      5383            0.0000000000
     38469      5575  TIP3      H2            -13.7566148505       16.2505897731      -25.9818824375  TIP3      5383            0.0000000000
     38470      5576  TIP3      OH2            -1.3523384550        1.4450106302      -39.6998470162  TIP3      5384            0.0000000000
     38471      5576  TIP3      H1             -2.3036366833        1.5528783456      -39.4561373753  TIP3      5384            0.0000000000
     38472      5576  TIP3      H2             -1.1333626414        2.3014993902      -40.1043432475  TIP3      5384            0.0000000000
     38473      5577  TIP3      OH2           -13.3653384223       10.2015763462      -37.7635743534  TIP3      5385            0.0000000000
     38474      5577  TIP3      H1            -13.6615667683       10.9781879400      -38.2747738603  TIP3      5385            0.0000000000
     38475      5577  TIP3      H2            -14.0207031554        9.5293853301      -37.9671493540  TIP3      5385            0.0000000000
     38476      5578  TIP3      OH2            -0.2517108006       15.8153175612      -41.4211665949  TIP3      5386            0.0000000000
     38477      5578  TIP3      H1             -0.2016133175       16.7621130827      -41.1603226219  TIP3      5386            0.0000000000
     38478      5578  TIP3      H2              0.6187414198       15.5186686308      -41.1501437319  TIP3      5386            0.0000000000
     38479      5579  TIP3      OH2           -17.2415983697       12.6331440605      -28.8639707969  TIP3      5387            0.0000000000
     38480      5579  TIP3      H1            -17.7252934532       12.5416296822      -29.7020788946  TIP3      5387            0.0000000000
     38481      5579  TIP3      H2            -17.1936219785       11.6865009438      -28.6147635980  TIP3      5387            0.0000000000
     38482      5580  TIP3      OH2           -17.5105549766       15.3583258718      -32.0595303764  TIP3      5388            0.0000000000
     38483      5580  TIP3      H1            -16.5529593190       15.2452912494      -32.0783615514  TIP3      5388            0.0000000000
     38484      5580  TIP3      H2            -17.5951527290       16.1786404583      -31.5568544776  TIP3      5388            0.0000000000
     38485      5581  TIP3      OH2             0.7115000508       16.0598207444      -26.3892373141  TIP3      5389            0.0000000000
     38486      5581  TIP3      H1              0.6185116382       15.0976481163      -26.4072656206  TIP3      5389            0.0000000000
     38487      5581  TIP3      H2             -0.1498635540       16.3032545965      -25.9716989965  TIP3      5389            0.0000000000
     38488      5582  TIP3      OH2            -8.3231005461       15.6081099189      -27.5177706117  TIP3      5390            0.0000000000
     38489      5582  TIP3      H1             -8.2615427862       16.4482288121      -27.0027172708  TIP3      5390            0.0000000000
     38490      5582  TIP3      H2             -9.1884061547       15.2456919468      -27.2476684370  TIP3      5390            0.0000000000
     38491      5583  TIP3      OH2            -7.8850244282       19.3473314351      -37.7214350000  TIP3      5391            0.0000000000
     38492      5583  TIP3      H1             -7.9591055312       19.2932163424      -38.6888554401  TIP3      5391            0.0000000000
     38493      5583  TIP3      H2             -7.8470709974       20.3059551061      -37.5491034652  TIP3      5391            0.0000000000
     38494      5584  TIP3      OH2           -14.2350095403       18.2286936226      -35.8859739836  TIP3      5392            0.0000000000
     38495      5584  TIP3      H1            -14.0879466812       17.8146398467      -35.0048192827  TIP3      5392            0.0000000000
     38496      5584  TIP3      H2            -15.0839614060       17.8205068951      -36.1232018042  TIP3      5392            0.0000000000
     38497      5585  TIP3      OH2            -4.8588444401       18.5529285111      -40.7527785564  TIP3      5393            0.0000000000
     38498      5585  TIP3      H1             -4.3721104971       17.7986344414      -41.1634661149  TIP3      5393            0.0000000000
     38499      5585  TIP3      H2             -4.7756394863       18.3199684555      -39.8108028767  TIP3      5393            0.0000000000
     38500      5586  TIP3      OH2            -5.1362733060       18.4999803287      -37.9482304958  TIP3      5394            0.0000000000
     38501      5586  TIP3      H1             -6.0934398424       18.5665573228      -37.7637425485  TIP3      5394            0.0000000000
     38502      5586  TIP3      H2             -4.8872542457       17.7554340368      -37.3809371665  TIP3      5394            0.0000000000
     38503      5587  TIP3      OH2            -2.1338105659        7.5110570488      -25.9044817342  TIP3      5395            0.0000000000
     38504      5587  TIP3      H1             -2.5994464421        7.9955618575      -26.6111263762  TIP3      5395            0.0000000000
     38505      5587  TIP3      H2             -2.1406831217        6.6060377198      -26.2435788596  TIP3      5395            0.0000000000
     38506      5588  TIP3      OH2           -14.9872551006       13.9322721998      -27.8735065412  TIP3      5396            0.0000000000
     38507      5588  TIP3      H1            -14.7854704263       13.5657009020      -26.9858513077  TIP3      5396            0.0000000000
     38508      5588  TIP3      H2            -15.8552585953       13.5390719887      -28.1073485495  TIP3      5396            0.0000000000
     38509      5589  TIP3      OH2           -12.3121178123        2.4060474449      -31.9298693105  TIP3      5397            0.0000000000
     38510      5589  TIP3      H1            -13.2095509462        2.2877312885      -32.3115397459  TIP3      5397            0.0000000000
     38511      5589  TIP3      H2            -12.4421759307        3.2458730089      -31.4594673525  TIP3      5397            0.0000000000
     38512      5590  TIP3      OH2            -7.6540000632        2.0936217397      -28.5617154993  TIP3      5398            0.0000000000
     38513      5590  TIP3      H1             -7.2724817024        1.6521054683      -27.7821495392  TIP3      5398            0.0000000000
     38514      5590  TIP3      H2             -8.6260060937        1.9726610923      -28.4281330038  TIP3      5398            0.0000000000
     38515      5591  TIP3      OH2            -4.3698540381        5.9454278222      -27.6856814953  TIP3      5399            0.0000000000
     38516      5591  TIP3      H1             -4.9425707939        5.7252938306      -26.9107084402  TIP3      5399            0.0000000000
     38517      5591  TIP3      H2             -4.5696957812        6.8679249984      -27.9224878462  TIP3      5399            0.0000000000
     38518      5592  TIP3      OH2            -3.5445602856       10.8036267057      -41.7432459141  TIP3      5400            0.0000000000
     38519      5592  TIP3      H1             -3.5428319360       10.6299921978      -42.7013781926  TIP3      5400            0.0000000000
     38520      5592  TIP3      H2             -2.6759460181       11.2323225062      -41.6446646201  TIP3      5400            0.0000000000
     38521      5593  TIP3      OH2            -8.0158289028        4.6621199138      -41.2332253145  TIP3      5401            0.0000000000
     38522      5593  TIP3      H1             -8.3413253898        4.6086102844      -40.3174808742  TIP3      5401            0.0000000000
     38523      5593  TIP3      H2             -8.2939556684        3.7859019595      -41.5297086639  TIP3      5401            0.0000000000
     38524      5594  TIP3      OH2           -12.2039944557        7.3955769033      -30.6789203816  TIP3      5402            0.0000000000
     38525      5594  TIP3      H1            -12.9559048344        7.3822133279      -30.0580912217  TIP3      5402            0.0000000000
     38526      5594  TIP3      H2            -12.2525191858        8.3001399927      -31.0631053459  TIP3      5402            0.0000000000
     38527      5595  TIP3      OH2           -12.2448563348        7.4963564194      -35.8226498433  TIP3      5403            0.0000000000
     38528      5595  TIP3      H1            -13.1852965032        7.2559657926      -35.9593024599  TIP3      5403            0.0000000000
     38529      5595  TIP3      H2            -11.8706440264        7.2191041129      -36.6836914605  TIP3      5403            0.0000000000
     38530      5596  TIP3      OH2            -6.7189805944        7.9997939954      -37.0869596153  TIP3      5404            0.0000000000
     38531      5596  TIP3      H1             -7.1208243644        8.8382741412      -37.4094450251  TIP3      5404            0.0000000000
     38532      5596  TIP3      H2             -6.0306711883        7.8476366689      -37.7612955413  TIP3      5404            0.0000000000
     38533      5597  TIP3      OH2            -7.6457503851        8.2191310184      -25.6161611440  TIP3      5405            0.0000000000
     38534      5597  TIP3      H1             -8.1865052001        7.4478705615      -25.3117077571  TIP3      5405            0.0000000000
     38535      5597  TIP3      H2             -6.8181718271        8.0995749786      -25.1202872712  TIP3      5405            0.0000000000
     38536      5598  TIP3      OH2            -5.6844566495        7.5018412821      -34.2061154876  TIP3      5406            0.0000000000
     38537      5598  TIP3      H1             -5.9743063087        8.0643756420      -34.9447710387  TIP3      5406            0.0000000000
     38538      5598  TIP3      H2             -5.5951042627        6.6524343159      -34.6776708202  TIP3      5406            0.0000000000
     38539      5599  TIP3      OH2           -14.6028237225        7.6414572249      -29.0274874184  TIP3      5407            0.0000000000
     38540      5599  TIP3      H1            -14.4966191504        8.0735712785      -28.1628112306  TIP3      5407            0.0000000000
     38541      5599  TIP3      H2            -15.0269317212        6.7989974394      -28.7960601823  TIP3      5407            0.0000000000
     38542      5600  TIP3      OH2           -11.0323795344        5.2594028905      -41.8286122743  TIP3      5408            0.0000000000
     38543      5600  TIP3      H1            -11.5857012071        4.6372459319      -41.3103152094  TIP3      5408            0.0000000000
     38544      5600  TIP3      H2            -11.6325607114        5.6503000735      -42.4623147482  TIP3      5408            0.0000000000
     38545      5601  TIP3      OH2           -17.9231054242        4.7461656057      -35.0147291448  TIP3      5409            0.0000000000
     38546      5601  TIP3      H1            -17.2380510619        4.7072458429      -34.3167409086  TIP3      5409            0.0000000000
     38547      5601  TIP3      H2            -17.4771085927        4.3731729931      -35.7977205735  TIP3      5409            0.0000000000
     38548      5602  TIP3      OH2           -16.6234419869        5.4745787753      -39.6522158888  TIP3      5410            0.0000000000
     38549      5602  TIP3      H1            -16.1375842954        6.0598391506      -40.2662787097  TIP3      5410            0.0000000000
     38550      5602  TIP3      H2            -17.3169028561        6.0920871821      -39.3402744227  TIP3      5410            0.0000000000
     38551      5603  TIP3      OH2            -6.4957527053        9.0827743693      -29.6615832970  TIP3      5411            0.0000000000
     38552      5603  TIP3      H1             -6.1116817240        8.3956370187      -30.2435350677  TIP3      5411            0.0000000000
     38553      5603  TIP3      H2             -6.9628613848        8.5566908265      -28.9889312107  TIP3      5411            0.0000000000
     38554      5604  TIP3      OH2            -9.6884459405        5.0687628262      -34.8184139691  TIP3      5412            0.0000000000
     38555      5604  TIP3      H1            -10.6227194811        5.0657315136      -34.5320100505  TIP3      5412            0.0000000000
     38556      5604  TIP3      H2             -9.2081866462        4.8885777505      -33.9991218054  TIP3      5412            0.0000000000
     38557      5605  TIP3      OH2           -14.8839351432        6.6094512495      -35.9502246484  TIP3      5413            0.0000000000
     38558      5605  TIP3      H1            -15.7652819885        6.7667209828      -36.3459756368  TIP3      5413            0.0000000000
     38559      5605  TIP3      H2            -14.5983775558        5.7774664977      -36.3631367144  TIP3      5413            0.0000000000
     38560      5606  TIP3      OH2           -11.2474040091        6.6797194428      -38.3247952358  TIP3      5414            0.0000000000
     38561      5606  TIP3      H1            -10.2887368787        6.7762140552      -38.1594024634  TIP3      5414            0.0000000000
     38562      5606  TIP3      H2            -11.4714987088        7.3291962581      -39.0125014632  TIP3      5414            0.0000000000
     38563      5607  TIP3      OH2            -5.2824689484        4.2992517767      -31.5831202325  TIP3      5415            0.0000000000
     38564      5607  TIP3      H1             -5.9662696519        4.3437234705      -30.8756554172  TIP3      5415            0.0000000000
     38565      5607  TIP3      H2             -5.7938665887        4.0395189919      -32.3634215650  TIP3      5415            0.0000000000
     38566      5608  TIP3      OH2           -12.5431864718        7.8335344571      -40.7248464434  TIP3      5416            0.0000000000
     38567      5608  TIP3      H1            -13.0967798617        7.4876831210      -41.4470643074  TIP3      5416            0.0000000000
     38568      5608  TIP3      H2            -11.7156470485        8.0522194278      -41.1855391100  TIP3      5416            0.0000000000
     38569      5609  TIP3      OH2            -2.0895774862       19.9583308329      -25.2283574789  TIP3      5417            0.0000000000
     38570      5609  TIP3      H1             -1.7915634930       20.3040174716      -26.0930379569  TIP3      5417            0.0000000000
     38571      5609  TIP3      H2             -1.3445634085       20.2415767532      -24.6669846686  TIP3      5417            0.0000000000
     38572      5610  TIP3      OH2           -14.3732559199       12.3837317621      -25.6754823848  TIP3      5418            0.0000000000
     38573      5610  TIP3      H1            -13.7117359762       12.6611488764      -25.0202846279  TIP3      5418            0.0000000000
     38574      5610  TIP3      H2            -15.1816668709       12.5001200548      -25.1178870531  TIP3      5418            0.0000000000
     38575      5611  TIP3      OH2            -8.4106094803        7.8193235073      -32.9283415678  TIP3      5419            0.0000000000
     38576      5611  TIP3      H1             -7.8100396129        7.2855682967      -33.4610061505  TIP3      5419            0.0000000000
     38577      5611  TIP3      H2             -8.5563436880        7.2677505331      -32.1470001615  TIP3      5419            0.0000000000
     38578      5612  TIP3      OH2           -13.3996419733        3.9591954876      -36.4738623577  TIP3      5420            0.0000000000
     38579      5612  TIP3      H1            -13.7111096029        3.0373719932      -36.4953603743  TIP3      5420            0.0000000000
     38580      5612  TIP3      H2            -12.6148871574        3.8955080358      -37.0367751342  TIP3      5420            0.0000000000
     38581      5613  TIP3      OH2            -9.7708288253        6.1433549250      -30.5140887337  TIP3      5421            0.0000000000
     38582      5613  TIP3      H1            -10.5937657455        6.6642461397      -30.4275765365  TIP3      5421            0.0000000000
     38583      5613  TIP3      H2             -9.2138938735        6.4993366878      -29.7950789371  TIP3      5421            0.0000000000
     38584      5614  TIP3      OH2            -9.1751756503       12.3409327512      -38.7854334089  TIP3      5422            0.0000000000
     38585      5614  TIP3      H1             -9.9785860658       11.8975279666      -39.1315113022  TIP3      5422            0.0000000000
     38586      5614  TIP3      H2             -9.4111956830       12.4808838325      -37.8484231612  TIP3      5422            0.0000000000
     38587      5615  TIP3      OH2            -1.9876610512       11.5765604559      -30.0148302854  TIP3      5423            0.0000000000
     38588      5615  TIP3      H1             -1.4312900751       12.0553041945      -30.6562980663  TIP3      5423            0.0000000000
     38589      5615  TIP3      H2             -2.8508166981       11.6135010309      -30.4746687151  TIP3      5423            0.0000000000
     38590      5616  TIP3      OH2            -5.3091287160        5.1595655825      -40.6285923917  TIP3      5424            0.0000000000
     38591      5616  TIP3      H1             -6.2544128556        5.3164928564      -40.8058423389  TIP3      5424            0.0000000000
     38592      5616  TIP3      H2             -5.0113632323        6.0334690609      -40.3181265517  TIP3      5424            0.0000000000
     38593      5617  TIP3      OH2            -7.6873803559       12.6417742508      -27.5744780182  TIP3      5425            0.0000000000
     38594      5617  TIP3      H1             -8.0323740529       12.2049154437      -26.7892610482  TIP3      5425            0.0000000000
     38595      5617  TIP3      H2             -7.9503632684       13.5607588771      -27.4612589077  TIP3      5425            0.0000000000
     38596      5618  TIP3      OH2            -4.6129342152        7.1106526927      -38.9642357805  TIP3      5426            0.0000000000
     38597      5618  TIP3      H1             -3.7180498327        6.9683928657      -38.6002086732  TIP3      5426            0.0000000000
     38598      5618  TIP3      H2             -4.5184791477        7.9171771506      -39.4941935367  TIP3      5426            0.0000000000
     38599      5619  TIP3      OH2           -14.0671033714       11.7689671225      -33.0132410445  TIP3      5427            0.0000000000
     38600      5619  TIP3      H1            -13.3895408475       11.6808558447      -33.7111331831  TIP3      5427            0.0000000000
     38601      5619  TIP3      H2            -14.0128658820       10.9087735069      -32.5594213117  TIP3      5427            0.0000000000
     38602      5620  TIP3      OH2            -7.0835111547       13.8331457507      -39.7430224623  TIP3      5428            0.0000000000
     38603      5620  TIP3      H1             -7.4450958495       14.6830957084      -39.4128173455  TIP3      5428            0.0000000000
     38604      5620  TIP3      H2             -7.8219213518       13.2058320386      -39.5713144706  TIP3      5428            0.0000000000
     38605      5621  TIP3      OH2           -17.0902539868       10.1895185338      -27.7603545609  TIP3      5429            0.0000000000
     38606      5621  TIP3      H1            -16.9159709451        9.7360101800      -26.9178594407  TIP3      5429            0.0000000000
     38607      5621  TIP3      H2            -17.7086247755        9.5657841430      -28.1882968951  TIP3      5429            0.0000000000
     38608      5622  TIP3      OH2           -10.0758956672        9.7127309293      -25.5889992846  TIP3      5430            0.0000000000
     38609      5622  TIP3      H1            -10.3885990021        9.4094850359      -26.4576844784  TIP3      5430            0.0000000000
     38610      5622  TIP3      H2             -9.1467826484        9.4148305997      -25.6111259841  TIP3      5430            0.0000000000
     38611      5623  TIP3      OH2            -5.3795971903       15.0692560209      -27.6210833247  TIP3      5431            0.0000000000
     38612      5623  TIP3      H1             -6.3051832383       15.2409719097      -27.8566646083  TIP3      5431            0.0000000000
     38613      5623  TIP3      H2             -5.4194083508       15.3564378848      -26.6875911905  TIP3      5431            0.0000000000
     38614      5624  TIP3      OH2             0.2859333118        7.2470302914      -39.2048472828  TIP3      5432            0.0000000000
     38615      5624  TIP3      H1             -0.2728769287        6.9266107558      -39.9360474748  TIP3      5432            0.0000000000
     38616      5624  TIP3      H2              0.3594020823        8.1721695565      -39.5082928308  TIP3      5432            0.0000000000
     38617      5625  TIP3      OH2             0.2736009697       13.1008951859      -26.4219630189  TIP3      5433            0.0000000000
     38618      5625  TIP3      H1             -0.6183863192       13.3234927679      -26.7853914555  TIP3      5433            0.0000000000
     38619      5625  TIP3      H2              0.8178349276       13.0590079997      -27.2381072314  TIP3      5433            0.0000000000
     38620      5626  TIP3      OH2            -1.3421417210       16.0136245308      -38.8336813165  TIP3      5434            0.0000000000
     38621      5626  TIP3      H1             -1.8462461972       15.2544195225      -38.5153234285  TIP3      5434            0.0000000000
     38622      5626  TIP3      H2             -1.1863542289       15.8595764444      -39.7738801245  TIP3      5434            0.0000000000
     38623      5627  TIP3      OH2            -4.2140034792       10.8853675937      -31.7310031334  TIP3      5435            0.0000000000
     38624      5627  TIP3      H1             -5.1547820097       10.6798993393      -31.8452623019  TIP3      5435            0.0000000000
     38625      5627  TIP3      H2             -3.7838182536       10.1291978634      -32.1723410773  TIP3      5435            0.0000000000
     38626      5628  TIP3      OH2           -11.7008274557       15.2164525731      -35.6283507661  TIP3      5436            0.0000000000
     38627      5628  TIP3      H1            -11.1998262165       16.0232775509      -35.8353163718  TIP3      5436            0.0000000000
     38628      5628  TIP3      H2            -12.5770186179       15.4497570460      -35.9624075303  TIP3      5436            0.0000000000
     38629      5629  TIP3      OH2           -16.0097979800       10.2208687047      -41.2449311078  TIP3      5437            0.0000000000
     38630      5629  TIP3      H1            -15.3345528240       10.6562461526      -40.6765172503  TIP3      5437            0.0000000000
     38631      5629  TIP3      H2            -16.8147001575       10.3035422743      -40.6897621728  TIP3      5437            0.0000000000
     38632      5630  TIP3      OH2           -10.2820802136       12.8795995937      -36.1096668588  TIP3      5438            0.0000000000
     38633      5630  TIP3      H1            -10.6016495938       13.8001731496      -36.0304326714  TIP3      5438            0.0000000000
     38634      5630  TIP3      H2            -11.0000314707       12.3873970794      -35.6657014707  TIP3      5438            0.0000000000
     38635      5631  TIP3      OH2            -9.8329839295       17.0698031431      -29.6968038013  TIP3      5439            0.0000000000
     38636      5631  TIP3      H1             -9.3699541596       17.8705464045      -29.9882547137  TIP3      5439            0.0000000000
     38637      5631  TIP3      H2             -9.2149947220       16.7226257902      -29.0287522029  TIP3      5439            0.0000000000
     38638      5632  TIP3      OH2           -11.6019909687       17.8780750949      -36.6009568395  TIP3      5440            0.0000000000
     38639      5632  TIP3      H1            -12.5662264673       18.0127085494      -36.4440977422  TIP3      5440            0.0000000000
     38640      5632  TIP3      H2            -11.2428687732       18.7087882257      -36.2395734779  TIP3      5440            0.0000000000
     38641      5633  TIP3      OH2            -6.3241324486       13.0567320408      -30.0991563712  TIP3      5441            0.0000000000
     38642      5633  TIP3      H1             -6.6313260440       12.8740186386      -29.1843340098  TIP3      5441            0.0000000000
     38643      5633  TIP3      H2             -5.6722151303       12.3549272911      -30.2575689856  TIP3      5441            0.0000000000
     38644      5634  TIP3      OH2            -4.0224642953       14.0991566453      -40.9517365926  TIP3      5442            0.0000000000
     38645      5634  TIP3      H1             -3.7336575835       13.6457845586      -40.1365674557  TIP3      5442            0.0000000000
     38646      5634  TIP3      H2             -4.9786789092       13.9407209718      -40.8977037659  TIP3      5442            0.0000000000
     38647      5635  TIP3      OH2            -3.4768781104       17.6371250141      -27.5968882548  TIP3      5443            0.0000000000
     38648      5635  TIP3      H1             -4.1839905226       17.1518678896      -28.0628953018  TIP3      5443            0.0000000000
     38649      5635  TIP3      H2             -3.3127863128       18.3463572492      -28.2547694667  TIP3      5443            0.0000000000
     38650      5636  TIP3      OH2             0.5027936274       18.5069334082      -40.7591946157  TIP3      5444            0.0000000000
     38651      5636  TIP3      H1              1.1842216462       19.1710142288      -40.9794800676  TIP3      5444            0.0000000000
     38652      5636  TIP3      H2             -0.2148149183       19.1108101985      -40.4456587722  TIP3      5444            0.0000000000
     38653      5637  TIP3      OH2           -15.4325609537        4.9184056231      -28.1595009103  TIP3      5445            0.0000000000
     38654      5637  TIP3      H1            -16.3504669733        5.2337151059      -28.2479083619  TIP3      5445            0.0000000000
     38655      5637  TIP3      H2            -15.5513282963        4.0395732242      -27.7552378230  TIP3      5445            0.0000000000
     38656      5638  TIP3      OH2            -3.1869589790       12.7648618859      -38.7374028418  TIP3      5446            0.0000000000
     38657      5638  TIP3      H1             -3.4475261416       11.9564442598      -38.2449913769  TIP3      5446            0.0000000000
     38658      5638  TIP3      H2             -2.2461775506       12.8274653077      -38.5409272117  TIP3      5446            0.0000000000
     38659      5639  TIP3      OH2           -15.8201759353       16.6845791801      -29.7738688990  TIP3      5447            0.0000000000
     38660      5639  TIP3      H1            -15.5151754373       15.7635007872      -29.7671646785  TIP3      5447            0.0000000000
     38661      5639  TIP3      H2            -15.5607820766       16.9820204299      -28.8916882219  TIP3      5447            0.0000000000
     38662      5640  TIP3      OH2           -11.0821928104       14.7727304562      -40.0649616271  TIP3      5448            0.0000000000
     38663      5640  TIP3      H1            -10.7954209545       14.2157621945      -39.3258017357  TIP3      5448            0.0000000000
     38664      5640  TIP3      H2            -10.9825824443       15.6822079918      -39.7153996728  TIP3      5448            0.0000000000
     38665      5641  TIP3      OH2           -14.6181536169       11.9996877467      -39.6627292439  TIP3      5449            0.0000000000
     38666      5641  TIP3      H1            -15.2244243602       12.4022051939      -39.0006000984  TIP3      5449            0.0000000000
     38667      5641  TIP3      H2            -14.0010027716       12.7374336491      -39.8226593234  TIP3      5449            0.0000000000
     38668      5642  TIP3      OH2            -6.7018104199        4.6754936967      -29.2298779889  TIP3      5450            0.0000000000
     38669      5642  TIP3      H1             -5.9798795270        4.7289309714      -28.5974521402  TIP3      5450            0.0000000000
     38670      5642  TIP3      H2             -7.0842632552        3.7952351550      -29.0412105254  TIP3      5450            0.0000000000
     38671      5643  TIP3      OH2            -5.9680553067        4.2552398822      -38.1365923578  TIP3      5451            0.0000000000
     38672      5643  TIP3      H1             -5.7141546693        4.7074051987      -38.9674742115  TIP3      5451            0.0000000000
     38673      5643  TIP3      H2             -5.3791671599        4.6862370073      -37.5061999461  TIP3      5451            0.0000000000
     38674      5644  TIP3      OH2            -8.2712622884       16.4197507327      -39.3243650370  TIP3      5452            0.0000000000
     38675      5644  TIP3      H1             -9.0895703522       16.9397170689      -39.2708343057  TIP3      5452            0.0000000000
     38676      5644  TIP3      H2             -7.7258843531       16.9104668348      -39.9645221755  TIP3      5452            0.0000000000
     38677      5645  TIP3      OH2            -8.7328222509        5.9869941669      -37.3446776597  TIP3      5453            0.0000000000
     38678      5645  TIP3      H1             -7.9518517876        6.5757199528      -37.3136511490  TIP3      5453            0.0000000000
     38679      5645  TIP3      H2             -8.9989323186        5.8651266197      -36.4149719961  TIP3      5453            0.0000000000
     38680      5646  TIP3      OH2            -8.1807838778        7.0186916168      -28.1515049432  TIP3      5454            0.0000000000
     38681      5646  TIP3      H1             -8.0889591286        7.5914450558      -27.3651691695  TIP3      5454            0.0000000000
     38682      5646  TIP3      H2             -7.5068716079        6.3307102839      -28.0663563533  TIP3      5454            0.0000000000
     38683      5647  TIP3      OH2            -7.8781107169        3.0482898686      -36.4704535171  TIP3      5455            0.0000000000
     38684      5647  TIP3      H1             -8.2014088085        3.6988947364      -35.8251686192  TIP3      5455            0.0000000000
     38685      5647  TIP3      H2             -7.1798162310        3.5961067809      -36.9092918451  TIP3      5455            0.0000000000
     38686      5648  TIP3      OH2           -10.8904261656       17.4551884275      -39.3025625124  TIP3      5456            0.0000000000
     38687      5648  TIP3      H1            -10.7167850214       18.2745088948      -39.8107213428  TIP3      5456            0.0000000000
     38688      5648  TIP3      H2            -11.1460698278       17.7993596582      -38.4154547550  TIP3      5456            0.0000000000
     38689      5649  TIP3      OH2           -12.2175029914        4.1405684234      -39.6899047882  TIP3      5457            0.0000000000
     38690      5649  TIP3      H1            -12.2760700808        5.0617575758      -39.3668043565  TIP3      5457            0.0000000000
     38691      5649  TIP3      H2            -11.2994262438        3.9219902474      -39.4390924396  TIP3      5457            0.0000000000
     38692      5650  TIP3      OH2            -1.9955605116        4.8820346719      -27.2535098685  TIP3      5458            0.0000000000
     38693      5650  TIP3      H1             -2.9213674785        5.1915948626      -27.4096398935  TIP3      5458            0.0000000000
     38694      5650  TIP3      H2             -1.6890388917        4.8660275303      -28.1847558095  TIP3      5458            0.0000000000
     38695      5651  TIP3      OH2            -3.3731657853        8.6750304960      -33.3029669539  TIP3      5459            0.0000000000
     38696      5651  TIP3      H1             -4.2023925227        8.2295212364      -33.5687240059  TIP3      5459            0.0000000000
     38697      5651  TIP3      H2             -2.8975224425        7.9912717128      -32.7796197078  TIP3      5459            0.0000000000
     38698      5652  TIP3      OH2           -13.9947562292       14.6006014829      -40.7247979402  TIP3      5460            0.0000000000
     38699      5652  TIP3      H1            -13.3402634960       15.2202618250      -40.3753258208  TIP3      5460            0.0000000000
     38700      5652  TIP3      H2            -13.4378014638       14.1317711660      -41.3750882431  TIP3      5460            0.0000000000
     38701      5653  TIP3      OH2           -15.5801812721        7.2929411612      -41.5132005186  TIP3      5461            0.0000000000
     38702      5653  TIP3      H1            -15.6139446761        8.2460182669      -41.3785881834  TIP3      5461            0.0000000000
     38703      5653  TIP3      H2            -16.4554053800        7.0713075090      -41.8599902530  TIP3      5461            0.0000000000
     38704      5654  TIP3      OH2            -2.3166742962       17.9417034318      -31.6236295023  TIP3      5462            0.0000000000
     38705      5654  TIP3      H1             -2.4033861531       18.6196813544      -32.3203758222  TIP3      5462            0.0000000000
     38706      5654  TIP3      H2             -1.3516624432       17.9892312971      -31.4505506400  TIP3      5462            0.0000000000
     38707      5655  TIP3      OH2           -14.8253605165        2.0541814565      -32.8098993145  TIP3      5463            0.0000000000
     38708      5655  TIP3      H1            -15.0119375508        2.0755688772      -33.7771082481  TIP3      5463            0.0000000000
     38709      5655  TIP3      H2            -15.2349722816        1.1981353845      -32.5648351102  TIP3      5463            0.0000000000
     38710      5656  TIP3      OH2           -15.8686132887       15.9801620543      -36.6681034570  TIP3      5464            0.0000000000
     38711      5656  TIP3      H1            -16.7266751239       16.4188805674      -36.7163116096  TIP3      5464            0.0000000000
     38712      5656  TIP3      H2            -15.4017908253       16.4390681130      -37.3799195514  TIP3      5464            0.0000000000
     38713      5657  TIP3      OH2           -16.5946116118       18.6347332855      -25.4020098545  TIP3      5465            0.0000000000
     38714      5657  TIP3      H1            -16.0471186334       18.3944336507      -24.6473814735  TIP3      5465            0.0000000000
     38715      5657  TIP3      H2            -17.0691876306       17.7987297395      -25.5505679322  TIP3      5465            0.0000000000
     38716      5658  TIP3      OH2           -12.0155109146       17.4649043280      -23.7877492245  TIP3      5466            0.0000000000
     38717      5658  TIP3      H1            -11.2131390463       17.0484465262      -23.4708883537  TIP3      5466            0.0000000000
     38718      5658  TIP3      H2            -12.0159359676       17.2803578867      -24.7385161106  TIP3      5466            0.0000000000
     38719      5659  TIP3      OH2            -7.4685125904       17.1068806765      -41.7850140042  TIP3      5467            0.0000000000
     38720      5659  TIP3      H1             -8.3141023349       16.6340478884      -41.8926606530  TIP3      5467            0.0000000000
     38721      5659  TIP3      H2             -6.9676906087       16.6686994340      -42.4769292852  TIP3      5467            0.0000000000
     38722      5660  TIP3      OH2            -5.4880708255       15.9271005479      -25.0543472351  TIP3      5468            0.0000000000
     38723      5660  TIP3      H1             -5.7977120790       15.0429850885      -24.7654800537  TIP3      5468            0.0000000000
     38724      5660  TIP3      H2             -4.7220720436       16.0627036562      -24.4645707182  TIP3      5468            0.0000000000
     38725      5661  TIP3      OH2            -3.2623135039       16.8415406944      -42.1791313136  TIP3      5469            0.0000000000
     38726      5661  TIP3      H1             -3.0476311024       16.0173116401      -41.7014401937  TIP3      5469            0.0000000000
     38727      5661  TIP3      H2             -2.4899853339       17.0276055657      -42.7241069064  TIP3      5469            0.0000000000
     38728      5662  TIP3      OH2           -16.7060231369       12.3738337593      -24.4405739814  TIP3      5470            0.0000000000
     38729      5662  TIP3      H1            -16.5839000963       11.4704062500      -24.7509486793  TIP3      5470            0.0000000000
     38730      5662  TIP3      H2            -17.4898693077       12.6732320202      -24.9213112642  TIP3      5470            0.0000000000
     38731      5663  TIP3      OH2           -12.4003378404       12.7835037234      -42.2705313213  TIP3      5471            0.0000000000
     38732      5663  TIP3      H1            -12.2410103168       11.9895824789      -41.7505507024  TIP3      5471            0.0000000000
     38733      5663  TIP3      H2            -11.7661121733       12.5971002894      -42.9905175453  TIP3      5471            0.0000000000
     38734      5664  TIP3      OH2           -10.0318651660       12.3901587550      -25.0057199850  TIP3      5472            0.0000000000
     38735      5664  TIP3      H1            -10.3634479938       12.7126285748      -25.8696517432  TIP3      5472            0.0000000000
     38736      5664  TIP3      H2             -9.9705912316       11.4119578896      -25.1190631778  TIP3      5472            0.0000000000
     38737      5665  TIP3      OH2            -4.3470329098       12.2464737863      -27.6168201422  TIP3      5473            0.0000000000
     38738      5665  TIP3      H1             -3.5550239683       12.8266817777      -27.6712816242  TIP3      5473            0.0000000000
     38739      5665  TIP3      H2             -5.0411089697       12.9200992008      -27.5779694006  TIP3      5473            0.0000000000
     38740      5666  TIP3      OH2           -15.7305714908        9.6757730681      -24.9648950823  TIP3      5474            0.0000000000
     38741      5666  TIP3      H1            -15.4707975129        8.7675896225      -25.1155289695  TIP3      5474            0.0000000000
     38742      5666  TIP3      H2            -16.1432407904        9.6512962785      -24.0953630429  TIP3      5474            0.0000000000
     38743      5667  TIP3      OH2           -11.1888437127       10.7957089215      -39.9470446657  TIP3      5475            0.0000000000
     38744      5667  TIP3      H1            -11.6965958485       10.2554005026      -39.3195938571  TIP3      5475            0.0000000000
     38745      5667  TIP3      H2            -10.8775511793       10.1026876446      -40.5800781172  TIP3      5475            0.0000000000
     38746      5668  TIP3      OH2           -11.9572121504        8.5701640526      -27.6459968814  TIP3      5476            0.0000000000
     38747      5668  TIP3      H1            -12.5246560773        9.3200921241      -27.3993638313  TIP3      5476            0.0000000000
     38748      5668  TIP3      H2            -11.5388911275        8.9273831121      -28.4509769459  TIP3      5476            0.0000000000
     38749      5669  TIP3      OH2           -10.1306609786        9.0228509847      -41.7503882980  TIP3      5477            0.0000000000
     38750      5669  TIP3      H1            -10.2231229200        8.8046294402      -42.6872903876  TIP3      5477            0.0000000000
     38751      5669  TIP3      H2             -9.1489379725        9.0759783289      -41.6339736024  TIP3      5477            0.0000000000
     38752      5670  TIP3      OH2            -6.8663393751       11.1743331986      -24.2578196155  TIP3      5478            0.0000000000
     38753      5670  TIP3      H1             -5.9139755255       11.1001314637      -24.4066071793  TIP3      5478            0.0000000000
     38754      5670  TIP3      H2             -7.0409765070       10.3790491741      -23.7351736472  TIP3      5478            0.0000000000
     38755      5671  TIP3      OH2            -0.9231703685       11.4377218365       42.7573605373  TIP3      5479            0.0000000000
     38756      5671  TIP3      H1             -1.0530769804       10.9315696478       41.9375585994  TIP3      5479            0.0000000000
     38757      5671  TIP3      H2             -0.7452036325       12.3373192922       42.4739468704  TIP3      5479            0.0000000000
     38758      5672  TIP3      OH2           -11.5556449475        5.9613597949      -26.5808180983  TIP3      5480            0.0000000000
     38759      5672  TIP3      H1            -11.4071792382        5.2563018280      -27.2450545582  TIP3      5480            0.0000000000
     38760      5672  TIP3      H2            -11.5649692370        6.7631000598      -27.1420811301  TIP3      5480            0.0000000000
     38761      5673  TIP3      OH2           -11.1284638906        4.3368566857      -29.0430678024  TIP3      5481            0.0000000000
     38762      5673  TIP3      H1            -10.6149643544        4.8041649298      -29.7444126706  TIP3      5481            0.0000000000
     38763      5673  TIP3      H2            -12.0176041706        4.2526958404      -29.4544843238  TIP3      5481            0.0000000000
     38764      5674  TIP3      OH2            -9.5889655354        9.8260202317      -28.7863415521  TIP3      5482            0.0000000000
     38765      5674  TIP3      H1             -8.8381612203        9.6570061917      -29.3671838982  TIP3      5482            0.0000000000
     38766      5674  TIP3      H2             -9.9549758018       10.6546629860      -29.1385510094  TIP3      5482            0.0000000000
     38767      5675  TIP3      OH2            -5.2081196143        7.5605300231      -23.8493564019  TIP3      5483            0.0000000000
     38768      5675  TIP3      H1             -4.9783624071        6.6196287335      -23.8470141253  TIP3      5483            0.0000000000
     38769      5675  TIP3      H2             -4.3490713562        8.0208390350      -23.8083127572  TIP3      5483            0.0000000000
     38770      5676  TIP3      OH2            -3.8486634842       10.3723440041      -25.6975455811  TIP3      5484            0.0000000000
     38771      5676  TIP3      H1             -4.0962616612       11.1004283806      -26.3077508582  TIP3      5484            0.0000000000
     38772      5676  TIP3      H2             -2.8908075984       10.3402380112      -25.8660208698  TIP3      5484            0.0000000000
     38773      5677  TIP3      OH2           -13.0737681010        7.1114722534      -24.5946790120  TIP3      5485            0.0000000000
     38774      5677  TIP3      H1            -13.8407181832        6.6512928083      -24.9383707516  TIP3      5485            0.0000000000
     38775      5677  TIP3      H2            -12.4189469493        6.8548046079      -25.2843514978  TIP3      5485            0.0000000000
     38776      5678  TIP3      OH2           -10.3458715357        1.7691415738      -28.6510490767  TIP3      5486            0.0000000000
     38777      5678  TIP3      H1            -10.5299267560        2.7346772308      -28.7448951610  TIP3      5486            0.0000000000
     38778      5678  TIP3      H2            -11.0928588442        1.4034340002      -29.1541904208  TIP3      5486            0.0000000000
     38779      5679  TIP3      OH2            -9.1018503802        6.1032420870      -25.0524875112  TIP3      5487            0.0000000000
     38780      5679  TIP3      H1             -9.3715527288        5.8317826072      -24.1583076280  TIP3      5487            0.0000000000
     38781      5679  TIP3      H2             -9.9017361266        5.8700023744      -25.5554759747  TIP3      5487            0.0000000000
     38782      5680  TIP3      OH2            -6.3275155030        5.2419050841      -25.8986682540  TIP3      5488            0.0000000000
     38783      5680  TIP3      H1             -7.3046099200        5.2926468806      -25.8368468046  TIP3      5488            0.0000000000
     38784      5680  TIP3      H2             -6.1338153409        4.5692861638      -25.2278341508  TIP3      5488            0.0000000000
     38785      5681  TIP3      OH2           -10.1314496351        1.1219497898      -25.9812345199  TIP3      5489            0.0000000000
     38786      5681  TIP3      H1             -9.4193971489        0.4558665364      -25.9709459904  TIP3      5489            0.0000000000
     38787      5681  TIP3      H2            -10.2361893155        1.3005415143      -26.9328959653  TIP3      5489            0.0000000000
     38788      5682  TIP3      OH2            -9.6880416914        2.8486495455      -23.9440608599  TIP3      5490            0.0000000000
     38789      5682  TIP3      H1             -9.9382021228        2.2486193727      -24.6661626957  TIP3      5490            0.0000000000
     38790      5682  TIP3      H2            -10.3805645314        3.5166372517      -23.9061896643  TIP3      5490            0.0000000000
     38791      5683  TIP3      OH2           -10.2957949106       19.6840663722      -40.7323295751  TIP3      5491            0.0000000000
     38792      5683  TIP3      H1             -9.3237298467       19.7794622984      -40.5994465398  TIP3      5491            0.0000000000
     38793      5683  TIP3      H2            -10.4590671176       20.3579756384      -41.3905012141  TIP3      5491            0.0000000000
     38794      5684  TIP3      OH2           -16.7185625088       14.2220074831      -41.1850636095  TIP3      5492            0.0000000000
     38795      5684  TIP3      H1            -15.7723352390       14.4166155859      -40.9556322605  TIP3      5492            0.0000000000
     38796      5684  TIP3      H2            -16.5911631872       13.7474231677      -41.9935814611  TIP3      5492            0.0000000000
     38797      5685  TIP3      OH2           -17.9637741928       19.6496455651      -36.2271638775  TIP3      5493            0.0000000000
     38798      5685  TIP3      H1            -18.6769193417       19.1596445855      -36.6927850099  TIP3      5493            0.0000000000
     38799      5685  TIP3      H2            -17.6787872797       18.9938621649      -35.5658041805  TIP3      5493            0.0000000000
     38800      5686  TIP3      OH2           -17.1345694827       17.7853375218      -34.3497418291  TIP3      5494            0.0000000000
     38801      5686  TIP3      H1            -17.4910666010       16.9087542132      -34.1461401957  TIP3      5494            0.0000000000
     38802      5686  TIP3      H2            -16.9076698833       18.1170258566      -33.4667744956  TIP3      5494            0.0000000000
     38803      5687  TIP3      OH2             0.4050480471       18.5801882471      -31.4280487566  TIP3      5495            0.0000000000
     38804      5687  TIP3      H1              0.4359827839       18.7389864529      -30.4685691454  TIP3      5495            0.0000000000
     38805      5687  TIP3      H2              1.1072850543       19.1649948781      -31.7301331641  TIP3      5495            0.0000000000
     38806      5688  TIP3      OH2            -0.0052015404       18.1618637658      -28.4831301046  TIP3      5496            0.0000000000
     38807      5688  TIP3      H1             -0.4916348900       17.4008518452      -28.8628423962  TIP3      5496            0.0000000000
     38808      5688  TIP3      H2              0.4943633354       17.7060818171      -27.7835682231  TIP3      5496            0.0000000000
     38809      5689  TIP3      OH2            -1.5669708922       13.8918990093      -23.8130080932  TIP3      5497            0.0000000000
     38810      5689  TIP3      H1             -2.4631708677       13.8346777100      -23.4295875512  TIP3      5497            0.0000000000
     38811      5689  TIP3      H2             -1.2082130123       14.6919657654      -23.3891149066  TIP3      5497            0.0000000000
     38812      5690  TIP3      OH2            -0.2313942550       12.2189463134      -38.4077065419  TIP3      5498            0.0000000000
     38813      5690  TIP3      H1              0.5804261400       12.6900470763      -38.2079218257  TIP3      5498            0.0000000000
     38814      5690  TIP3      H2             -0.3258152223       11.5163364592      -37.7253877413  TIP3      5498            0.0000000000
     38815      5691  TIP3      OH2             0.1272123721       10.3627555050      -36.4691322312  TIP3      5499            0.0000000000
     38816      5691  TIP3      H1             -0.6543888606        9.8181278045      -36.1693300167  TIP3      5499            0.0000000000
     38817      5691  TIP3      H2              0.6515265687       10.3461976905      -35.6465549865  TIP3      5499            0.0000000000
     38818      5692  TIP3      OH2            -0.1449936982       12.9971756438      -31.5315359450  TIP3      5500            0.0000000000
     38819      5692  TIP3      H1              0.6935125590       12.6290180854      -31.8593749799  TIP3      5500            0.0000000000
     38820      5692  TIP3      H2             -0.0030607382       13.9568789117      -31.6632572842  TIP3      5500            0.0000000000
     38821      5693  TIP3      OH2            -1.5916021349       15.9061295462      -29.2368232126  TIP3      5501            0.0000000000
     38822      5693  TIP3      H1             -2.2817124883       16.2473038178      -28.6488728167  TIP3      5501            0.0000000000
     38823      5693  TIP3      H2             -2.1357397007       15.5033565088      -29.9461978619  TIP3      5501            0.0000000000
     38824      5694  TIP3      OH2             0.4070090751       10.1396519549      -40.1265658889  TIP3      5502            0.0000000000
     38825      5694  TIP3      H1             -0.1978973675       10.4541716980      -40.8265172273  TIP3      5502            0.0000000000
     38826      5694  TIP3      H2              0.2716928597       10.8253281965      -39.4557591695  TIP3      5502            0.0000000000
     38827      5695  TIP3      OH2            -1.6247564134        7.3857166543      -41.4826903724  TIP3      5503            0.0000000000
     38828      5695  TIP3      H1             -1.1637731808        7.9675044934      -42.1065436232  TIP3      5503            0.0000000000
     38829      5695  TIP3      H2             -1.4386166166        6.5377487948      -41.9337192692  TIP3      5503            0.0000000000
     38830      5696  TIP3      OH2            -2.0489928867        8.7986917054      -35.9164018107  TIP3      5504            0.0000000000
     38831      5696  TIP3      H1             -2.2184215932        7.8443654770      -35.9829621965  TIP3      5504            0.0000000000
     38832      5696  TIP3      H2             -2.4197119098        8.9814488843      -35.0298856306  TIP3      5504            0.0000000000
     38833      5697  TIP3      OH2           -17.0767970660       10.8633541462      -31.8565297914  TIP3      5505            0.0000000000
     38834      5697  TIP3      H1            -16.9096969329       10.7694968687      -32.8199632453  TIP3      5505            0.0000000000
     38835      5697  TIP3      H2            -16.1821377516       10.6823051437      -31.5075743335  TIP3      5505            0.0000000000
     38836      5698  TIP3      OH2            -1.2201673514       10.7493848193      -26.2347813860  TIP3      5506            0.0000000000
     38837      5698  TIP3      H1             -0.6038797767        9.9960370083      -26.1214071422  TIP3      5506            0.0000000000
     38838      5698  TIP3      H2             -0.6186205747       11.5239165075      -26.2311675508  TIP3      5506            0.0000000000
     38839      5699  TIP3      OH2             0.2696061614        8.6279727697      -25.6301330102  TIP3      5507            0.0000000000
     38840      5699  TIP3      H1             -0.6155307582        8.2319736642      -25.7725379746  TIP3      5507            0.0000000000
     38841      5699  TIP3      H2              0.8450293535        7.8428544456      -25.6541702523  TIP3      5507            0.0000000000
     38842      5700  TIP3      OH2            -1.9741411701        4.7643366452      -42.4892136955  TIP3      5508            0.0000000000
     38843      5700  TIP3      H1             -1.4027025252        4.3511068841      -41.8110844790  TIP3      5508            0.0000000000
     38844      5700  TIP3      H2             -2.8688277338        4.4478739617      -42.2765826239  TIP3      5508            0.0000000000
     38845      5701  TIP3      OH2            -2.4180146900        6.3579105771      -37.4386633874  TIP3      5509            0.0000000000
     38846      5701  TIP3      H1             -2.1209528151        5.4238516313      -37.3285803592  TIP3      5509            0.0000000000
     38847      5701  TIP3      H2             -1.6387353538        6.7533019381      -37.8515701532  TIP3      5509            0.0000000000
     38848      5702  TIP3      OH2            -1.7742621890        6.9015206556      -32.0188498340  TIP3      5510            0.0000000000
     38849      5702  TIP3      H1             -0.8137742874        7.1319524096      -32.0383055343  TIP3      5510            0.0000000000
     38850      5702  TIP3      H2             -1.9594873289        7.0424079250      -31.0782211868  TIP3      5510            0.0000000000
     38851      5703  TIP3      OH2            -1.7102606290        7.6186524954      -29.2421155812  TIP3      5511            0.0000000000
     38852      5703  TIP3      H1             -2.5918468057        7.9048490077      -28.9205673749  TIP3      5511            0.0000000000
     38853      5703  TIP3      H2             -1.2761433370        8.4796973247      -29.4599120317  TIP3      5511            0.0000000000
     38854      5704  TIP3      OH2           -17.4116005968        6.1929347116      -25.6542503489  TIP3      5512            0.0000000000
     38855      5704  TIP3      H1            -16.5086119079        5.9104825143      -25.5553815481  TIP3      5512            0.0000000000
     38856      5704  TIP3      H2            -17.9098659373        5.3742538992      -25.4147908673  TIP3      5512            0.0000000000
     38857      5705  TIP3      OH2            -1.7404659034        3.6357064936      -37.4201440585  TIP3      5513            0.0000000000
     38858      5705  TIP3      H1             -1.5280917206        3.2064377068      -36.5613390972  TIP3      5513            0.0000000000
     38859      5705  TIP3      H2             -2.3478379055        3.0004129625      -37.8572691508  TIP3      5513            0.0000000000
     38860      5706  TIP3      OH2           -16.2551630288        4.4535292960      -32.8582495006  TIP3      5514            0.0000000000
     38861      5706  TIP3      H1            -15.7993276030        3.6242864254      -32.6034159532  TIP3      5514            0.0000000000
     38862      5706  TIP3      H2            -15.7016658979        5.1430098133      -32.4683318332  TIP3      5514            0.0000000000
     38863      5707  TIP3      OH2           -17.9778837745        7.4494067221      -31.8280136480  TIP3      5515            0.0000000000
     38864      5707  TIP3      H1            -17.4064669294        7.2058207575      -32.5837132217  TIP3      5515            0.0000000000
     38865      5707  TIP3      H2            -17.5210621200        8.2521041290      -31.5402839438  TIP3      5515            0.0000000000
     38866      5708  TIP3      OH2             0.0610457170        3.8031329904      -25.5103431255  TIP3      5516            0.0000000000
     38867      5708  TIP3      H1             -0.8636944936        4.0406814535      -25.6700297663  TIP3      5516            0.0000000000
     38868      5708  TIP3      H2              0.1811852798        3.2391748760      -26.2941926043  TIP3      5516            0.0000000000
     38869      5709  TIP3      OH2             0.0686470467        3.7070363989      -40.8555244147  TIP3      5517            0.0000000000
     38870      5709  TIP3      H1              0.4979018232        2.9926950689      -41.3548189609  TIP3      5517            0.0000000000
     38871      5709  TIP3      H2              0.7966787836        4.3523017161      -40.8350386322  TIP3      5517            0.0000000000
     38872      5710  TIP3      OH2           -17.6241564234        3.7149426030      -37.7617061083  TIP3      5518            0.0000000000
     38873      5710  TIP3      H1            -18.5669071486        3.8901905618      -37.9115740501  TIP3      5518            0.0000000000
     38874      5710  TIP3      H2            -17.2023452630        4.2091840895      -38.4856117374  TIP3      5518            0.0000000000
     38875      5711  TIP3      OH2            -2.8724671732       18.6608633331      -35.7992898723  TIP3      5519            0.0000000000
     38876      5711  TIP3      H1             -2.1843457633       18.3611941013      -36.4189921768  TIP3      5519            0.0000000000
     38877      5711  TIP3      H2             -2.3620969084       19.1605420222      -35.1448008929  TIP3      5519            0.0000000000
     38878      5712  TIP3      OH2           -17.6004902299        2.3752178899      -29.4745284169  TIP3      5520            0.0000000000
     38879      5712  TIP3      H1            -18.2962295270        2.1539630761      -28.8044949548  TIP3      5520            0.0000000000
     38880      5712  TIP3      H2            -18.0987875861        3.0403372325      -29.9874903382  TIP3      5520            0.0000000000
     38881      5713  TIP3      OH2           -15.4362052010       15.6385351489      -25.2641998430  TIP3      5521            0.0000000000
     38882      5713  TIP3      H1            -16.2861011188       15.7453922668      -25.7182220989  TIP3      5521            0.0000000000
     38883      5713  TIP3      H2            -15.7001021765       15.4685971010      -24.3478487756  TIP3      5521            0.0000000000
     38884      5714  TIP3      OH2           -12.5356204947       16.5581580821      -29.0367842929  TIP3      5522            0.0000000000
     38885      5714  TIP3      H1            -12.8530938925       17.4408084268      -29.2761610206  TIP3      5522            0.0000000000
     38886      5714  TIP3      H2            -11.5986785175       16.6587331748      -29.3108091410  TIP3      5522            0.0000000000
     38887      5715  TIP3      OH2            -8.2096328865       17.9873789014      -26.0902510562  TIP3      5523            0.0000000000
     38888      5715  TIP3      H1             -8.0608345488       17.6781617680      -25.1670576797  TIP3      5523            0.0000000000
     38889      5715  TIP3      H2             -7.3161932193       18.2954239728      -26.3498214290  TIP3      5523            0.0000000000
     38890      5716  TIP3      OH2            -5.9232221817       19.2709053675      -26.7812727482  TIP3      5524            0.0000000000
     38891      5716  TIP3      H1             -5.1984972565       18.6892232728      -27.0522545599  TIP3      5524            0.0000000000
     38892      5716  TIP3      H2             -5.5511990532       19.6843491217      -25.9797458834  TIP3      5524            0.0000000000
     38893      5717  TIP3      OH2            -0.9192016396        1.8798439356      -27.6790432530  TIP3      5525            0.0000000000
     38894      5717  TIP3      H1             -1.7312643040        2.1716954325      -28.1233191595  TIP3      5525            0.0000000000
     38895      5717  TIP3      H2             -0.7265382950        1.0614168887      -28.1961005728  TIP3      5525            0.0000000000
     38896      5718  TIP3      OH2           -15.0967121158       19.8172637514      -29.0370276573  TIP3      5526            0.0000000000
     38897      5718  TIP3      H1            -15.8446217232       20.3118912982      -29.4089859729  TIP3      5526            0.0000000000
     38898      5718  TIP3      H2            -15.3969252886       19.6218571074      -28.1340773365  TIP3      5526            0.0000000000
     38899      5719  TIP3      OH2           -12.6309126612       19.3871938784      -29.9447160628  TIP3      5527            0.0000000000
     38900      5719  TIP3      H1            -13.5234826083       19.5443959728      -29.5566061976  TIP3      5527            0.0000000000
     38901      5719  TIP3      H2            -12.6844386019       19.9752661109      -30.7194549044  TIP3      5527            0.0000000000
     38902      5720  TIP3      OH2            -7.9243565715       19.2941181033      -30.7714307383  TIP3      5528            0.0000000000
     38903      5720  TIP3      H1             -8.3839659238       19.8534336772      -31.4194116023  TIP3      5528            0.0000000000
     38904      5720  TIP3      H2             -7.7984160910       19.9255029170      -30.0311878484  TIP3      5528            0.0000000000
     38905      5721  TIP3      OH2            -5.6416815140       18.1022242292      -29.7358812510  TIP3      5529            0.0000000000
     38906      5721  TIP3      H1             -6.4891125824       18.3839168217      -30.1174866880  TIP3      5529            0.0000000000
     38907      5721  TIP3      H2             -5.1503249913       18.9361466622      -29.8323488463  TIP3      5529            0.0000000000
     38908      5722  TIP3      OH2            -3.0670376953       19.6668109517      -29.5286702592  TIP3      5530            0.0000000000
     38909      5722  TIP3      H1             -3.1044766718       20.6290690843      -29.7533155295  TIP3      5530            0.0000000000
     38910      5722  TIP3      H2             -2.8447872290       19.3012922384      -30.4051922722  TIP3      5530            0.0000000000
     38911      5723  TIP3      OH2           -15.6308211251       18.4536886673      -32.0739035653  TIP3      5531            0.0000000000
     38912      5723  TIP3      H1            -15.7125450376       17.9865447758      -31.2170802268  TIP3      5531            0.0000000000
     38913      5723  TIP3      H2            -14.8188083919       18.0747149840      -32.4655575190  TIP3      5531            0.0000000000
     38914      5724  TIP3      OH2           -13.5610331970       17.1674793778      -33.4232491863  TIP3      5532            0.0000000000
     38915      5724  TIP3      H1            -13.7255180478       16.2345672456      -33.1857614412  TIP3      5532            0.0000000000
     38916      5724  TIP3      H2            -12.7025858485       17.3223888093      -32.9767723683  TIP3      5532            0.0000000000
     38917      5725  TIP3      OH2           -10.9532479542       17.6568857802      -32.5424891690  TIP3      5533            0.0000000000
     38918      5725  TIP3      H1            -10.8037520061       16.7296267681      -32.8052888063  TIP3      5533            0.0000000000
     38919      5725  TIP3      H2            -10.9148128044       17.5976365117      -31.5766763952  TIP3      5533            0.0000000000
     38920      5726  TIP3      OH2            -7.5077457174        3.3044131718      -33.4095591989  TIP3      5534            0.0000000000
     38921      5726  TIP3      H1             -8.1821590345        2.6651082354      -33.1240473067  TIP3      5534            0.0000000000
     38922      5726  TIP3      H2             -6.9543443429        2.7675125265      -33.9889495339  TIP3      5534            0.0000000000
     38923      5727  TIP3      OH2            -2.3696801505        1.3472872181      -33.3480491600  TIP3      5535            0.0000000000
     38924      5727  TIP3      H1             -1.7588400757        1.9432326045      -33.8533131385  TIP3      5535            0.0000000000
     38925      5727  TIP3      H2             -3.2540700326        1.7097373327      -33.5724701626  TIP3      5535            0.0000000000
     38926      5728  TIP3      OH2            -0.7058185475        2.6027312127      -35.0682110389  TIP3      5536            0.0000000000
     38927      5728  TIP3      H1             -0.0170502472        2.0216606200      -35.4755063663  TIP3      5536            0.0000000000
     38928      5728  TIP3      H2             -0.1928598413        3.4357901202      -34.9595736454  TIP3      5536            0.0000000000
     38929      5729  TIP3      OH2           -15.1357717675        1.9230707198      -35.5437050973  TIP3      5537            0.0000000000
     38930      5729  TIP3      H1            -15.9277066689        1.7378907666      -36.0857767704  TIP3      5537            0.0000000000
     38931      5729  TIP3      H2            -14.6783004975        1.0635145973      -35.6162577798  TIP3      5537            0.0000000000
     38932      5730  TIP3      OH2           -16.4037140389        1.6801585991      -39.8472489106  TIP3      5538            0.0000000000
     38933      5730  TIP3      H1            -15.8822201195        2.3212503728      -40.3760119119  TIP3      5538            0.0000000000
     38934      5730  TIP3      H2            -16.9456774321        2.2622034367      -39.2864971134  TIP3      5538            0.0000000000
     38935      5731  TIP3      OH2           -10.6697734767        1.8534071476      -35.7698241666  TIP3      5539            0.0000000000
     38936      5731  TIP3      H1             -9.7698684191        2.2111829042      -35.8516121643  TIP3      5539            0.0000000000
     38937      5731  TIP3      H2            -10.6978076350        1.6358973848      -34.8392595944  TIP3      5539            0.0000000000
     38938      5732  TIP3      OH2            -4.9459564990        1.8701932008      -34.1504169428  TIP3      5540            0.0000000000
     38939      5732  TIP3      H1             -5.0016503299        1.9910246642      -35.1060000410  TIP3      5540            0.0000000000
     38940      5732  TIP3      H2             -5.3274617361        0.9664824517      -34.0289141323  TIP3      5540            0.0000000000
     38941      5733  TIP3      OH2            -3.6843650418        1.8919369450      -38.4965889907  TIP3      5541            0.0000000000
     38942      5733  TIP3      H1             -4.4283019545        2.4944121437      -38.6434621805  TIP3      5541            0.0000000000
     38943      5733  TIP3      H2             -4.1250202184        1.0419272206      -38.2570436935  TIP3      5541            0.0000000000
     38944      5734  TIP3      OH2           -16.4500618020       17.6468747956      -38.8189691111  TIP3      5542            0.0000000000
     38945      5734  TIP3      H1            -17.1265195152       17.6415113466      -39.5236452115  TIP3      5542            0.0000000000
     38946      5734  TIP3      H2            -16.4182153132       18.6001699525      -38.6681571591  TIP3      5542            0.0000000000
     38947      5735  TIP3      OH2           -14.5487726962        3.5330962617      -41.2944932839  TIP3      5543            0.0000000000
     38948      5735  TIP3      H1            -13.9958550864        2.9916700512      -41.8544085326  TIP3      5543            0.0000000000
     38949      5735  TIP3      H2            -13.8884672414        3.9666758634      -40.7230762366  TIP3      5543            0.0000000000
     38950      5736  TIP3      OH2            -9.5122854482        3.8697835700      -38.9198059215  TIP3      5544            0.0000000000
     38951      5736  TIP3      H1             -9.2463071696        3.2956377681      -38.1836004937  TIP3      5544            0.0000000000
     38952      5736  TIP3      H2             -9.4381506296        4.7367525238      -38.4571791738  TIP3      5544            0.0000000000
     38953      5737  TIP3      OH2            -7.6183849032       19.2415261467      -40.4647388659  TIP3      5545            0.0000000000
     38954      5737  TIP3      H1             -6.6516261727       19.2165109984      -40.6053084125  TIP3      5545            0.0000000000
     38955      5737  TIP3      H2             -7.7868005093       18.4954767191      -41.0937683658  TIP3      5545            0.0000000000
     38956      5738  TIP3      OH2            -0.8897674680       18.4428665647      -37.7536250148  TIP3      5546            0.0000000000
     38957      5738  TIP3      H1             -1.0854056401       17.6616325206      -38.3212865179  TIP3      5546            0.0000000000
     38958      5738  TIP3      H2             -0.9722017808       19.1757671674      -38.3951214893  TIP3      5546            0.0000000000
     38959      5739  TIP3      OH2           -15.2706134908        2.4695378945      -26.1269756988  TIP3      5547            0.0000000000
     38960      5739  TIP3      H1            -15.6377100037        1.6941453142      -25.6756788213  TIP3      5547            0.0000000000
     38961      5739  TIP3      H2            -14.3556611564        2.4533234918      -25.7563029083  TIP3      5547            0.0000000000
     38962      5740  TIP3      OH2           -13.2864859718        1.8107383669      -24.5588117405  TIP3      5548            0.0000000000
     38963      5740  TIP3      H1            -12.3814293461        1.4915266554      -24.7241866126  TIP3      5548            0.0000000000
     38964      5740  TIP3      H2            -13.6214961987        1.0638267128      -24.0331924568  TIP3      5548            0.0000000000
     38965      5741  TIP3      OH2           -14.6200925314       18.6193489576      -41.8615308644  TIP3      5549            0.0000000000
     38966      5741  TIP3      H1            -14.9310932577       18.8872769448      -40.9884870241  TIP3      5549            0.0000000000
     38967      5741  TIP3      H2            -13.8611170741       18.0659013366      -41.6831306116  TIP3      5549            0.0000000000
     38968      5742  TIP3      OH2            -4.8373913234        1.0332483737      -24.4342502914  TIP3      5550            0.0000000000
     38969      5742  TIP3      H1             -4.8059960480        0.8089920223      -23.4785374782  TIP3      5550            0.0000000000
     38970      5742  TIP3      H2             -3.8971748111        1.1262210808      -24.6484669963  TIP3      5550            0.0000000000
     38971      5743  TIP3      OH2            -1.6598601596       17.1735399977      -25.6231595856  TIP3      5551            0.0000000000
     38972      5743  TIP3      H1             -2.4334123506       17.0478871105      -26.2152886892  TIP3      5551            0.0000000000
     38973      5743  TIP3      H2             -1.7461953041       18.1331904726      -25.4812569790  TIP3      5551            0.0000000000
     38974      5744  TIP3      OH2            12.8346162173       11.0769015745      -35.7265951579  TIP3      5552            0.0000000000
     38975      5744  TIP3      H1             12.7851748806       12.0571612484      -35.7214732392  TIP3      5552            0.0000000000
     38976      5744  TIP3      H2             12.0588789632       10.8493551007      -36.2716404753  TIP3      5552            0.0000000000
     38977      5745  TIP3      OH2            11.6503615711       10.3230160844      -32.1987172529  TIP3      5553            0.0000000000
     38978      5745  TIP3      H1             11.6531611529        9.6698409482      -31.4838981566  TIP3      5553            0.0000000000
     38979      5745  TIP3      H2             11.3137538134        9.8109720685      -32.9540814868  TIP3      5553            0.0000000000
     38980      5746  TIP3      OH2             4.0147586567        9.9986564972      -30.6525432481  TIP3      5554            0.0000000000
     38981      5746  TIP3      H1              4.0993532355        9.3112565003      -29.9613662731  TIP3      5554            0.0000000000
     38982      5746  TIP3      H2              4.7601345572       10.5843061373      -30.4260142493  TIP3      5554            0.0000000000
     38983      5747  TIP3      OH2            15.3415843723       13.2674984315      -33.9223027167  TIP3      5555            0.0000000000
     38984      5747  TIP3      H1             14.9342486662       12.5517232647      -33.4225049067  TIP3      5555            0.0000000000
     38985      5747  TIP3      H2             15.3730257694       13.9740846808      -33.2506845585  TIP3      5555            0.0000000000
     38986      5748  TIP3      OH2             4.9368430425       14.4710201532      -32.2470809068  TIP3      5556            0.0000000000
     38987      5748  TIP3      H1              4.6481942068       13.5622408622      -32.4206759230  TIP3      5556            0.0000000000
     38988      5748  TIP3      H2              5.8798498262       14.2878683239      -32.0573165373  TIP3      5556            0.0000000000
     38989      5749  TIP3      OH2             1.5768218241        8.0142481101      -36.6745683482  TIP3      5557            0.0000000000
     38990      5749  TIP3      H1              1.1010496340        8.8534859548      -36.7149283630  TIP3      5557            0.0000000000
     38991      5749  TIP3      H2              1.0267439930        7.4541956142      -37.2476462326  TIP3      5557            0.0000000000
     38992      5750  TIP3      OH2             2.3068124737       10.2529599592      -34.5951634235  TIP3      5558            0.0000000000
     38993      5750  TIP3      H1              2.5236763893        9.4450864267      -34.0614775857  TIP3      5558            0.0000000000
     38994      5750  TIP3      H2              3.0954979586       10.2765849613      -35.1463298782  TIP3      5558            0.0000000000
     38995      5751  TIP3      OH2            12.4744960271       18.4357563824      -33.6799476332  TIP3      5559            0.0000000000
     38996      5751  TIP3      H1             13.1143712404       17.7406543298      -33.9656172454  TIP3      5559            0.0000000000
     38997      5751  TIP3      H2             12.2482236976       18.0951166029      -32.8116884517  TIP3      5559            0.0000000000
     38998      5752  TIP3      OH2            10.0419132347       12.7207708121      -31.7587027451  TIP3      5560            0.0000000000
     38999      5752  TIP3      H1             10.3897885882       12.0795739721      -32.3874853674  TIP3      5560            0.0000000000
     39000      5752  TIP3      H2             10.8138139889       12.8988673839      -31.1964388062  TIP3      5560            0.0000000000
     39001      5753  TIP3      OH2            18.6269845512        4.3881704552      -31.0107481948  TIP3      5561            0.0000000000
     39002      5753  TIP3      H1             18.8114175825        4.9708945486      -30.2419553409  TIP3      5561            0.0000000000
     39003      5753  TIP3      H2             19.2026677835        4.8030632518      -31.6688581752  TIP3      5561            0.0000000000
     39004      5754  TIP3      OH2            13.2048239272        7.1924792915      -31.4143469044  TIP3      5562            0.0000000000
     39005      5754  TIP3      H1             13.3744803294        6.2336610014      -31.4051842908  TIP3      5562            0.0000000000
     39006      5754  TIP3      H2             13.1029642490        7.3294394590      -32.3753021838  TIP3      5562            0.0000000000
     39007      5755  TIP3      OH2             6.3034832194        5.2753967248      -34.2030227559  TIP3      5563            0.0000000000
     39008      5755  TIP3      H1              6.4266475473        6.1099389027      -34.6952885372  TIP3      5563            0.0000000000
     39009      5755  TIP3      H2              5.9181460240        4.7021678655      -34.8978059623  TIP3      5563            0.0000000000
     39010      5756  TIP3      OH2            14.0615109129        5.3737164172      -35.8368176909  TIP3      5564            0.0000000000
     39011      5756  TIP3      H1             14.6857832177        5.0306831331      -35.1516365344  TIP3      5564            0.0000000000
     39012      5756  TIP3      H2             14.6537967626        5.9158417837      -36.3663126404  TIP3      5564            0.0000000000
     39013      5757  TIP3      OH2             2.9372585840        7.7347955918      -33.4827140079  TIP3      5565            0.0000000000
     39014      5757  TIP3      H1              3.5904610770        7.1804023322      -33.0111493402  TIP3      5565            0.0000000000
     39015      5757  TIP3      H2              3.0473287486        7.3608744896      -34.3733270298  TIP3      5565            0.0000000000
     39016      5758  TIP3      OH2             8.1075572126        9.2433040010      -34.1384080081  TIP3      5566            0.0000000000
     39017      5758  TIP3      H1              8.7754038482        8.6573242770      -33.7497044858  TIP3      5566            0.0000000000
     39018      5758  TIP3      H2              7.5850075967        8.6058861570      -34.6655747675  TIP3      5566            0.0000000000
     39019      5759  TIP3      OH2            19.0666475048        5.7830931574      -28.7442246696  TIP3      5567            0.0000000000
     39020      5759  TIP3      H1             18.4695059424        6.5582338170      -28.8335099778  TIP3      5567            0.0000000000
     39021      5759  TIP3      H2             19.1111571997        5.7073401602      -27.7819880073  TIP3      5567            0.0000000000
     39022      5760  TIP3      OH2             5.2331054450        4.1791146976      -30.1655280718  TIP3      5568            0.0000000000
     39023      5760  TIP3      H1              4.9492241272        4.7524866315      -30.9089164371  TIP3      5568            0.0000000000
     39024      5760  TIP3      H2              4.5598051457        4.4108633160      -29.4835890975  TIP3      5568            0.0000000000
     39025      5761  TIP3      OH2            12.5293406919       13.6485961578      -36.6190128021  TIP3      5569            0.0000000000
     39026      5761  TIP3      H1             12.2214579283       13.3955389923      -37.5036927119  TIP3      5569            0.0000000000
     39027      5761  TIP3      H2             12.2150778023       14.5778635671      -36.5566786031  TIP3      5569            0.0000000000
     39028      5762  TIP3      OH2             7.6889205617       11.7383076266      -29.9666395567  TIP3      5570            0.0000000000
     39029      5762  TIP3      H1              7.0336742578       12.4247851607      -29.7138272974  TIP3      5570            0.0000000000
     39030      5762  TIP3      H2              8.3889659437       12.4131038694      -30.1453081371  TIP3      5570            0.0000000000
     39031      5763  TIP3      OH2            15.8725271525        4.7059452927      -33.8371767214  TIP3      5571            0.0000000000
     39032      5763  TIP3      H1             15.6486790447        3.9397766956      -33.3023639505  TIP3      5571            0.0000000000
     39033      5763  TIP3      H2             16.5352336674        5.1448674423      -33.2762364701  TIP3      5571            0.0000000000
     39034      5764  TIP3      OH2             4.7965265949        6.0374643995      -32.1232440741  TIP3      5572            0.0000000000
     39035      5764  TIP3      H1              5.4246611553        6.7271022709      -31.8123222952  TIP3      5572            0.0000000000
     39036      5764  TIP3      H2              5.3119726186        5.6279472690      -32.8634368265  TIP3      5572            0.0000000000
     39037      5765  TIP3      OH2             5.5644672220       13.5413474019      -29.4089628523  TIP3      5573            0.0000000000
     39038      5765  TIP3      H1              6.0924073868       14.3735501512      -29.5009536529  TIP3      5573            0.0000000000
     39039      5765  TIP3      H2              5.1223829474       13.7234156173      -28.5568241556  TIP3      5573            0.0000000000
     39040      5766  TIP3      OH2             2.1762727832       13.5102350922      -38.2953275185  TIP3      5574            0.0000000000
     39041      5766  TIP3      H1              2.0778663303       13.8126201661      -39.2341414499  TIP3      5574            0.0000000000
     39042      5766  TIP3      H2              2.3611011019       14.3632158849      -37.8298203048  TIP3      5574            0.0000000000
     39043      5767  TIP3      OH2            15.8829973881       15.1248479313      -31.5353073418  TIP3      5575            0.0000000000
     39044      5767  TIP3      H1             14.9102474169       15.2300028165      -31.4212922709  TIP3      5575            0.0000000000
     39045      5767  TIP3      H2             16.1394761647       16.0265488380      -31.7700405541  TIP3      5575            0.0000000000
     39046      5768  TIP3      OH2            16.1970783359        3.3901673714      -30.1655519314  TIP3      5576            0.0000000000
     39047      5768  TIP3      H1             15.4764991502        4.0261297015      -30.2573128598  TIP3      5576            0.0000000000
     39048      5768  TIP3      H2             16.9150806162        3.8097750921      -30.6835106001  TIP3      5576            0.0000000000
     39049      5769  TIP3      OH2             9.1617754706        1.5157963664      -32.6957164296  TIP3      5577            0.0000000000
     39050      5769  TIP3      H1              9.0153249947        0.5526228619      -32.7738068397  TIP3      5577            0.0000000000
     39051      5769  TIP3      H2              8.2835389257        1.8209133788      -32.3880154808  TIP3      5577            0.0000000000
     39052      5770  TIP3      OH2            14.1378677691       16.8925652346      -34.9622749828  TIP3      5578            0.0000000000
     39053      5770  TIP3      H1             14.5622270458       16.1728084367      -35.4729416808  TIP3      5578            0.0000000000
     39054      5770  TIP3      H2             14.5825548921       17.6791875858      -35.3445871544  TIP3      5578            0.0000000000
     39055      5771  TIP3      OH2            15.3566470698       14.8283683580      -36.4451050419  TIP3      5579            0.0000000000
     39056      5771  TIP3      H1             15.0450091097       14.1535373462      -37.0677174024  TIP3      5579            0.0000000000
     39057      5771  TIP3      H2             15.3794324098       14.3246197129      -35.6102264310  TIP3      5579            0.0000000000
     39058      5772  TIP3      OH2            16.9513424717       13.4248592948      -27.9534841764  TIP3      5580            0.0000000000
     39059      5772  TIP3      H1             17.1129837098       12.7562109112      -28.6568578721  TIP3      5580            0.0000000000
     39060      5772  TIP3      H2             17.1799588790       14.2575294047      -28.4043524976  TIP3      5580            0.0000000000
     39061      5773  TIP3      OH2            11.4621098504       10.2758284765      -38.2068143058  TIP3      5581            0.0000000000
     39062      5773  TIP3      H1             10.7440418165       10.8656211676      -38.5433076131  TIP3      5581            0.0000000000
     39063      5773  TIP3      H2             12.1347719207       10.4299710091      -38.8852862689  TIP3      5581            0.0000000000
     39064      5774  TIP3      OH2            11.4869075271        8.8315856216      -41.1097516333  TIP3      5582            0.0000000000
     39065      5774  TIP3      H1             12.2254239366        8.8584766718      -40.4910557545  TIP3      5582            0.0000000000
     39066      5774  TIP3      H2             11.8049663582        8.1904457798      -41.7534445665  TIP3      5582            0.0000000000
     39067      5775  TIP3      OH2            18.8533931190        9.7314548079      -29.9064113527  TIP3      5583            0.0000000000
     39068      5775  TIP3      H1             18.1929424376       10.4520969446      -29.8767712394  TIP3      5583            0.0000000000
     39069      5775  TIP3      H2             19.3544754876        9.9656470766      -30.7074508550  TIP3      5583            0.0000000000
     39070      5776  TIP3      OH2            14.8848256392       10.4923818394      -37.2274159593  TIP3      5584            0.0000000000
     39071      5776  TIP3      H1             14.1529377055       10.8121628990      -36.6305938756  TIP3      5584            0.0000000000
     39072      5776  TIP3      H2             15.4139350596        9.9686411284      -36.5858879039  TIP3      5584            0.0000000000
     39073      5777  TIP3      OH2            14.8410166253        8.6828264825      -28.1515996410  TIP3      5585            0.0000000000
     39074      5777  TIP3      H1             14.8452042700        9.4880673374      -27.6042913407  TIP3      5585            0.0000000000
     39075      5777  TIP3      H2             14.2085833126        8.9787925593      -28.8375970070  TIP3      5585            0.0000000000
     39076      5778  TIP3      OH2             6.4954881985       11.1674314197      -35.3126280637  TIP3      5586            0.0000000000
     39077      5778  TIP3      H1              6.2458872663       10.8389663394      -36.2089154433  TIP3      5586            0.0000000000
     39078      5778  TIP3      H2              7.1569002494       10.4970013128      -35.0260435942  TIP3      5586            0.0000000000
     39079      5779  TIP3      OH2             7.8527377688       14.5841423429      -32.6992580005  TIP3      5587            0.0000000000
     39080      5779  TIP3      H1              7.8359093208       14.0177661058      -33.4787407367  TIP3      5587            0.0000000000
     39081      5779  TIP3      H2              8.5921051292       14.2117453226      -32.1735854541  TIP3      5587            0.0000000000
     39082      5780  TIP3      OH2             6.8509341904        9.8925095517      -31.6882346325  TIP3      5588            0.0000000000
     39083      5780  TIP3      H1              7.3985563806       10.0333025685      -32.4839193938  TIP3      5588            0.0000000000
     39084      5780  TIP3      H2              7.2194960422       10.5886329175      -31.0837566123  TIP3      5588            0.0000000000
     39085      5781  TIP3      OH2            13.2962626394       15.5064864968      -30.9610428454  TIP3      5589            0.0000000000
     39086      5781  TIP3      H1             12.9405396290       16.1362068735      -30.3254793096  TIP3      5589            0.0000000000
     39087      5781  TIP3      H2             13.0045505873       14.6494035829      -30.5632480828  TIP3      5589            0.0000000000
     39088      5782  TIP3      OH2             7.5385084174       14.1952658222      -26.5962211706  TIP3      5590            0.0000000000
     39089      5782  TIP3      H1              7.3977013686       15.1487915729      -26.4497016469  TIP3      5590            0.0000000000
     39090      5782  TIP3      H2              7.3279134767       14.1423251941      -27.5556589764  TIP3      5590            0.0000000000
     39091      5783  TIP3      OH2            13.7694094870        9.8037057843      -39.6607643608  TIP3      5591            0.0000000000
     39092      5783  TIP3      H1             14.1373490821       10.2474104933      -38.8711814519  TIP3      5591            0.0000000000
     39093      5783  TIP3      H2             14.1488146826       10.3340032203      -40.4029950463  TIP3      5591            0.0000000000
     39094      5784  TIP3      OH2             4.7277038922       10.4665404288      -27.7905059748  TIP3      5592            0.0000000000
     39095      5784  TIP3      H1              4.8079087131       11.1710823756      -27.1191604353  TIP3      5592            0.0000000000
     39096      5784  TIP3      H2              3.8129881453       10.6207319935      -28.0719371180  TIP3      5592            0.0000000000
     39097      5785  TIP3      OH2            11.4916579147       16.4329322605      -36.1094872876  TIP3      5593            0.0000000000
     39098      5785  TIP3      H1             11.9302935472       16.7565220380      -35.3156249222  TIP3      5593            0.0000000000
     39099      5785  TIP3      H2             10.9477091300       17.1831124524      -36.3805907118  TIP3      5593            0.0000000000
     39100      5786  TIP3      OH2             6.0310664988       16.4202032529      -26.2306714988  TIP3      5594            0.0000000000
     39101      5786  TIP3      H1              6.0020771110       16.2925717130      -27.1995742521  TIP3      5594            0.0000000000
     39102      5786  TIP3      H2              5.0989849890       16.2459767251      -26.0021764416  TIP3      5594            0.0000000000
     39103      5787  TIP3      OH2            17.5098553092        1.4704062890      -39.6706038496  TIP3      5595            0.0000000000
     39104      5787  TIP3      H1             16.5498858674        1.5638052427      -39.4536472092  TIP3      5595            0.0000000000
     39105      5787  TIP3      H2             17.7109325288        2.3213679820      -40.0987065306  TIP3      5595            0.0000000000
     39106      5788  TIP3      OH2             5.4003249818       10.1685136971      -37.6597402271  TIP3      5596            0.0000000000
     39107      5788  TIP3      H1              5.3285409414       10.9771281487      -38.2290315211  TIP3      5596            0.0000000000
     39108      5788  TIP3      H2              4.8297903712        9.5118454354      -38.0508314477  TIP3      5596            0.0000000000
     39109      5789  TIP3      OH2            18.6020678780       15.7693261363      -41.3287019864  TIP3      5597            0.0000000000
     39110      5789  TIP3      H1             18.7369563857       16.7299331042      -41.2044990439  TIP3      5597            0.0000000000
     39111      5789  TIP3      H2             19.5341958106       15.4929194771      -41.3959609261  TIP3      5597            0.0000000000
     39112      5790  TIP3      OH2             1.5686660847       12.6247609731      -28.8256156587  TIP3      5598            0.0000000000
     39113      5790  TIP3      H1              1.1361794491       12.5430367683      -29.6947757853  TIP3      5598            0.0000000000
     39114      5790  TIP3      H2              1.6632022902       11.6759061990      -28.6161362113  TIP3      5598            0.0000000000
     39115      5791  TIP3      OH2             1.3633676501       15.3482547314      -32.0913203820  TIP3      5599            0.0000000000
     39116      5791  TIP3      H1              2.3225797684       15.2509258836      -32.0714133741  TIP3      5599            0.0000000000
     39117      5791  TIP3      H2              1.2548079942       16.1565177305      -31.5687794893  TIP3      5599            0.0000000000
     39118      5792  TIP3      OH2            19.5661684921       16.0708748514      -26.4097351166  TIP3      5600            0.0000000000
     39119      5792  TIP3      H1             19.4679708460       15.1104645544      -26.4018260523  TIP3      5600            0.0000000000
     39120      5792  TIP3      H2             18.7208283675       16.3102838619      -25.9673927963  TIP3      5600            0.0000000000
     39121      5793  TIP3      OH2            10.6274904876       15.5826790148      -27.3951736678  TIP3      5601            0.0000000000
     39122      5793  TIP3      H1             10.5648385669       16.4755224467      -26.9952584078  TIP3      5601            0.0000000000
     39123      5793  TIP3      H2              9.7056476534       15.2472501186      -27.3529612325  TIP3      5601            0.0000000000
     39124      5794  TIP3      OH2            10.9692867627       19.3401424263      -37.7003112760  TIP3      5602            0.0000000000
     39125      5794  TIP3      H1             10.8852003472       19.2886107374      -38.6681819604  TIP3      5602            0.0000000000
     39126      5794  TIP3      H2             11.0114265983       20.3058652403      -37.5498027193  TIP3      5602            0.0000000000
     39127      5795  TIP3      OH2             4.6061127966       18.2506019708      -35.8724494911  TIP3      5603            0.0000000000
     39128      5795  TIP3      H1              4.7686786260       17.8002333490      -35.0101114307  TIP3      5603            0.0000000000
     39129      5795  TIP3      H2              3.7824953464       17.8081564790      -36.1329395483  TIP3      5603            0.0000000000
     39130      5796  TIP3      OH2            13.9852206985       18.5491350840      -40.7642533125  TIP3      5604            0.0000000000
     39131      5796  TIP3      H1             14.4798871093       17.8016414276      -41.1649235279  TIP3      5604            0.0000000000
     39132      5796  TIP3      H2             14.0798405507       18.3279145604      -39.8181947907  TIP3      5604            0.0000000000
     39133      5797  TIP3      OH2            13.7222501039       18.5000287007      -37.9474576980  TIP3      5605            0.0000000000
     39134      5797  TIP3      H1             12.7629511351       18.5728536582      -37.7670344742  TIP3      5605            0.0000000000
     39135      5797  TIP3      H2             13.9666465606       17.7529941019      -37.3809072089  TIP3      5605            0.0000000000
     39136      5798  TIP3      OH2            16.7637684874        7.5382078941      -25.9636096952  TIP3      5606            0.0000000000
     39137      5798  TIP3      H1             16.2313495904        7.9858667423      -26.6356840007  TIP3      5606            0.0000000000
     39138      5798  TIP3      H2             16.7099147957        6.6041278271      -26.2101355894  TIP3      5606            0.0000000000
     39139      5799  TIP3      OH2             3.7173157113       14.0703852480      -27.6953915049  TIP3      5607            0.0000000000
     39140      5799  TIP3      H1              4.0867908462       13.5356406152      -26.9626443187  TIP3      5607            0.0000000000
     39141      5799  TIP3      H2              3.0074239956       13.5242885362      -28.0911324262  TIP3      5607            0.0000000000
     39142      5800  TIP3      OH2             6.5521961700        2.4169852853      -31.9469495330  TIP3      5608            0.0000000000
     39143      5800  TIP3      H1              5.6473949743        2.2925262842      -32.3089153317  TIP3      5608            0.0000000000
     39144      5800  TIP3      H2              6.4186633006        3.2418854949      -31.4531377215  TIP3      5608            0.0000000000
     39145      5801  TIP3      OH2            11.1935604096        2.0787353555      -28.5847258595  TIP3      5609            0.0000000000
     39146      5801  TIP3      H1             11.5846096253        1.6677692974      -27.7902255010  TIP3      5609            0.0000000000
     39147      5801  TIP3      H2             10.2216912136        1.9683643235      -28.4380877525  TIP3      5609            0.0000000000
     39148      5802  TIP3      OH2            14.4527510049        5.9236274690      -27.7219194176  TIP3      5610            0.0000000000
     39149      5802  TIP3      H1             13.9225812731        5.7184580764      -26.9115789580  TIP3      5610            0.0000000000
     39150      5802  TIP3      H2             14.3101599978        6.8698723610      -27.8889876990  TIP3      5610            0.0000000000
     39151      5803  TIP3      OH2            15.3469570629       10.7408148529      -41.7178716002  TIP3      5611            0.0000000000
     39152      5803  TIP3      H1             15.3051116159       10.6413627913      -42.6906608982  TIP3      5611            0.0000000000
     39153      5803  TIP3      H2             16.1831340651       11.2441253758      -41.6608281857  TIP3      5611            0.0000000000
     39154      5804  TIP3      OH2            10.8373312919        4.6598209160      -41.2348809296  TIP3      5612            0.0000000000
     39155      5804  TIP3      H1             10.5126644339        4.6064722684      -40.3181229792  TIP3      5612            0.0000000000
     39156      5804  TIP3      H2             10.5598185044        3.7829663361      -41.5308344488  TIP3      5612            0.0000000000
     39157      5805  TIP3      OH2             6.6533805788        7.3879154520      -30.6708445313  TIP3      5613            0.0000000000
     39158      5805  TIP3      H1              5.9090370814        7.3859121148      -30.0460907794  TIP3      5613            0.0000000000
     39159      5805  TIP3      H2              6.6035334194        8.2935931555      -31.0622612750  TIP3      5613            0.0000000000
     39160      5806  TIP3      OH2             6.6210639036        7.4958141043      -35.8255850304  TIP3      5614            0.0000000000
     39161      5806  TIP3      H1              5.6820328511        7.2481221477      -35.9608177470  TIP3      5614            0.0000000000
     39162      5806  TIP3      H2              6.9904440710        7.2180877717      -36.6864087535  TIP3      5614            0.0000000000
     39163      5807  TIP3      OH2            12.1891808091        8.0371061806      -37.0398203819  TIP3      5615            0.0000000000
     39164      5807  TIP3      H1             11.7016343729        8.8254542691      -37.3847151482  TIP3      5615            0.0000000000
     39165      5807  TIP3      H2             12.7628088143        7.7979339201      -37.7815206203  TIP3      5615            0.0000000000
     39166      5808  TIP3      OH2            11.1843470960        8.2302371249      -25.6085170041  TIP3      5616            0.0000000000
     39167      5808  TIP3      H1             10.6696869521        7.4487718048      -25.2965497737  TIP3      5616            0.0000000000
     39168      5808  TIP3      H2             12.0211505425        8.1285074306      -25.1140692700  TIP3      5616            0.0000000000
     39169      5809  TIP3      OH2            13.1961007617        7.5148178513      -34.2219146929  TIP3      5617            0.0000000000
     39170      5809  TIP3      H1             12.8588127041        8.0637365596      -34.9461154491  TIP3      5617            0.0000000000
     39171      5809  TIP3      H2             13.2474333861        6.6454623830      -34.6625402245  TIP3      5617            0.0000000000
     39172      5810  TIP3      OH2             4.2729969129        7.6413031440      -29.0218514362  TIP3      5618            0.0000000000
     39173      5810  TIP3      H1              4.3642939412        8.0769934758      -28.1550180753  TIP3      5618            0.0000000000
     39174      5810  TIP3      H2              3.8355589020        6.8039387340      -28.7927869298  TIP3      5618            0.0000000000
     39175      5811  TIP3      OH2             7.8290074761        5.2607163519      -41.8299300469  TIP3      5619            0.0000000000
     39176      5811  TIP3      H1              7.2729368806        4.6420271632      -41.3098776392  TIP3      5619            0.0000000000
     39177      5811  TIP3      H2              7.2252076474        5.6523875699      -42.4599894593  TIP3      5619            0.0000000000
     39178      5812  TIP3      OH2             0.9329105868        4.7471615455      -35.0149914942  TIP3      5620            0.0000000000
     39179      5812  TIP3      H1              1.6171842283        4.7060498438      -34.3166405372  TIP3      5620            0.0000000000
     39180      5812  TIP3      H2              1.3796040806        4.3726210629      -35.7966908899  TIP3      5620            0.0000000000
     39181      5813  TIP3      OH2             2.2230223121        5.4753697468      -39.6559989848  TIP3      5621            0.0000000000
     39182      5813  TIP3      H1              2.7219522054        6.0591426470      -40.2641415874  TIP3      5621            0.0000000000
     39183      5813  TIP3      H2              1.5403432621        6.1043857563      -39.3458807874  TIP3      5621            0.0000000000
     39184      5814  TIP3      OH2            12.3597303751        9.0838124233      -29.6614758796  TIP3      5622            0.0000000000
     39185      5814  TIP3      H1             12.7421834408        8.3953921845      -30.2431249487  TIP3      5622            0.0000000000
     39186      5814  TIP3      H2             11.8919588846        8.5557182644      -28.9899398937  TIP3      5622            0.0000000000
     39187      5815  TIP3      OH2             9.1701346519        5.0701502941      -34.8245907756  TIP3      5623            0.0000000000
     39188      5815  TIP3      H1              8.2379387802        5.0615586201      -34.5345144277  TIP3      5623            0.0000000000
     39189      5815  TIP3      H2              9.6478208587        4.8890011844      -34.0016514712  TIP3      5623            0.0000000000
     39190      5816  TIP3      OH2             3.9668769443        6.6329117561      -35.9612085932  TIP3      5624            0.0000000000
     39191      5816  TIP3      H1              3.0786506340        6.7523654618      -36.3479428657  TIP3      5624            0.0000000000
     39192      5816  TIP3      H2              4.2610731121        5.7934781338      -36.3551873089  TIP3      5624            0.0000000000
     39193      5817  TIP3      OH2             7.6050607415        6.6837221605      -38.3250844254  TIP3      5625            0.0000000000
     39194      5817  TIP3      H1              8.5621109948        6.7751715017      -38.1575352773  TIP3      5625            0.0000000000
     39195      5817  TIP3      H2              7.3833928093        7.3414105078      -39.0066292245  TIP3      5625            0.0000000000
     39196      5818  TIP3      OH2            13.5739134981        4.2992360156      -31.5848385743  TIP3      5626            0.0000000000
     39197      5818  TIP3      H1             12.8914218596        4.3437457792      -30.8751585116  TIP3      5626            0.0000000000
     39198      5818  TIP3      H2             13.0611872015        4.0391051574      -32.3636077672  TIP3      5626            0.0000000000
     39199      5819  TIP3      OH2             6.3203558822        7.7910046237      -40.7306260974  TIP3      5627            0.0000000000
     39200      5819  TIP3      H1              5.7576466000        7.4800020767      -41.4590100025  TIP3      5627            0.0000000000
     39201      5819  TIP3      H2              7.1329969322        8.0607525320      -41.1887092846  TIP3      5627            0.0000000000
     39202      5820  TIP3      OH2            16.7603651409       19.9393359110      -25.2946785171  TIP3      5628            0.0000000000
     39203      5820  TIP3      H1             17.0789718939       20.3482123443      -26.1122624482  TIP3      5628            0.0000000000
     39204      5820  TIP3      H2             17.4506894015       20.2570239878      -24.6621448869  TIP3      5628            0.0000000000
     39205      5821  TIP3      OH2             4.4444407401       12.3990952639      -25.6888695323  TIP3      5629            0.0000000000
     39206      5821  TIP3      H1              5.1663373610       12.6569783171      -25.0896069914  TIP3      5629            0.0000000000
     39207      5821  TIP3      H2              3.6732093083       12.4955430412      -25.0934079701  TIP3      5629            0.0000000000
     39208      5822  TIP3      OH2            10.4488845415        7.8191153492      -32.9288537539  TIP3      5630            0.0000000000
     39209      5822  TIP3      H1             11.0472767113        7.2845936259      -33.4625351357  TIP3      5630            0.0000000000
     39210      5822  TIP3      H2             10.3003245569        7.2696925092      -32.1470180839  TIP3      5630            0.0000000000
     39211      5823  TIP3      OH2             5.4572161943        3.9535246303      -36.4801371545  TIP3      5631            0.0000000000
     39212      5823  TIP3      H1              5.1535512715        3.0271792987      -36.5051127806  TIP3      5631            0.0000000000
     39213      5823  TIP3      H2              6.2424850410        3.8963951201      -37.0389389849  TIP3      5631            0.0000000000
     39214      5824  TIP3      OH2             9.0861255589        6.1426518851      -30.5149976784  TIP3      5632            0.0000000000
     39215      5824  TIP3      H1              8.2618857972        6.6655914465      -30.4278516168  TIP3      5632            0.0000000000
     39216      5824  TIP3      H2              9.6426845420        6.5012769595      -29.7961611492  TIP3      5632            0.0000000000
     39217      5825  TIP3      OH2             9.7031993739       12.2853293015      -38.7672650916  TIP3      5633            0.0000000000
     39218      5825  TIP3      H1              8.8514375623       11.9380599793      -39.1233042898  TIP3      5633            0.0000000000
     39219      5825  TIP3      H2              9.4140676792       12.5090852547      -37.8619270986  TIP3      5633            0.0000000000
     39220      5826  TIP3      OH2            16.8709581500       11.5656823709      -30.0143466783  TIP3      5634            0.0000000000
     39221      5826  TIP3      H1             17.4272740817       12.0546812258      -30.6480418349  TIP3      5634            0.0000000000
     39222      5826  TIP3      H2             16.0068736303       11.6138769277      -30.4725153710  TIP3      5634            0.0000000000
     39223      5827  TIP3      OH2            13.5262093375        5.1175522675      -40.6764054196  TIP3      5635            0.0000000000
     39224      5827  TIP3      H1             12.5733774317        5.2687894788      -40.8310201965  TIP3      5635            0.0000000000
     39225      5827  TIP3      H2             13.8204847378        5.9754405008      -40.3469938618  TIP3      5635            0.0000000000
     39226      5828  TIP3      OH2            11.2170853552       12.6341998648      -27.5524213318  TIP3      5636            0.0000000000
     39227      5828  TIP3      H1             10.8148637733       12.2039884908      -26.7913602586  TIP3      5636            0.0000000000
     39228      5828  TIP3      H2             10.8650538848       13.5352106443      -27.5061456974  TIP3      5636            0.0000000000
     39229      5829  TIP3      OH2            14.1896328831        6.9439360303      -38.9648373237  TIP3      5637            0.0000000000
     39230      5829  TIP3      H1             15.0966935979        6.6910959319      -38.6679473342  TIP3      5637            0.0000000000
     39231      5829  TIP3      H2             14.2594588691        7.6066092025      -39.6747342245  TIP3      5637            0.0000000000
     39232      5830  TIP3      OH2             4.7225326759       11.7140319361      -33.0609569210  TIP3      5638            0.0000000000
     39233      5830  TIP3      H1              5.4779324299       11.6928696518      -33.6892441296  TIP3      5638            0.0000000000
     39234      5830  TIP3      H2              4.8793595797       10.9239361978      -32.5126036757  TIP3      5638            0.0000000000
     39235      5831  TIP3      OH2            11.7762918295       13.8466563620      -39.7327103986  TIP3      5639            0.0000000000
     39236      5831  TIP3      H1             11.3922680103       14.6900882326      -39.4062261883  TIP3      5639            0.0000000000
     39237      5831  TIP3      H2             11.0310754202       13.2164443994      -39.5737780959  TIP3      5639            0.0000000000
     39238      5832  TIP3      OH2             1.7774913674       10.1693935703      -27.7576282233  TIP3      5640            0.0000000000
     39239      5832  TIP3      H1              1.9565284833        9.7320409651      -26.9080921900  TIP3      5640            0.0000000000
     39240      5832  TIP3      H2              1.1552833339        9.5531977913      -28.1832050873  TIP3      5640            0.0000000000
     39241      5833  TIP3      OH2             8.7813750163        9.7423901024      -25.5918038650  TIP3      5641            0.0000000000
     39242      5833  TIP3      H1              8.4681729731        9.4330538619      -26.4592004924  TIP3      5641            0.0000000000
     39243      5833  TIP3      H2              9.7066490163        9.4204474208      -25.5738987230  TIP3      5641            0.0000000000
     39244      5834  TIP3      OH2            13.4854754089       15.1043864064      -27.6025839737  TIP3      5642            0.0000000000
     39245      5834  TIP3      H1             12.5524352746       15.2047759772      -27.8881870675  TIP3      5642            0.0000000000
     39246      5834  TIP3      H2             13.3719781272       15.2828696593      -26.6772657959  TIP3      5642            0.0000000000
     39247      5835  TIP3      OH2            19.0745915340        7.2415175397      -39.1891993890  TIP3      5643            0.0000000000
     39248      5835  TIP3      H1             18.6024442508        6.9123880886      -39.9748124961  TIP3      5643            0.0000000000
     39249      5835  TIP3      H2             19.2364756048        8.1604892834      -39.4991251240  TIP3      5643            0.0000000000
     39250      5836  TIP3      OH2            19.1320838263       13.0859423325      -26.4306937933  TIP3      5644            0.0000000000
     39251      5836  TIP3      H1             18.2508167454       13.3060234875      -26.8115220308  TIP3      5644            0.0000000000
     39252      5836  TIP3      H2             19.6854882062       13.0496404849      -27.2380291420  TIP3      5644            0.0000000000
     39253      5837  TIP3      OH2            17.4371964759       16.0693717326      -38.8486883473  TIP3      5645            0.0000000000
     39254      5837  TIP3      H1             17.0676920889       15.2438043020      -38.5110539828  TIP3      5645            0.0000000000
     39255      5837  TIP3      H2             17.7381987485       15.8666331797      -39.7550950917  TIP3      5645            0.0000000000
     39256      5838  TIP3      OH2            14.6327836853       10.8879970192      -31.7219694129  TIP3      5646            0.0000000000
     39257      5838  TIP3      H1             13.6942211611       10.6718741481      -31.8433314718  TIP3      5646            0.0000000000
     39258      5838  TIP3      H2             15.0698010032       10.1368325815      -32.1686360953  TIP3      5646            0.0000000000
     39259      5839  TIP3      OH2             7.1393515808       15.2538268172      -35.5517622753  TIP3      5647            0.0000000000
     39260      5839  TIP3      H1              7.6590863545       16.0041251768      -35.8642410667  TIP3      5647            0.0000000000
     39261      5839  TIP3      H2              6.3007603847       15.4116375839      -36.0024220994  TIP3      5647            0.0000000000
     39262      5840  TIP3      OH2             2.8712540322       10.0513339484      -41.1412472462  TIP3      5648            0.0000000000
     39263      5840  TIP3      H1              3.4998605620       10.6657704928      -40.7032471090  TIP3      5648            0.0000000000
     39264      5840  TIP3      H2              2.0140812356       10.3289412232      -40.7775201571  TIP3      5648            0.0000000000
     39265      5841  TIP3      OH2             8.6361433192       12.8869585277      -35.9999697267  TIP3      5649            0.0000000000
     39266      5841  TIP3      H1              8.2371504503       13.7767607787      -36.0775856164  TIP3      5649            0.0000000000
     39267      5841  TIP3      H2              7.8519362312       12.3890706691      -35.7122093744  TIP3      5649            0.0000000000
     39268      5842  TIP3      OH2             9.0128523900       17.3299296481      -29.7114494173  TIP3      5650            0.0000000000
     39269      5842  TIP3      H1              9.6152919450       18.0021571381      -29.9998476264  TIP3      5650            0.0000000000
     39270      5842  TIP3      H2              9.5590635579       16.7310367392      -29.1569116954  TIP3      5650            0.0000000000
     39271      5843  TIP3      OH2             7.2583255739       17.8913033349      -36.5970911797  TIP3      5651            0.0000000000
     39272      5843  TIP3      H1              6.2928890073       17.9969730348      -36.4461793870  TIP3      5651            0.0000000000
     39273      5843  TIP3      H2              7.6075507264       18.7270555384      -36.2319924813  TIP3      5651            0.0000000000
     39274      5844  TIP3      OH2            12.5572248981       13.0848672331      -30.0720228120  TIP3      5652            0.0000000000
     39275      5844  TIP3      H1             12.1842446123       12.8743182445      -29.1896397354  TIP3      5652            0.0000000000
     39276      5844  TIP3      H2             13.1640745706       12.3506179729      -30.2462021434  TIP3      5652            0.0000000000
     39277      5845  TIP3      OH2            14.8332896760       14.0743811140      -40.9649334291  TIP3      5653            0.0000000000
     39278      5845  TIP3      H1             15.1375462614       13.6556364022      -40.1376485294  TIP3      5653            0.0000000000
     39279      5845  TIP3      H2             13.8732006559       13.9596844695      -40.8868252249  TIP3      5653            0.0000000000
     39280      5846  TIP3      OH2            15.3490324804       17.6611349771      -27.5670076767  TIP3      5654            0.0000000000
     39281      5846  TIP3      H1             14.6788928787       17.1355025370      -28.0552010013  TIP3      5654            0.0000000000
     39282      5846  TIP3      H2             15.5129677174       18.3287743490      -28.2603991343  TIP3      5654            0.0000000000
     39283      5847  TIP3      OH2            19.3590490781       18.5205470129      -40.7380180672  TIP3      5655            0.0000000000
     39284      5847  TIP3      H1             20.0468066774       19.1593096710      -40.9957651543  TIP3      5655            0.0000000000
     39285      5847  TIP3      H2             18.6385528049       19.1198964856      -40.4427841853  TIP3      5655            0.0000000000
     39286      5848  TIP3      OH2             3.4342415033        4.9095937305      -28.2139310822  TIP3      5656            0.0000000000
     39287      5848  TIP3      H1              2.5226015391        5.2505910632      -28.2368719074  TIP3      5656            0.0000000000
     39288      5848  TIP3      H2              3.3212486354        4.0549629777      -27.7630399030  TIP3      5656            0.0000000000
     39289      5849  TIP3      OH2            15.6877712980       12.7240107023      -38.7739816405  TIP3      5657            0.0000000000
     39290      5849  TIP3      H1             15.4308574637       11.9854642851      -38.1983200266  TIP3      5657            0.0000000000
     39291      5849  TIP3      H2             16.6226435894       12.8499202132      -38.5410872705  TIP3      5657            0.0000000000
     39292      5850  TIP3      OH2             3.0491054752       16.6732556395      -29.7730333416  TIP3      5658            0.0000000000
     39293      5850  TIP3      H1              3.3782952535       15.7598017473      -29.7695452887  TIP3      5658            0.0000000000
     39294      5850  TIP3      H2              3.3354187191       16.9612566629      -28.8982600904  TIP3      5658            0.0000000000
     39295      5851  TIP3      OH2             7.9903050736       14.8319735882      -40.1603607145  TIP3      5659            0.0000000000
     39296      5851  TIP3      H1              7.8878554899       14.1948806289      -39.4170662593  TIP3      5659            0.0000000000
     39297      5851  TIP3      H2              7.8277543861       15.6840655841      -39.7146694444  TIP3      5659            0.0000000000
     39298      5852  TIP3      OH2             4.0338880495       11.9924357423      -39.7713199815  TIP3      5660            0.0000000000
     39299      5852  TIP3      H1              3.6408377350       12.4165393295      -39.0002078322  TIP3      5660            0.0000000000
     39300      5852  TIP3      H2              4.8617132723       12.5389642569      -39.7797317033  TIP3      5660            0.0000000000
     39301      5853  TIP3      OH2            12.1593217343        4.6714186080      -29.2408465532  TIP3      5661            0.0000000000
     39302      5853  TIP3      H1             12.8769436615        4.7365312009      -28.5986671360  TIP3      5661            0.0000000000
     39303      5853  TIP3      H2             11.7748830225        3.7972291867      -29.0320166049  TIP3      5661            0.0000000000
     39304      5854  TIP3      OH2            12.8836314816        4.2742176704      -38.1328165093  TIP3      5662            0.0000000000
     39305      5854  TIP3      H1             13.1405168648        4.6921629328      -38.9766839097  TIP3      5662            0.0000000000
     39306      5854  TIP3      H2             13.4802814580        4.6992385315      -37.5083747006  TIP3      5662            0.0000000000
     39307      5855  TIP3      OH2            10.6224069484       16.4515374941      -39.3014327662  TIP3      5663            0.0000000000
     39308      5855  TIP3      H1              9.7580912516       16.9003999561      -39.2762906463  TIP3      5663            0.0000000000
     39309      5855  TIP3      H2             11.1308085695       16.9285053966      -39.9777892554  TIP3      5663            0.0000000000
     39310      5856  TIP3      OH2            10.1342313950        5.9929797477      -37.3484367390  TIP3      5664            0.0000000000
     39311      5856  TIP3      H1             10.9040559370        6.5828772893      -37.3026595442  TIP3      5664            0.0000000000
     39312      5856  TIP3      H2              9.8582646316        5.8633523828      -36.4223247294  TIP3      5664            0.0000000000
     39313      5857  TIP3      OH2            10.6880780999        7.0210084914      -28.1658373823  TIP3      5665            0.0000000000
     39314      5857  TIP3      H1             10.7619491637        7.5805761700      -27.3688171303  TIP3      5665            0.0000000000
     39315      5857  TIP3      H2             11.3524350186        6.3290265136      -28.0566126685  TIP3      5665            0.0000000000
     39316      5858  TIP3      OH2            10.9814826690        3.0533364836      -36.4741360255  TIP3      5666            0.0000000000
     39317      5858  TIP3      H1             10.6575584984        3.6953155749      -35.8204138924  TIP3      5666            0.0000000000
     39318      5858  TIP3      H2             11.6791238609        3.6027034515      -36.9097673055  TIP3      5666            0.0000000000
     39319      5859  TIP3      OH2             7.9723262980       17.4770608292      -39.3072904594  TIP3      5667            0.0000000000
     39320      5859  TIP3      H1              8.1447793693       18.2972628338      -39.8077907629  TIP3      5667            0.0000000000
     39321      5859  TIP3      H2              7.6987684336       17.7836677711      -38.4136348972  TIP3      5667            0.0000000000
     39322      5860  TIP3      OH2             6.6390674046        4.1403291126      -39.6912839263  TIP3      5668            0.0000000000
     39323      5860  TIP3      H1              6.5787504818        5.0611058508      -39.3672841031  TIP3      5668            0.0000000000
     39324      5860  TIP3      H2              7.5575521523        3.9228955854      -39.4404305470  TIP3      5668            0.0000000000
     39325      5861  TIP3      OH2            16.8571518206        4.8927497726      -27.2938762787  TIP3      5669            0.0000000000
     39326      5861  TIP3      H1             15.9301141377        5.2064823230      -27.4311979571  TIP3      5669            0.0000000000
     39327      5861  TIP3      H2             17.1666710465        4.8843328639      -28.2116309219  TIP3      5669            0.0000000000
     39328      5862  TIP3      OH2            15.4827534083        8.6641596476      -33.3368201854  TIP3      5670            0.0000000000
     39329      5862  TIP3      H1             14.6411213654        8.2234647896      -33.5558879975  TIP3      5670            0.0000000000
     39330      5862  TIP3      H2             15.9537932140        8.0015504089      -32.7761700595  TIP3      5670            0.0000000000
     39331      5863  TIP3      OH2             4.8290655646       14.7633531472      -40.8802146237  TIP3      5671            0.0000000000
     39332      5863  TIP3      H1              5.5325831148       15.1603338307      -40.3355608312  TIP3      5671            0.0000000000
     39333      5863  TIP3      H2              5.3945805357       14.0973708449      -41.3229646744  TIP3      5671            0.0000000000
     39334      5864  TIP3      OH2             3.2728571047        7.2915245666      -41.4985543729  TIP3      5672            0.0000000000
     39335      5864  TIP3      H1              3.2334944779        8.2601842951      -41.3884286088  TIP3      5672            0.0000000000
     39336      5864  TIP3      H2              2.4053106328        7.0896669139      -41.8693273512  TIP3      5672            0.0000000000
     39337      5865  TIP3      OH2            16.5422825395       18.0445574188      -31.5395623438  TIP3      5673            0.0000000000
     39338      5865  TIP3      H1             16.4441245588       18.5868398936      -32.3490669420  TIP3      5673            0.0000000000
     39339      5865  TIP3      H2             17.5182272642       17.9517508466      -31.4878833870  TIP3      5673            0.0000000000
     39340      5866  TIP3      OH2             4.0298962908        2.0575309842      -32.8093490410  TIP3      5674            0.0000000000
     39341      5866  TIP3      H1              3.8403535462        2.0735504245      -33.7740409461  TIP3      5674            0.0000000000
     39342      5866  TIP3      H2              3.6194465547        1.2020030177      -32.5621942258  TIP3      5674            0.0000000000
     39343      5867  TIP3      OH2             2.9468976523       15.9396532675      -36.6852351856  TIP3      5675            0.0000000000
     39344      5867  TIP3      H1              2.1319246854       16.4622721633      -36.7238090571  TIP3      5675            0.0000000000
     39345      5867  TIP3      H2              3.4850301763       16.4169320761      -37.3373090435  TIP3      5675            0.0000000000
     39346      5868  TIP3      OH2             2.1725144511       18.6173116598      -25.3730035230  TIP3      5676            0.0000000000
     39347      5868  TIP3      H1              2.8046625306       18.4251230763      -24.6539899051  TIP3      5676            0.0000000000
     39348      5868  TIP3      H2              1.7966097535       17.7442779449      -25.5777950816  TIP3      5676            0.0000000000
     39349      5869  TIP3      OH2             6.8433381420       17.5031423797      -23.7693169517  TIP3      5677            0.0000000000
     39350      5869  TIP3      H1              7.6532725523       17.0793505729      -23.4515164830  TIP3      5677            0.0000000000
     39351      5869  TIP3      H2              6.8579075587       17.2704187979      -24.7187719308  TIP3      5677            0.0000000000
     39352      5870  TIP3      OH2            11.3875929834       17.1015080896      -41.7906601923  TIP3      5678            0.0000000000
     39353      5870  TIP3      H1             10.5432831565       16.6230493901      -41.8917000759  TIP3      5678            0.0000000000
     39354      5870  TIP3      H2             11.8888784810       16.6592111208      -42.4798426233  TIP3      5678            0.0000000000
     39355      5871  TIP3      OH2            15.5870911298       16.8371251055      -42.1841265526  TIP3      5679            0.0000000000
     39356      5871  TIP3      H1             15.8305512082       16.0242368697      -41.6985467195  TIP3      5679            0.0000000000
     39357      5871  TIP3      H2             16.3716077714       17.0248208126      -42.7139536086  TIP3      5679            0.0000000000
     39358      5872  TIP3      OH2             2.0847852179       12.3815100494      -24.3711267488  TIP3      5680            0.0000000000
     39359      5872  TIP3      H1              2.2696626877       11.4901074551      -24.7139964255  TIP3      5680            0.0000000000
     39360      5872  TIP3      H2              1.3728345644       12.6665635222      -24.9721811148  TIP3      5680            0.0000000000
     39361      5873  TIP3      OH2             6.4580197268       12.8176209402      -42.3007034005  TIP3      5681            0.0000000000
     39362      5873  TIP3      H1              6.5789170992       12.0390818082      -41.7400667936  TIP3      5681            0.0000000000
     39363      5873  TIP3      H2              7.0981662998       12.5952005583      -43.0012463934  TIP3      5681            0.0000000000
     39364      5874  TIP3      OH2             8.8371783514       12.3832527318      -24.9796105820  TIP3      5682            0.0000000000
     39365      5874  TIP3      H1              8.4633355817       12.7328099825      -25.8190812653  TIP3      5682            0.0000000000
     39366      5874  TIP3      H2              8.8983179160       11.4112090152      -25.1346997392  TIP3      5682            0.0000000000
     39367      5875  TIP3      OH2            14.5154195168       12.2494352993      -27.5977697473  TIP3      5683            0.0000000000
     39368      5875  TIP3      H1             15.3024308985       12.8323469417      -27.6826284810  TIP3      5683            0.0000000000
     39369      5875  TIP3      H2             13.8033615642       12.9062379245      -27.5970401490  TIP3      5683            0.0000000000
     39370      5876  TIP3      OH2             3.0374402451        9.6516489580      -24.9775116889  TIP3      5684            0.0000000000
     39371      5876  TIP3      H1              3.4343635983        8.7819385577      -25.1064257459  TIP3      5684            0.0000000000
     39372      5876  TIP3      H2              2.7599704107        9.6172854141      -24.0581297704  TIP3      5684            0.0000000000
     39373      5877  TIP3      OH2             7.7224042180       10.7541946966      -39.9911012283  TIP3      5685            0.0000000000
     39374      5877  TIP3      H1              7.2042142787       10.2769380847      -39.3265633911  TIP3      5685            0.0000000000
     39375      5877  TIP3      H2              7.9886084380       10.0454323803      -40.6052537763  TIP3      5685            0.0000000000
     39376      5878  TIP3      OH2             6.9241481833        8.5928220854      -27.6632298822  TIP3      5686            0.0000000000
     39377      5878  TIP3      H1              6.3366921663        9.3257428494      -27.4159484544  TIP3      5686            0.0000000000
     39378      5878  TIP3      H2              7.3265567362        8.9583110351      -28.4702180454  TIP3      5686            0.0000000000
     39379      5879  TIP3      OH2             8.7445496478        8.9753901857      -41.7748792544  TIP3      5687            0.0000000000
     39380      5879  TIP3      H1              8.6594048713        8.8006038508      -42.7208240161  TIP3      5687            0.0000000000
     39381      5879  TIP3      H2              9.7204100665        9.0725819491      -41.6431520023  TIP3      5687            0.0000000000
     39382      5880  TIP3      OH2            12.0215023616       11.1817326999      -24.2964004952  TIP3      5688            0.0000000000
     39383      5880  TIP3      H1             12.9740391764       11.1265239314      -24.4673979481  TIP3      5688            0.0000000000
     39384      5880  TIP3      H2             11.8499479349       10.4130412400      -23.7316686786  TIP3      5688            0.0000000000
     39385      5881  TIP3      OH2            17.8994915254       11.4300410191       42.7616916124  TIP3      5689            0.0000000000
     39386      5881  TIP3      H1             17.8241160304       10.9510255401       41.9194529146  TIP3      5689            0.0000000000
     39387      5881  TIP3      H2             18.1359466119       12.3316757973       42.5045628413  TIP3      5689            0.0000000000
     39388      5882  TIP3      OH2             7.3224964945        5.9644433184      -26.5741710278  TIP3      5690            0.0000000000
     39389      5882  TIP3      H1              7.4315672914        5.2511736821      -27.2315535710  TIP3      5690            0.0000000000
     39390      5882  TIP3      H2              7.2814809531        6.7644937882      -27.1362759929  TIP3      5690            0.0000000000
     39391      5883  TIP3      OH2             7.7334888068        4.3315226616      -29.0459252996  TIP3      5691            0.0000000000
     39392      5883  TIP3      H1              8.2401052930        4.7981923592      -29.7527114676  TIP3      5691            0.0000000000
     39393      5883  TIP3      H2              6.8385085917        4.2558542756      -29.4487206845  TIP3      5691            0.0000000000
     39394      5884  TIP3      OH2             9.2681442513        9.8144986064      -28.8030231603  TIP3      5692            0.0000000000
     39395      5884  TIP3      H1             10.0215583116        9.6746574774      -29.3829555494  TIP3      5692            0.0000000000
     39396      5884  TIP3      H2              8.8972232343       10.6563939828      -29.1333332822  TIP3      5692            0.0000000000
     39397      5885  TIP3      OH2            13.6471904843        7.5626735523      -23.8261363839  TIP3      5693            0.0000000000
     39398      5885  TIP3      H1             13.9296017398        6.6452777813      -23.9124286041  TIP3      5693            0.0000000000
     39399      5885  TIP3      H2             14.4933276609        8.0397174197      -23.8307242173  TIP3      5693            0.0000000000
     39400      5886  TIP3      OH2            15.0105250842       10.3746285396      -25.6909957726  TIP3      5694            0.0000000000
     39401      5886  TIP3      H1             14.7584876843       11.0924087628      -26.3086099079  TIP3      5694            0.0000000000
     39402      5886  TIP3      H2             15.9678915238       10.3440242073      -25.8821861629  TIP3      5694            0.0000000000
     39403      5887  TIP3      OH2             5.7732372847        7.1690172459      -24.6409549779  TIP3      5695            0.0000000000
     39404      5887  TIP3      H1              5.0056459235        6.6076968987      -24.8633965922  TIP3      5695            0.0000000000
     39405      5887  TIP3      H2              6.4240446764        6.8445929811      -25.2921539137  TIP3      5695            0.0000000000
     39406      5888  TIP3      OH2             8.5115961848        1.7640196465      -28.6425193017  TIP3      5696            0.0000000000
     39407      5888  TIP3      H1              8.3377316185        2.7284270975      -28.7521307109  TIP3      5696            0.0000000000
     39408      5888  TIP3      H2              7.7728714195        1.3979786092      -29.1602434218  TIP3      5696            0.0000000000
     39409      5889  TIP3      OH2             9.8103009329        6.0726521244      -25.0061365242  TIP3      5697            0.0000000000
     39410      5889  TIP3      H1              9.4437881693        5.8912093044      -24.1235596374  TIP3      5697            0.0000000000
     39411      5889  TIP3      H2              9.0341410091        5.9082674464      -25.5778222633  TIP3      5697            0.0000000000
     39412      5890  TIP3      OH2            12.5074053161        5.2281412531      -25.9437057851  TIP3      5698            0.0000000000
     39413      5890  TIP3      H1             11.5439612765        5.2841817053      -25.8242491299  TIP3      5698            0.0000000000
     39414      5890  TIP3      H2             12.7913914312        4.5842600198      -25.2623841304  TIP3      5698            0.0000000000
     39415      5891  TIP3      OH2            13.9922013207        3.8840562191      -24.0396948357  TIP3      5699            0.0000000000
     39416      5891  TIP3      H1             14.0741420193        2.9007518780      -24.0078779588  TIP3      5699            0.0000000000
     39417      5891  TIP3      H2             13.8773575252        4.1099507259      -23.0935281545  TIP3      5699            0.0000000000
     39418      5892  TIP3      OH2             3.8839855463        5.1469762170      -24.9144802297  TIP3      5700            0.0000000000
     39419      5892  TIP3      H1              4.1191043903        4.4289016262      -25.5323929284  TIP3      5700            0.0000000000
     39420      5892  TIP3      H2              3.7779040424        4.6638523598      -24.0782549300  TIP3      5700            0.0000000000
     39421      5893  TIP3      OH2             8.7161100189        1.1465106003      -25.9765355335  TIP3      5701            0.0000000000
     39422      5893  TIP3      H1              9.4149415881        0.4599577888      -25.9907679219  TIP3      5701            0.0000000000
     39423      5893  TIP3      H2              8.6221957023        1.3176079472      -26.9329710062  TIP3      5701            0.0000000000
     39424      5894  TIP3      OH2             9.0967000596        2.7746316194      -23.8700221010  TIP3      5702            0.0000000000
     39425      5894  TIP3      H1              8.9318716003        2.2745078098      -24.7042728739  TIP3      5702            0.0000000000
     39426      5894  TIP3      H2              8.5066872219        3.5444139921      -23.9467410543  TIP3      5702            0.0000000000
     39427      5895  TIP3      OH2             8.5576348003       19.6770196768      -40.7506827488  TIP3      5703            0.0000000000
     39428      5895  TIP3      H1              9.5224626874       19.7814105225      -40.5897765508  TIP3      5703            0.0000000000
     39429      5895  TIP3      H2              8.4060691761       20.3854471783      -41.3745374228  TIP3      5703            0.0000000000
     39430      5896  TIP3      OH2             2.2012258853       14.1035166508      -41.0717973256  TIP3      5704            0.0000000000
     39431      5896  TIP3      H1              3.1735374767       14.2708978694      -40.8949482804  TIP3      5704            0.0000000000
     39432      5896  TIP3      H2              2.2727634522       13.4979349436      -41.8203387482  TIP3      5704            0.0000000000
     39433      5897  TIP3      OH2             0.8969357784       19.6477935827      -36.2356446532  TIP3      5705            0.0000000000
     39434      5897  TIP3      H1              0.1766616860       19.1599364831      -36.6938569948  TIP3      5705            0.0000000000
     39435      5897  TIP3      H2              1.1772577623       18.9967348722      -35.5674932997  TIP3      5705            0.0000000000
     39436      5898  TIP3      OH2             1.7252074297       17.7926118609      -34.3485545859  TIP3      5706            0.0000000000
     39437      5898  TIP3      H1              1.3562280793       16.9253227311      -34.1375262804  TIP3      5706            0.0000000000
     39438      5898  TIP3      H2              1.9521883290       18.1234898938      -33.4632685287  TIP3      5706            0.0000000000
     39439      5899  TIP3      OH2            19.1683803352       18.7355699424      -31.3775424985  TIP3      5707            0.0000000000
     39440      5899  TIP3      H1             19.3881557890       18.6669404644      -30.4362605158  TIP3      5707            0.0000000000
     39441      5899  TIP3      H2             19.9842111335       19.1154987610      -31.7440011364  TIP3      5707            0.0000000000
     39442      5900  TIP3      OH2            18.7986109510       18.2009833424      -28.5234930166  TIP3      5708            0.0000000000
     39443      5900  TIP3      H1             18.3553632088       17.3820845326      -28.8481596252  TIP3      5708            0.0000000000
     39444      5900  TIP3      H2             19.3283950550       17.7644703663      -27.8210713811  TIP3      5708            0.0000000000
     39445      5901  TIP3      OH2            17.2900343333       13.9846508726      -23.8415443905  TIP3      5709            0.0000000000
     39446      5901  TIP3      H1             16.4542452815       13.8119102713      -23.3970517873  TIP3      5709            0.0000000000
     39447      5901  TIP3      H2             17.6629017415       14.6904281340      -23.3023767886  TIP3      5709            0.0000000000
     39448      5902  TIP3      OH2            18.6014866994       12.2072767235      -38.3853570877  TIP3      5710            0.0000000000
     39449      5902  TIP3      H1             19.4472929134       12.6394968372      -38.1739936009  TIP3      5710            0.0000000000
     39450      5902  TIP3      H2             18.5878186398       11.5127431727      -37.6946391779  TIP3      5710            0.0000000000
     39451      5903  TIP3      OH2            18.9292871521       10.3012071300      -36.4915361352  TIP3      5711            0.0000000000
     39452      5903  TIP3      H1             18.2046315852        9.7951073744      -36.0797138193  TIP3      5711            0.0000000000
     39453      5903  TIP3      H2             19.5531110594       10.4395872098      -35.7418070407  TIP3      5711            0.0000000000
     39454      5904  TIP3      OH2            18.7190005417       12.9922572684      -31.4995454149  TIP3      5712            0.0000000000
     39455      5904  TIP3      H1             19.5222812745       12.6051758289      -31.8863051096  TIP3      5712            0.0000000000
     39456      5904  TIP3      H2             18.8576115332       13.9470445347      -31.6802264958  TIP3      5712            0.0000000000
     39457      5905  TIP3      OH2            17.2652254577       15.9050283999      -29.2537630838  TIP3      5713            0.0000000000
     39458      5905  TIP3      H1             16.5630391714       16.1996951912      -28.6545914509  TIP3      5713            0.0000000000
     39459      5905  TIP3      H2             16.7352063529       15.4826434078      -29.9655092709  TIP3      5713            0.0000000000
     39460      5906  TIP3      OH2            19.1753558030       10.0863293730      -40.0963950660  TIP3      5714            0.0000000000
     39461      5906  TIP3      H1             18.6986357163       10.5107174729      -40.8361101523  TIP3      5714            0.0000000000
     39462      5906  TIP3      H2             19.1944273267       10.8270542500      -39.4550137874  TIP3      5714            0.0000000000
     39463      5907  TIP3      OH2            17.2071342120        7.3922949823      -41.4816474414  TIP3      5715            0.0000000000
     39464      5907  TIP3      H1             17.6980955969        7.9614417539      -42.1072394272  TIP3      5715            0.0000000000
     39465      5907  TIP3      H2             17.4190646490        6.5428505908      -41.9305196837  TIP3      5715            0.0000000000
     39466      5908  TIP3      OH2            16.6713987411        8.7791834429      -35.9647891007  TIP3      5716            0.0000000000
     39467      5908  TIP3      H1             16.6611256146        7.8097149839      -35.9173954935  TIP3      5716            0.0000000000
     39468      5908  TIP3      H2             16.4829885550        8.9868563598      -35.0187764803  TIP3      5716            0.0000000000
     39469      5909  TIP3      OH2             1.7820637494       10.8632485687      -31.8766488710  TIP3      5717            0.0000000000
     39470      5909  TIP3      H1              1.9937677584       10.7787707446      -32.8213502548  TIP3      5717            0.0000000000
     39471      5909  TIP3      H2              2.6616440512       10.6800372789      -31.4868462634  TIP3      5717            0.0000000000
     39472      5910  TIP3      OH2            17.6270768081       10.7520226046      -26.1985328954  TIP3      5718            0.0000000000
     39473      5910  TIP3      H1             18.2311669436        9.9820673875      -26.0826798701  TIP3      5718            0.0000000000
     39474      5910  TIP3      H2             18.2555941339       11.5005180279      -26.2551065522  TIP3      5718            0.0000000000
     39475      5911  TIP3      OH2            19.1430759937        8.6361489870      -25.6423962651  TIP3      5719            0.0000000000
     39476      5911  TIP3      H1             18.2523576537        8.2247801181      -25.7079674670  TIP3      5719            0.0000000000
     39477      5911  TIP3      H2             19.6965272822        7.8403292095      -25.6585775163  TIP3      5719            0.0000000000
     39478      5912  TIP3      OH2            16.8684168086        4.7824376210      -42.4525857360  TIP3      5720            0.0000000000
     39479      5912  TIP3      H1             17.4568691328        4.3389038626      -41.8115933545  TIP3      5720            0.0000000000
     39480      5912  TIP3      H2             15.9865100264        4.4168492236      -42.2817444985  TIP3      5720            0.0000000000
     39481      5913  TIP3      OH2            16.4234068802        6.4082149142      -37.5138810434  TIP3      5721            0.0000000000
     39482      5913  TIP3      H1             16.7048613418        5.4705832320      -37.3257348191  TIP3      5721            0.0000000000
     39483      5913  TIP3      H2             17.2736204530        6.7318727763      -37.8451007551  TIP3      5721            0.0000000000
     39484      5914  TIP3      OH2            17.0799143408        6.9036529387      -32.0183618811  TIP3      5722            0.0000000000
     39485      5914  TIP3      H1             18.0412748599        7.1291808123      -32.0329876610  TIP3      5722            0.0000000000
     39486      5914  TIP3      H2             16.8956366213        7.0424954525      -31.0762727377  TIP3      5722            0.0000000000
     39487      5915  TIP3      OH2            17.1389133256        7.6186103046      -29.2741165624  TIP3      5723            0.0000000000
     39488      5915  TIP3      H1             16.2742024634        7.9077577273      -28.9088290883  TIP3      5723            0.0000000000
     39489      5915  TIP3      H2             17.5827229644        8.4823852225      -29.4645165961  TIP3      5723            0.0000000000
     39490      5916  TIP3      OH2             1.3897639800        6.1678235520      -25.7007587196  TIP3      5724            0.0000000000
     39491      5916  TIP3      H1              2.3279132125        5.9571705392      -25.5169903299  TIP3      5724            0.0000000000
     39492      5916  TIP3      H2              0.9490022675        5.3296330777      -25.4419261059  TIP3      5724            0.0000000000
     39493      5917  TIP3      OH2            19.4868712912        1.6738931297      -23.8938522594  TIP3      5725            0.0000000000
     39494      5917  TIP3      H1             19.7673873058        0.9952496026      -24.5229879869  TIP3      5725            0.0000000000
     39495      5917  TIP3      H2             19.5051571606        2.4956242838      -24.4254249464  TIP3      5725            0.0000000000
     39496      5918  TIP3      OH2            17.0791925564        3.6702118255      -37.4125136287  TIP3      5726            0.0000000000
     39497      5918  TIP3      H1             17.3295047998        3.2256032015      -36.5695679709  TIP3      5726            0.0000000000
     39498      5918  TIP3      H2             16.5219929929        2.9941605650      -37.8582479357  TIP3      5726            0.0000000000
     39499      5919  TIP3      OH2             2.5977191740        4.4576023154      -32.8562575110  TIP3      5727            0.0000000000
     39500      5919  TIP3      H1              3.0561806795        3.6294778405      -32.6047445052  TIP3      5727            0.0000000000
     39501      5919  TIP3      H2              3.1549479849        5.1447763648      -32.4690199801  TIP3      5727            0.0000000000
     39502      5920  TIP3      OH2             0.8820355629        7.4562616924      -31.8227499561  TIP3      5728            0.0000000000
     39503      5920  TIP3      H1              1.4425957724        7.2030385242      -32.5831419095  TIP3      5728            0.0000000000
     39504      5920  TIP3      H2              1.3483286994        8.2624683771      -31.5583253280  TIP3      5728            0.0000000000
     39505      5921  TIP3      OH2            18.9719969047        3.7657494675      -25.5329467468  TIP3      5729            0.0000000000
     39506      5921  TIP3      H1             18.0345180040        4.0553924786      -25.5590246347  TIP3      5729            0.0000000000
     39507      5921  TIP3      H2             18.9781311887        3.2326820913      -26.3429275541  TIP3      5729            0.0000000000
     39508      5922  TIP3      OH2            18.9253920415        3.7058739570      -40.8576106053  TIP3      5730            0.0000000000
     39509      5922  TIP3      H1             19.3561567708        2.9911447138      -41.3548724785  TIP3      5730            0.0000000000
     39510      5922  TIP3      H2             19.6526633653        4.3518346174      -40.8356177996  TIP3      5730            0.0000000000
     39511      5923  TIP3      OH2             1.2412190770        3.7103621564      -37.7587316448  TIP3      5731            0.0000000000
     39512      5923  TIP3      H1              0.2982179163        3.8998002620      -37.8763941651  TIP3      5731            0.0000000000
     39513      5923  TIP3      H2              1.6528316954        4.2102150807      -38.4853211673  TIP3      5731            0.0000000000
     39514      5924  TIP3      OH2            15.9746830269       18.6496846408      -35.7932679281  TIP3      5732            0.0000000000
     39515      5924  TIP3      H1             16.6568888887       18.3659340795      -36.4285216559  TIP3      5732            0.0000000000
     39516      5924  TIP3      H2             16.4861100483       19.1835961488      -35.1761129743  TIP3      5732            0.0000000000
     39517      5925  TIP3      OH2             1.1917389343        2.3594495558      -29.4555848704  TIP3      5733            0.0000000000
     39518      5925  TIP3      H1              0.5295142209        2.1714302772      -28.7665445004  TIP3      5733            0.0000000000
     39519      5925  TIP3      H2              0.7324642474        3.0396972366      -29.9828226364  TIP3      5733            0.0000000000
     39520      5926  TIP3      OH2             3.4354912044       15.6318915872      -25.2729594289  TIP3      5734            0.0000000000
     39521      5926  TIP3      H1              2.5990547530       15.7740242873      -25.7422446749  TIP3      5734            0.0000000000
     39522      5926  TIP3      H2              3.1390626463       15.4899110652      -24.3783459877  TIP3      5734            0.0000000000
     39523      5927  TIP3      OH2             6.2218472291       16.7243945419      -28.9216692193  TIP3      5735            0.0000000000
     39524      5927  TIP3      H1              6.0047993424       17.5597774662      -29.3420939721  TIP3      5735            0.0000000000
     39525      5927  TIP3      H2              7.1325566309       16.5759223766      -29.2728236063  TIP3      5735            0.0000000000
     39526      5928  TIP3      OH2            10.6792750623       17.9863698375      -26.0969370784  TIP3      5736            0.0000000000
     39527      5928  TIP3      H1             10.7885877399       17.6472801768      -25.1837537402  TIP3      5736            0.0000000000
     39528      5928  TIP3      H2             11.5556830055       18.3222402290      -26.3718364004  TIP3      5736            0.0000000000
     39529      5929  TIP3      OH2            12.9396206460       19.2310305662      -26.7744028958  TIP3      5737            0.0000000000
     39530      5929  TIP3      H1             13.6925170805       18.7044922496      -27.0694122675  TIP3      5737            0.0000000000
     39531      5929  TIP3      H2             13.3099445815       19.7245030379      -26.0127150054  TIP3      5737            0.0000000000
     39532      5930  TIP3      OH2            17.9624540120        1.8765866842      -27.6893352454  TIP3      5738            0.0000000000
     39533      5930  TIP3      H1             17.1330895530        2.1753290835      -28.0999000229  TIP3      5738            0.0000000000
     39534      5930  TIP3      H2             18.1266788576        1.0522340202      -28.2049169722  TIP3      5738            0.0000000000
     39535      5931  TIP3      OH2             3.7553413564       19.8058508678      -29.0248885687  TIP3      5739            0.0000000000
     39536      5931  TIP3      H1              3.0236649585       20.3065972719      -29.4191069242  TIP3      5739            0.0000000000
     39537      5931  TIP3      H2              3.4500836016       19.6142917680      -28.1250680255  TIP3      5739            0.0000000000
     39538      5932  TIP3      OH2             6.2310424682       19.4225583526      -29.9386085899  TIP3      5740            0.0000000000
     39539      5932  TIP3      H1              5.3311689340       19.5195948199      -29.5509808383  TIP3      5740            0.0000000000
     39540      5932  TIP3      H2              6.1638888390       19.9827567460      -30.7308467961  TIP3      5740            0.0000000000
     39541      5933  TIP3      OH2            10.9733620916       19.3240217546      -30.7954399615  TIP3      5741            0.0000000000
     39542      5933  TIP3      H1             10.4687019968       19.8622416712      -31.4251786549  TIP3      5741            0.0000000000
     39543      5933  TIP3      H2             11.0760618020       19.9425768769      -30.0405715780  TIP3      5741            0.0000000000
     39544      5934  TIP3      OH2            13.2013298467       18.0926381869      -29.7487951111  TIP3      5742            0.0000000000
     39545      5934  TIP3      H1             12.3414963970       18.3613945599      -30.1293187006  TIP3      5742            0.0000000000
     39546      5934  TIP3      H2             13.6814700104       18.9276521569      -29.8565818873  TIP3      5742            0.0000000000
     39547      5935  TIP3      OH2            15.6507059943       19.6658093280      -29.5620781771  TIP3      5743            0.0000000000
     39548      5935  TIP3      H1             15.4883342854       20.6098358298      -29.7881034736  TIP3      5743            0.0000000000
     39549      5935  TIP3      H2             15.8330433432       19.2310633213      -30.4323207894  TIP3      5743            0.0000000000
     39550      5936  TIP3      OH2             3.2257953291       18.4545333662      -32.0748255609  TIP3      5744            0.0000000000
     39551      5936  TIP3      H1              3.1367791392       17.9909848457      -31.2152958928  TIP3      5744            0.0000000000
     39552      5936  TIP3      H2              4.0373025621       18.0707114684      -32.4630059888  TIP3      5744            0.0000000000
     39553      5937  TIP3      OH2             5.2935287332       17.1660609255      -33.4425511079  TIP3      5745            0.0000000000
     39554      5937  TIP3      H1              5.1407996612       16.2332241601      -33.1941206159  TIP3      5745            0.0000000000
     39555      5937  TIP3      H2              6.1417404791       17.3159570342      -32.9692059434  TIP3      5745            0.0000000000
     39556      5938  TIP3      OH2             7.9151155725       17.6690521310      -32.5486546471  TIP3      5746            0.0000000000
     39557      5938  TIP3      H1              8.0530272169       16.7376736182      -32.8104096619  TIP3      5746            0.0000000000
     39558      5938  TIP3      H2              7.9356409027       17.5709875857      -31.5777764279  TIP3      5746            0.0000000000
     39559      5939  TIP3      OH2            11.3474260068        3.3076626930      -33.4143301001  TIP3      5747            0.0000000000
     39560      5939  TIP3      H1             10.6751548117        2.6679400620      -33.1241443201  TIP3      5747            0.0000000000
     39561      5939  TIP3      H2             11.9027295177        2.7680979765      -33.9893427764  TIP3      5747            0.0000000000
     39562      5940  TIP3      OH2            16.4877970762        1.3425787547      -33.3436075279  TIP3      5748            0.0000000000
     39563      5940  TIP3      H1             17.0973118141        1.9388292615      -33.8493742456  TIP3      5748            0.0000000000
     39564      5940  TIP3      H2             15.6057330515        1.7071775844      -33.5715976180  TIP3      5748            0.0000000000
     39565      5941  TIP3      OH2            18.1488121418        2.6042240484      -35.0721857324  TIP3      5749            0.0000000000
     39566      5941  TIP3      H1             18.8387498768        2.0218789813      -35.4752445092  TIP3      5749            0.0000000000
     39567      5941  TIP3      H2             18.6638057290        3.4355495420      -34.9596288481  TIP3      5749            0.0000000000
     39568      5942  TIP3      OH2             3.7201935170        1.9232218823      -35.5454308609  TIP3      5750            0.0000000000
     39569      5942  TIP3      H1              2.9287337925        1.7378743581      -36.0858038657  TIP3      5750            0.0000000000
     39570      5942  TIP3      H2              4.1774185079        1.0632081807      -35.6153581059  TIP3      5750            0.0000000000
     39571      5943  TIP3      OH2             2.4492308101        1.6876496502      -39.8508487697  TIP3      5751            0.0000000000
     39572      5943  TIP3      H1              2.9727973956        2.3253503436      -40.3808316893  TIP3      5751            0.0000000000
     39573      5943  TIP3      H2              1.9252536857        2.2695241966      -39.2768477479  TIP3      5751            0.0000000000
     39574      5944  TIP3      OH2             8.1859629251        1.8529442387      -35.7706422798  TIP3      5752            0.0000000000
     39575      5944  TIP3      H1              9.0851431403        2.2122245348      -35.8488836644  TIP3      5752            0.0000000000
     39576      5944  TIP3      H2              8.1574161891        1.6338844875      -34.8406711646  TIP3      5752            0.0000000000
     39577      5945  TIP3      OH2            13.9100995992        1.8709616927      -34.1497634936  TIP3      5753            0.0000000000
     39578      5945  TIP3      H1             13.8541250569        1.9895208749      -35.1057439816  TIP3      5753            0.0000000000
     39579      5945  TIP3      H2             13.5276437592        0.9676889902      -34.0262405714  TIP3      5753            0.0000000000
     39580      5946  TIP3      OH2            15.1713404454        1.9111040720      -38.4984714648  TIP3      5754            0.0000000000
     39581      5946  TIP3      H1             14.4242599820        2.5053771589      -38.6469492730  TIP3      5754            0.0000000000
     39582      5946  TIP3      H2             14.7319965155        1.0624028247      -38.2661752341  TIP3      5754            0.0000000000
     39583      5947  TIP3      OH2             2.3789537475       17.6477562669      -38.8099189289  TIP3      5755            0.0000000000
     39584      5947  TIP3      H1              1.6895270979       17.6749069352      -39.4956964879  TIP3      5755            0.0000000000
     39585      5947  TIP3      H2              2.4447950223       18.5977820365      -38.6506406821  TIP3      5755            0.0000000000
     39586      5948  TIP3      OH2             4.3063412106        3.5312561793      -41.2914197947  TIP3      5756            0.0000000000
     39587      5948  TIP3      H1              4.8615548252        2.9937939014      -41.8550285697  TIP3      5756            0.0000000000
     39588      5948  TIP3      H2              4.9665414100        3.9678086285      -40.7231144999  TIP3      5756            0.0000000000
     39589      5949  TIP3      OH2             9.3435666847        3.8726499033      -38.9193890245  TIP3      5757            0.0000000000
     39590      5949  TIP3      H1              9.6291937516        3.3071490343      -38.1846702378  TIP3      5757            0.0000000000
     39591      5949  TIP3      H2              9.4169286342        4.7405332449      -38.4602484232  TIP3      5757            0.0000000000
     39592      5950  TIP3      OH2            11.2337712085       19.2230995739      -40.4575504117  TIP3      5758            0.0000000000
     39593      5950  TIP3      H1             12.2000421891       19.2312076341      -40.6000115229  TIP3      5758            0.0000000000
     39594      5950  TIP3      H2             11.0726931486       18.4862809784      -41.0951436386  TIP3      5758            0.0000000000
     39595      5951  TIP3      OH2            17.9659328318       18.4492214802      -37.7570254542  TIP3      5759            0.0000000000
     39596      5951  TIP3      H1             17.7754431284       17.6655178834      -38.3309522453  TIP3      5759            0.0000000000
     39597      5951  TIP3      H2             17.8753357209       19.1828050674      -38.3965060215  TIP3      5759            0.0000000000
     39598      5952  TIP3      OH2             3.5837995068        2.4650299290      -26.0892071219  TIP3      5760            0.0000000000
     39599      5952  TIP3      H1              3.1859220403        1.6623815767      -25.7035061216  TIP3      5760            0.0000000000
     39600      5952  TIP3      H2              4.5060046513        2.4045345854      -25.7548917640  TIP3      5760            0.0000000000
     39601      5953  TIP3      OH2             5.6045080082        1.8617160277      -24.4391689156  TIP3      5761            0.0000000000
     39602      5953  TIP3      H1              6.4702531706        1.5291076742      -24.7311717518  TIP3      5761            0.0000000000
     39603      5953  TIP3      H2              5.2312899157        1.0375816229      -24.0773628426  TIP3      5761            0.0000000000
     39604      5954  TIP3      OH2             4.1756887967       18.5176342165      -41.8477450017  TIP3      5762            0.0000000000
     39605      5954  TIP3      H1              3.9502650411       18.9141580528      -40.9950207639  TIP3      5762            0.0000000000
     39606      5954  TIP3      H2              5.0173309624       18.0844299297      -41.7032797586  TIP3      5762            0.0000000000
     39607      5955  TIP3      OH2            14.0236418130        1.1506350160      -24.3463123406  TIP3      5763            0.0000000000
     39608      5955  TIP3      H1             14.0851783632        0.7160037006      -23.4766005218  TIP3      5763            0.0000000000
     39609      5955  TIP3      H2             14.9510423795        1.1237909569      -24.6587330402  TIP3      5763            0.0000000000
     39610      5956  TIP3      OH2            17.2015428450       17.1981609256      -25.6339720782  TIP3      5764            0.0000000000
     39611      5956  TIP3      H1             16.4303843194       17.0619807364      -26.2144909682  TIP3      5764            0.0000000000
     39612      5956  TIP3      H2             17.1362432672       18.1544453399      -25.4489578959  TIP3      5764            0.0000000000
     39613      5957  TIP3      OH2            31.6603491239       11.0531763778      -35.7055695458  TIP3      5765            0.0000000000
     39614      5957  TIP3      H1             31.6561734568       12.0359256425      -35.7376474194  TIP3      5765            0.0000000000
     39615      5957  TIP3      H2             30.9309246080       10.8337634289      -36.3060378648  TIP3      5765            0.0000000000
     39616      5958  TIP3      OH2            30.5216715743       10.3185567861      -32.2121333524  TIP3      5766            0.0000000000
     39617      5958  TIP3      H1             30.5017645909        9.6776288062      -31.4825496462  TIP3      5766            0.0000000000
     39618      5958  TIP3      H2             30.1728579667        9.8053889924      -32.9587586973  TIP3      5766            0.0000000000
     39619      5959  TIP3      OH2            22.8687415959       10.0034041345      -30.6484988925  TIP3      5767            0.0000000000
     39620      5959  TIP3      H1             22.9533714931        9.3141188618      -29.9568708773  TIP3      5767            0.0000000000
     39621      5959  TIP3      H2             23.6207875516       10.5708661889      -30.4262723713  TIP3      5767            0.0000000000
     39622      5960  TIP3      OH2            34.2165793184       13.2464865795      -33.8972382948  TIP3      5768            0.0000000000
     39623      5960  TIP3      H1             33.7938686961       12.5399593761      -33.4026060564  TIP3      5768            0.0000000000
     39624      5960  TIP3      H2             34.2846310115       13.9422245344      -33.2240453494  TIP3      5768            0.0000000000
     39625      5961  TIP3      OH2            23.7940458574       14.4494101510      -32.1541879343  TIP3      5769            0.0000000000
     39626      5961  TIP3      H1             23.4863535646       13.5768645590      -32.4677730447  TIP3      5769            0.0000000000
     39627      5961  TIP3      H2             24.7505718638       14.2688028019      -32.1067176377  TIP3      5769            0.0000000000
     39628      5962  TIP3      OH2            20.4306534706        7.9958288500      -36.6549985994  TIP3      5770            0.0000000000
     39629      5962  TIP3      H1             20.0345914979        8.8845917215      -36.7152057081  TIP3      5770            0.0000000000
     39630      5962  TIP3      H2             19.8788305349        7.4655607875      -37.2444483292  TIP3      5770            0.0000000000
     39631      5963  TIP3      OH2            21.1565645030       10.2316900039      -34.5094286953  TIP3      5771            0.0000000000
     39632      5963  TIP3      H1             21.4264019121        9.4064677945      -34.0622469749  TIP3      5771            0.0000000000
     39633      5963  TIP3      H2             21.8444102659       10.3385018745      -35.1798056642  TIP3      5771            0.0000000000
     39634      5964  TIP3      OH2            31.3510055312       18.4401461783      -33.6841519197  TIP3      5772            0.0000000000
     39635      5964  TIP3      H1             31.9842410406       17.7359199844      -33.9713688186  TIP3      5772            0.0000000000
     39636      5964  TIP3      H2             31.1091767066       18.0896456415      -32.8245707104  TIP3      5772            0.0000000000
     39637      5965  TIP3      OH2            28.8939209161       12.7163137072      -31.7234156992  TIP3      5773            0.0000000000
     39638      5965  TIP3      H1             29.2299149467       12.0955310543      -32.3874684905  TIP3      5773            0.0000000000
     39639      5965  TIP3      H2             29.7070589833       12.8800872107      -31.2146407699  TIP3      5773            0.0000000000
     39640      5966  TIP3      OH2            32.0430527497        7.1924780352      -31.4207996243  TIP3      5774            0.0000000000
     39641      5966  TIP3      H1             32.2327821804        6.2377138855      -31.4093677397  TIP3      5774            0.0000000000
     39642      5966  TIP3      H2             31.9553310139        7.3258053714      -32.3836872162  TIP3      5774            0.0000000000
     39643      5967  TIP3      OH2            25.1700072621        5.2795547084      -34.2012200751  TIP3      5775            0.0000000000
     39644      5967  TIP3      H1             25.2833249264        6.1141100830      -34.6984916623  TIP3      5775            0.0000000000
     39645      5967  TIP3      H2             24.7768436329        4.7063904259      -34.8930759918  TIP3      5775            0.0000000000
     39646      5968  TIP3      OH2            32.9147717233        5.3859604823      -35.8162801582  TIP3      5776            0.0000000000
     39647      5968  TIP3      H1             33.5685701777        5.0414822424      -35.1603873647  TIP3      5776            0.0000000000
     39648      5968  TIP3      H2             33.4771668063        5.9312041260      -36.3802764698  TIP3      5776            0.0000000000
     39649      5969  TIP3      OH2            21.7977788765        7.6923052681      -33.4685009959  TIP3      5777            0.0000000000
     39650      5969  TIP3      H1             22.4657798972        7.1495628265      -33.0107137123  TIP3      5777            0.0000000000
     39651      5969  TIP3      H2             21.9061813065        7.3757021432      -34.3785072863  TIP3      5777            0.0000000000
     39652      5970  TIP3      OH2            26.9528904997        9.2494766321      -34.1418422161  TIP3      5778            0.0000000000
     39653      5970  TIP3      H1             27.6283270536        8.6661303643      -33.7547384174  TIP3      5778            0.0000000000
     39654      5970  TIP3      H2             26.4416318175        8.5969280708      -34.6600566988  TIP3      5778            0.0000000000
     39655      5971  TIP3      OH2            24.0869759333        4.1809334004      -30.1611449143  TIP3      5779            0.0000000000
     39656      5971  TIP3      H1             23.8020778731        4.7525203450      -30.9064351611  TIP3      5779            0.0000000000
     39657      5971  TIP3      H2             23.4092583809        4.4084259918      -29.4793074645  TIP3      5779            0.0000000000
     39658      5972  TIP3      OH2            31.3417004601       13.6444217495      -36.6140341001  TIP3      5780            0.0000000000
     39659      5972  TIP3      H1             31.1078517757       13.3953172923      -37.5227505694  TIP3      5780            0.0000000000
     39660      5972  TIP3      H2             31.0624228452       14.5848634667      -36.5667268243  TIP3      5780            0.0000000000
     39661      5973  TIP3      OH2            26.5961572162       11.8206407949      -29.9259170273  TIP3      5781            0.0000000000
     39662      5973  TIP3      H1             25.8925938527       12.4658076483      -29.7019878334  TIP3      5781            0.0000000000
     39663      5973  TIP3      H2             27.3020521704       12.4203201356      -30.2165451408  TIP3      5781            0.0000000000
     39664      5974  TIP3      OH2            34.5327546290        4.6776230654      -33.7827457346  TIP3      5782            0.0000000000
     39665      5974  TIP3      H1             34.4633746876        3.8882952443      -33.2522094032  TIP3      5782            0.0000000000
     39666      5974  TIP3      H2             35.2566996075        5.1625313352      -33.3290410553  TIP3      5782            0.0000000000
     39667      5975  TIP3      OH2            23.6574551749        6.0335339082      -32.1210194765  TIP3      5783            0.0000000000
     39668      5975  TIP3      H1             24.2829654615        6.7259063444      -31.8124344092  TIP3      5783            0.0000000000
     39669      5975  TIP3      H2             24.1734624458        5.6289996485      -32.8635177606  TIP3      5783            0.0000000000
     39670      5976  TIP3      OH2            25.0437292106       13.8204094079      -29.1118649094  TIP3      5784            0.0000000000
     39671      5976  TIP3      H1             25.0003703562       14.7394022821      -29.4400866508  TIP3      5784            0.0000000000
     39672      5976  TIP3      H2             24.1685566203       13.7484763863      -28.6542769121  TIP3      5784            0.0000000000
     39673      5977  TIP3      OH2            21.0999110490       13.4352485130      -38.3200707246  TIP3      5785            0.0000000000
     39674      5977  TIP3      H1             20.9055689217       13.7857738221      -39.2120780752  TIP3      5785            0.0000000000
     39675      5977  TIP3      H2             21.1893720363       14.2585897991      -37.7941678718  TIP3      5785            0.0000000000
     39676      5978  TIP3      OH2            34.6479267516       15.0619980119      -31.4761052471  TIP3      5786            0.0000000000
     39677      5978  TIP3      H1             33.6800874737       15.2065376117      -31.4154249442  TIP3      5786            0.0000000000
     39678      5978  TIP3      H2             34.9756354720       15.9443149554      -31.7385322528  TIP3      5786            0.0000000000
     39679      5979  TIP3      OH2            34.9753588151        3.5007371317      -30.3015652562  TIP3      5787            0.0000000000
     39680      5979  TIP3      H1             34.2255505025        4.1194358362      -30.2716410549  TIP3      5787            0.0000000000
     39681      5979  TIP3      H2             35.6647442228        3.9912356605      -30.7618093102  TIP3      5787            0.0000000000
     39682      5980  TIP3      OH2            28.0189416563        1.5144707492      -32.6959552494  TIP3      5788            0.0000000000
     39683      5980  TIP3      H1             27.8806551831        0.5515130804      -32.7700694036  TIP3      5788            0.0000000000
     39684      5980  TIP3      H2             27.1401968354        1.8197967503      -32.3884813204  TIP3      5788            0.0000000000
     39685      5981  TIP3      OH2            32.9527306251       16.8557247833      -34.9595867905  TIP3      5789            0.0000000000
     39686      5981  TIP3      H1             33.4160999172       16.1557707453      -35.4595149418  TIP3      5789            0.0000000000
     39687      5981  TIP3      H2             33.4200795860       17.6460124603      -35.3123192948  TIP3      5789            0.0000000000
     39688      5982  TIP3      OH2            34.1861311818       14.7917062289      -36.4733127933  TIP3      5790            0.0000000000
     39689      5982  TIP3      H1             33.9067389114       14.0896215292      -37.0820685919  TIP3      5790            0.0000000000
     39690      5982  TIP3      H2             34.2410795998       14.3029048571      -35.6268571801  TIP3      5790            0.0000000000
     39691      5983  TIP3      OH2            35.6066364466       13.5130489058      -27.8696104111  TIP3      5791            0.0000000000
     39692      5983  TIP3      H1             35.9105099345       12.8271955046      -28.4934532405  TIP3      5791            0.0000000000
     39693      5983  TIP3      H2             36.0155580557       14.2991072005      -28.2895306937  TIP3      5791            0.0000000000
     39694      5984  TIP3      OH2            30.3056814018       10.3096554337      -38.2099104724  TIP3      5792            0.0000000000
     39695      5984  TIP3      H1             29.6235449139       10.8968059331      -38.5965839907  TIP3      5792            0.0000000000
     39696      5984  TIP3      H2             31.0246414054       10.3987287785      -38.8597980388  TIP3      5792            0.0000000000
     39697      5985  TIP3      OH2            30.3694179342        8.8445480773      -41.1095949626  TIP3      5793            0.0000000000
     39698      5985  TIP3      H1             31.0967444592        8.8486035631      -40.4705923696  TIP3      5793            0.0000000000
     39699      5985  TIP3      H2             30.6960819537        8.1988366856      -41.7413201714  TIP3      5793            0.0000000000
     39700      5986  TIP3      OH2            33.7586174814       10.5342953502      -37.2814653524  TIP3      5794            0.0000000000
     39701      5986  TIP3      H1             33.0358574640       10.7803643972      -36.6627283824  TIP3      5794            0.0000000000
     39702      5986  TIP3      H2             34.2313650936        9.8689312466      -36.7242423830  TIP3      5794            0.0000000000
     39703      5987  TIP3      OH2            33.6339178952        8.6554248070      -28.1641741774  TIP3      5795            0.0000000000
     39704      5987  TIP3      H1             33.6879422428        9.4648036938      -27.6296941316  TIP3      5795            0.0000000000
     39705      5987  TIP3      H2             33.0479834306        8.9886530196      -28.8673080724  TIP3      5795            0.0000000000
     39706      5988  TIP3      OH2            25.3622650836       11.1670477405      -35.3488439429  TIP3      5796            0.0000000000
     39707      5988  TIP3      H1             25.0560318808       10.7787179260      -36.2028492704  TIP3      5796            0.0000000000
     39708      5988  TIP3      H2             25.9901192250       10.4841026895      -35.0162963607  TIP3      5796            0.0000000000
     39709      5989  TIP3      OH2            26.6797637081       14.5552299842      -32.6622653291  TIP3      5797            0.0000000000
     39710      5989  TIP3      H1             26.6906495532       14.0418929371      -33.4800152150  TIP3      5797            0.0000000000
     39711      5989  TIP3      H2             27.4712792752       14.2054984478      -32.2121900217  TIP3      5797            0.0000000000
     39712      5990  TIP3      OH2            25.7043383401        9.9210801687      -31.6837006674  TIP3      5798            0.0000000000
     39713      5990  TIP3      H1             26.2522777028       10.0160547698      -32.4876247726  TIP3      5798            0.0000000000
     39714      5990  TIP3      H2             26.0996349265       10.5863905824      -31.0771784952  TIP3      5798            0.0000000000
     39715      5991  TIP3      OH2            32.0777477193       15.4995763265      -30.9905220493  TIP3      5799            0.0000000000
     39716      5991  TIP3      H1             31.8584712617       16.1336124644      -30.3040485924  TIP3      5799            0.0000000000
     39717      5991  TIP3      H2             31.8753912580       14.6401219430      -30.5535495323  TIP3      5799            0.0000000000
     39718      5992  TIP3      OH2            26.6678035470       14.3729069160      -27.0058621157  TIP3      5800            0.0000000000
     39719      5992  TIP3      H1             26.2248151858       15.0805359971      -26.5019537319  TIP3      5800            0.0000000000
     39720      5992  TIP3      H2             25.9865815346       14.1405136994      -27.6804833269  TIP3      5800            0.0000000000
     39721      5993  TIP3      OH2            32.6730180039        9.6845661550      -39.6158708073  TIP3      5801            0.0000000000
     39722      5993  TIP3      H1             33.1768976173        9.9140293675      -38.7965273356  TIP3      5801            0.0000000000
     39723      5993  TIP3      H2             33.0511830482       10.2574704361      -40.3130801442  TIP3      5801            0.0000000000
     39724      5994  TIP3      OH2            23.6030674849       10.5080138547      -27.8191821445  TIP3      5802            0.0000000000
     39725      5994  TIP3      H1             23.6580774333       11.1866830392      -27.1223437839  TIP3      5802            0.0000000000
     39726      5994  TIP3      H2             22.6671090939       10.6019636165      -28.0560627702  TIP3      5802            0.0000000000
     39727      5995  TIP3      OH2            30.3424395113       16.4327280248      -36.1175077946  TIP3      5803            0.0000000000
     39728      5995  TIP3      H1             30.7830094961       16.7489063048      -35.3186484757  TIP3      5803            0.0000000000
     39729      5995  TIP3      H2             29.7935929464       17.1809132259      -36.3801586567  TIP3      5803            0.0000000000
     39730      5996  TIP3      OH2            24.9208645249       16.3661585027      -26.2385439320  TIP3      5804            0.0000000000
     39731      5996  TIP3      H1             24.8526164846       16.2832389193      -27.2059878022  TIP3      5804            0.0000000000
     39732      5996  TIP3      H2             23.9893995786       16.2355708671      -25.9748954224  TIP3      5804            0.0000000000
     39733      5997  TIP3      OH2            36.1247323374        1.3632530431      -39.7644268840  TIP3      5805            0.0000000000
     39734      5997  TIP3      H1             35.2241899986        1.5957295507      -39.4598622600  TIP3      5805            0.0000000000
     39735      5997  TIP3      H2             36.4426159665        2.1759943642      -40.1549042504  TIP3      5805            0.0000000000
     39736      5998  TIP3      OH2            24.3356872375       10.1981227682      -37.7362933814  TIP3      5806            0.0000000000
     39737      5998  TIP3      H1             24.0626560155       10.9735735741      -38.2644981803  TIP3      5806            0.0000000000
     39738      5998  TIP3      H2             23.6902308225        9.5285671776      -37.9747596396  TIP3      5806            0.0000000000
     39739      5999  TIP3      OH2            20.4276133506       12.6221555277      -28.8238207020  TIP3      5807            0.0000000000
     39740      5999  TIP3      H1             19.9904720621       12.5391755936      -29.6923769297  TIP3      5807            0.0000000000
     39741      5999  TIP3      H2             20.5231103844       11.6725665694      -28.6156972181  TIP3      5807            0.0000000000
     39742      6000  TIP3      OH2            20.2101194960       15.3504449803      -32.0690545801  TIP3      5808            0.0000000000
     39743      6000  TIP3      H1             21.1664421808       15.2348713195      -32.0836641884  TIP3      5808            0.0000000000
     39744      6000  TIP3      H2             20.1401085353       16.1610407344      -31.5577946401  TIP3      5808            0.0000000000
     39745      6001  TIP3      OH2            29.3950360287       15.6080446409      -27.5099785125  TIP3      5809            0.0000000000
     39746      6001  TIP3      H1             29.4495876070       16.4510349693      -27.0116908140  TIP3      5809            0.0000000000
     39747      6001  TIP3      H2             28.5246864047       15.2346815393      -27.2670054457  TIP3      5809            0.0000000000
     39748      6002  TIP3      OH2            29.8364107201       19.3447485309      -37.7200807844  TIP3      5810            0.0000000000
     39749      6002  TIP3      H1             29.7536685350       19.2936511895      -38.6875437876  TIP3      5810            0.0000000000
     39750      6002  TIP3      H2             29.8804380195       20.3081730966      -37.5508123994  TIP3      5810            0.0000000000
     39751      6003  TIP3      OH2            23.4772818055       18.2281310900      -35.8917140339  TIP3      5811            0.0000000000
     39752      6003  TIP3      H1             23.6245848725       17.8153248164      -35.0103029484  TIP3      5811            0.0000000000
     39753      6003  TIP3      H2             22.6259567797       17.8205967441      -36.1262746470  TIP3      5811            0.0000000000
     39754      6004  TIP3      OH2            32.9069793110       18.5553064862      -40.7517118376  TIP3      5812            0.0000000000
     39755      6004  TIP3      H1             33.3386215698       17.7712248665      -41.1637170726  TIP3      5812            0.0000000000
     39756      6004  TIP3      H2             32.9226165086       18.3072581844      -39.8093909350  TIP3      5812            0.0000000000
     39757      6005  TIP3      OH2            32.5684360104       18.5040548453      -37.9450902782  TIP3      5813            0.0000000000
     39758      6005  TIP3      H1             31.6118656889       18.5622368093      -37.7599645497  TIP3      5813            0.0000000000
     39759      6005  TIP3      H2             32.8332638145       17.7629912770      -37.3804158492  TIP3      5813            0.0000000000
     39760      6006  TIP3      OH2            35.2499253033        7.6192974628      -25.8573318026  TIP3      5814            0.0000000000
     39761      6006  TIP3      H1             35.0813132383        8.0166718575      -26.7132405696  TIP3      5814            0.0000000000
     39762      6006  TIP3      H2             35.6542040493        6.7633274192      -26.1346479734  TIP3      5814            0.0000000000
     39763      6007  TIP3      OH2            22.7244206859       13.9385477685      -27.9012021773  TIP3      5815            0.0000000000
     39764      6007  TIP3      H1             22.9436741956       13.5845718910      -27.0109640463  TIP3      5815            0.0000000000
     39765      6007  TIP3      H2             21.8538637315       13.5423557982      -28.1069877166  TIP3      5815            0.0000000000
     39766      6008  TIP3      OH2            25.4073669152        2.4188942915      -31.9459410128  TIP3      5816            0.0000000000
     39767      6008  TIP3      H1             24.5039672337        2.2894857635      -32.3125649643  TIP3      5816            0.0000000000
     39768      6008  TIP3      H2             25.2695085272        3.2473421030      -31.4571519387  TIP3      5816            0.0000000000
     39769      6009  TIP3      OH2            30.0416302710        2.0770004728      -28.5882316169  TIP3      5817            0.0000000000
     39770      6009  TIP3      H1             30.4407861165        1.6641370123      -27.7998722559  TIP3      5817            0.0000000000
     39771      6009  TIP3      H2             29.0707755008        1.9673945637      -28.4357068106  TIP3      5817            0.0000000000
     39772      6010  TIP3      OH2            33.2992454297        5.9234638524      -27.7003947430  TIP3      5818            0.0000000000
     39773      6010  TIP3      H1             32.7565655652        5.7272599519      -26.9026631021  TIP3      5818            0.0000000000
     39774      6010  TIP3      H2             33.1409518081        6.8648722127      -27.8985014859  TIP3      5818            0.0000000000
     39775      6011  TIP3      OH2            34.2013623753       10.7453407544      -41.7547124355  TIP3      5819            0.0000000000
     39776      6011  TIP3      H1             34.1630301171       10.6386768468      -42.7231864588  TIP3      5819            0.0000000000
     39777      6011  TIP3      H2             34.9997111481       11.2727588466      -41.6746947486  TIP3      5819            0.0000000000
     39778      6012  TIP3      OH2            29.6899177763        4.6594018582      -41.2291997965  TIP3      5820            0.0000000000
     39779      6012  TIP3      H1             29.3614171258        4.6212458703      -40.3104422558  TIP3      5820            0.0000000000
     39780      6012  TIP3      H2             29.4492029168        3.7685378493      -41.5201972263  TIP3      5820            0.0000000000
     39781      6013  TIP3      OH2            25.5126550655        7.3964183991      -30.6769166606  TIP3      5821            0.0000000000
     39782      6013  TIP3      H1             24.7677080467        7.3852942325      -30.0493591842  TIP3      5821            0.0000000000
     39783      6013  TIP3      H2             25.4598663652        8.2997940396      -31.0629221170  TIP3      5821            0.0000000000
     39784      6014  TIP3      OH2            25.4681300728        7.4963914291      -35.8218229332  TIP3      5822            0.0000000000
     39785      6014  TIP3      H1             24.5277440840        7.2551779141      -35.9620269176  TIP3      5822            0.0000000000
     39786      6014  TIP3      H2             25.8451803924        7.2189139118      -36.6831842688  TIP3      5822            0.0000000000
     39787      6015  TIP3      OH2            31.0034163073        7.9995288581      -37.0820266365  TIP3      5823            0.0000000000
     39788      6015  TIP3      H1             30.5947304912        8.8326564893      -37.4127190522  TIP3      5823            0.0000000000
     39789      6015  TIP3      H2             31.6933763953        7.8379975494      -37.7483321128  TIP3      5823            0.0000000000
     39790      6016  TIP3      OH2            30.0445903426        8.2113058374      -25.6242956908  TIP3      5824            0.0000000000
     39791      6016  TIP3      H1             29.5309211924        7.4348449121      -25.3113541328  TIP3      5824            0.0000000000
     39792      6016  TIP3      H2             30.8870068741        8.1167545179      -25.1448496152  TIP3      5824            0.0000000000
     39793      6017  TIP3      OH2            32.0206918334        7.5261115740      -34.1964705944  TIP3      5825            0.0000000000
     39794      6017  TIP3      H1             31.7433841642        8.0735577873      -34.9480102424  TIP3      5825            0.0000000000
     39795      6017  TIP3      H2             32.1105308003        6.6671490864      -34.6619053873  TIP3      5825            0.0000000000
     39796      6018  TIP3      OH2            23.1267134315        7.6363478518      -29.0116712951  TIP3      5826            0.0000000000
     39797      6018  TIP3      H1             23.2223487389        8.0388020274      -28.1305549819  TIP3      5826            0.0000000000
     39798      6018  TIP3      H2             22.6865542953        6.7983129321      -28.7972498243  TIP3      5826            0.0000000000
     39799      6019  TIP3      OH2            26.6748543500        5.2908646591      -41.8247885409  TIP3      5827            0.0000000000
     39800      6019  TIP3      H1             26.1170334467        4.6435659348      -41.3442507832  TIP3      5827            0.0000000000
     39801      6019  TIP3      H2             26.0779646855        5.6322677278      -42.4954685235  TIP3      5827            0.0000000000
     39802      6020  TIP3      OH2            19.7889037119        4.7461297892      -35.0167096598  TIP3      5828            0.0000000000
     39803      6020  TIP3      H1             20.4737611507        4.7063271408      -34.3185283159  TIP3      5828            0.0000000000
     39804      6020  TIP3      H2             20.2360932100        4.3753914923      -35.8001132330  TIP3      5828            0.0000000000
     39805      6021  TIP3      OH2            21.0654647949        5.4793042065      -39.6407298962  TIP3      5829            0.0000000000
     39806      6021  TIP3      H1             21.5691722692        6.0552362616      -40.2563466855  TIP3      5829            0.0000000000
     39807      6021  TIP3      H2             20.3881065669        6.1104587550      -39.3360359869  TIP3      5829            0.0000000000
     39808      6022  TIP3      OH2            31.2206174686        9.0774667506      -29.6722199819  TIP3      5830            0.0000000000
     39809      6022  TIP3      H1             31.6102819440        8.3829551819      -30.2476929583  TIP3      5830            0.0000000000
     39810      6022  TIP3      H2             30.7539883488        8.5563353528      -28.9931911973  TIP3      5830            0.0000000000
     39811      6023  TIP3      OH2            28.0189581352        5.0710963888      -34.8161489177  TIP3      5831            0.0000000000
     39812      6023  TIP3      H1             27.0849199545        5.0652663972      -34.5283748771  TIP3      5831            0.0000000000
     39813      6023  TIP3      H2             28.5009167442        4.8887494991      -33.9989306755  TIP3      5831            0.0000000000
     39814      6024  TIP3      OH2            22.8283808103        6.6099204760      -35.9513847758  TIP3      5832            0.0000000000
     39815      6024  TIP3      H1             21.9463674694        6.7673933327      -36.3457762764  TIP3      5832            0.0000000000
     39816      6024  TIP3      H2             23.1135315950        5.7773427808      -36.3630696344  TIP3      5832            0.0000000000
     39817      6025  TIP3      OH2            26.4644214368        6.6919871823      -38.3058424828  TIP3      5833            0.0000000000
     39818      6025  TIP3      H1             27.4256258405        6.7761899436      -38.1587932547  TIP3      5833            0.0000000000
     39819      6025  TIP3      H2             26.2408802106        7.3298444280      -39.0056980582  TIP3      5833            0.0000000000
     39820      6026  TIP3      OH2            32.3954633804        4.2720843567      -31.5860346303  TIP3      5834            0.0000000000
     39821      6026  TIP3      H1             31.7245077973        4.3383742095      -30.8753091220  TIP3      5834            0.0000000000
     39822      6026  TIP3      H2             31.8830300660        4.0591206645      -32.3803866516  TIP3      5834            0.0000000000
     39823      6027  TIP3      OH2            25.1854569831        7.8167501954      -40.7212336562  TIP3      5835            0.0000000000
     39824      6027  TIP3      H1             24.6170473829        7.4866866222      -41.4399878961  TIP3      5835            0.0000000000
     39825      6027  TIP3      H2             25.9940768058        8.0499255064      -41.2069065161  TIP3      5835            0.0000000000
     39826      6028  TIP3      OH2            35.6060239729       19.9473229954      -25.2146382523  TIP3      5836            0.0000000000
     39827      6028  TIP3      H1             35.9015830845       20.3019123474      -26.0644210050  TIP3      5836            0.0000000000
     39828      6028  TIP3      H2             36.3162882881       20.2633356397      -24.6343133534  TIP3      5836            0.0000000000
     39829      6029  TIP3      OH2            23.3319934466       12.4316538235      -25.6631691625  TIP3      5837            0.0000000000
     39830      6029  TIP3      H1             24.0301022212       12.6729351692      -25.0325464942  TIP3      5837            0.0000000000
     39831      6029  TIP3      H2             22.5473017563       12.5077356228      -25.0829284925  TIP3      5837            0.0000000000
     39832      6030  TIP3      OH2            29.3028756273        7.8147140594      -32.9311027083  TIP3      5838            0.0000000000
     39833      6030  TIP3      H1             29.9176739658        7.2827716554      -33.4509796220  TIP3      5838            0.0000000000
     39834      6030  TIP3      H2             29.1559441573        7.2700774937      -32.1460794388  TIP3      5838            0.0000000000
     39835      6031  TIP3      OH2            24.3114894458        3.9593920825      -36.4766822937  TIP3      5839            0.0000000000
     39836      6031  TIP3      H1             24.0022308886        3.0373173372      -36.4958975426  TIP3      5839            0.0000000000
     39837      6031  TIP3      H2             25.0980840050        3.8950740038      -37.0374555944  TIP3      5839            0.0000000000
     39838      6032  TIP3      OH2            27.9411160410        6.1443459079      -30.5147238416  TIP3      5840            0.0000000000
     39839      6032  TIP3      H1             27.1182463265        6.6649432044      -30.4270348551  TIP3      5840            0.0000000000
     39840      6032  TIP3      H2             28.4990617085        6.4980082494      -29.7952409530  TIP3      5840            0.0000000000
     39841      6033  TIP3      OH2            28.5340707497       12.3420572869      -38.7854171828  TIP3      5841            0.0000000000
     39842      6033  TIP3      H1             27.7318606989       11.8966621540      -39.1321971622  TIP3      5841            0.0000000000
     39843      6033  TIP3      H2             28.3000109551       12.4814750825      -37.8478878442  TIP3      5841            0.0000000000
     39844      6034  TIP3      OH2            35.5715709845       11.6303387932      -30.0087021909  TIP3      5842            0.0000000000
     39845      6034  TIP3      H1             36.2101845474       11.8082026548      -30.7273652133  TIP3      5842            0.0000000000
     39846      6034  TIP3      H2             34.7467140068       11.5989025636      -30.5299709969  TIP3      5842            0.0000000000
     39847      6035  TIP3      OH2            32.3820762149        5.1517151468      -40.6286996086  TIP3      5843            0.0000000000
     39848      6035  TIP3      H1             31.4395059278        5.3064146048      -40.8140152095  TIP3      5843            0.0000000000
     39849      6035  TIP3      H2             32.6560096410        6.0377961008      -40.3189607528  TIP3      5843            0.0000000000
     39850      6036  TIP3      OH2            30.0203658033       12.6148935072      -27.5957116644  TIP3      5844            0.0000000000
     39851      6036  TIP3      H1             29.6775145216       12.2075503662      -26.7911351677  TIP3      5844            0.0000000000
     39852      6036  TIP3      H2             29.7974137124       13.5437278724      -27.4745376123  TIP3      5844            0.0000000000
     39853      6037  TIP3      OH2            33.0972807719        7.1091120990      -39.0400834896  TIP3      5845            0.0000000000
     39854      6037  TIP3      H1             33.9573133610        6.9938885761      -38.5921622525  TIP3      5845            0.0000000000
     39855      6037  TIP3      H2             33.1664616167        7.9711847677      -39.4794591680  TIP3      5845            0.0000000000
     39856      6038  TIP3      OH2            23.6412158605       11.7675238459      -33.0152726252  TIP3      5846            0.0000000000
     39857      6038  TIP3      H1             24.3211749459       11.6808638352      -33.7112729363  TIP3      5846            0.0000000000
     39858      6038  TIP3      H2             23.6987748116       10.9084153396      -32.5598788849  TIP3      5846            0.0000000000
     39859      6039  TIP3      OH2            30.6240562984       13.8397888972      -39.7376423915  TIP3      5847            0.0000000000
     39860      6039  TIP3      H1             30.2447388319       14.6869502717      -39.4162832371  TIP3      5847            0.0000000000
     39861      6039  TIP3      H2             29.8901642655       13.2056084587      -39.5721165398  TIP3      5847            0.0000000000
     39862      6040  TIP3      OH2            20.6388714154       10.1561003915      -27.7540350238  TIP3      5848            0.0000000000
     39863      6040  TIP3      H1             20.7970498506        9.7128077133      -26.8996899338  TIP3      5848            0.0000000000
     39864      6040  TIP3      H2             20.0032236614        9.5552526873      -28.1831903925  TIP3      5848            0.0000000000
     39865      6041  TIP3      OH2            27.6320724828        9.7146453404      -25.5837538536  TIP3      5849            0.0000000000
     39866      6041  TIP3      H1             27.3288529783        9.4234734149      -26.4577801046  TIP3      5849            0.0000000000
     39867      6041  TIP3      H2             28.5660412185        9.4262707912      -25.5855025471  TIP3      5849            0.0000000000
     39868      6042  TIP3      OH2            32.3148173808       15.0351924069      -27.6291154314  TIP3      5850            0.0000000000
     39869      6042  TIP3      H1             31.4000127481       15.2300717588      -27.8689520327  TIP3      5850            0.0000000000
     39870      6042  TIP3      H2             32.3117335328       15.3484334700      -26.7083709362  TIP3      5850            0.0000000000
     39871      6043  TIP3      OH2            36.1684580206       16.0654874212      -38.8359244527  TIP3      5851            0.0000000000
     39872      6043  TIP3      H1             35.8766798057       15.2234644321      -38.4890813136  TIP3      5851            0.0000000000
     39873      6043  TIP3      H2             36.5730044782       15.8815033341      -39.6935312597  TIP3      5851            0.0000000000
     39874      6044  TIP3      OH2            33.4321901033       10.8570963019      -31.7085086825  TIP3      5852            0.0000000000
     39875      6044  TIP3      H1             32.4919658595       10.6468725344      -31.8677385860  TIP3      5852            0.0000000000
     39876      6044  TIP3      H2             33.9033899729       10.1304704129      -32.1621211396  TIP3      5852            0.0000000000
     39877      6045  TIP3      OH2            26.0151654446       15.2199773710      -35.6302986052  TIP3      5853            0.0000000000
     39878      6045  TIP3      H1             26.5127936348       16.0260561341      -35.8362674078  TIP3      5853            0.0000000000
     39879      6045  TIP3      H2             25.1362539574       15.4495260120      -35.9623893481  TIP3      5853            0.0000000000
     39880      6046  TIP3      OH2            21.7420991800       10.0714658378      -41.1085364774  TIP3      5854            0.0000000000
     39881      6046  TIP3      H1             22.3606435710       10.6956267627      -40.6816384735  TIP3      5854            0.0000000000
     39882      6046  TIP3      H2             20.8774335477       10.3468470015      -40.7716657152  TIP3      5854            0.0000000000
     39883      6047  TIP3      OH2            27.4251446931       12.8810423087      -36.1082351873  TIP3      5855            0.0000000000
     39884      6047  TIP3      H1             27.1087516643       13.8019222075      -36.0300844934  TIP3      5855            0.0000000000
     39885      6047  TIP3      H2             26.7095134659       12.3876130846      -35.6647912464  TIP3      5855            0.0000000000
     39886      6048  TIP3      OH2            27.8687091949       17.0734795539      -29.7017342048  TIP3      5856            0.0000000000
     39887      6048  TIP3      H1             28.3331677395       17.8727180160      -29.9932079545  TIP3      5856            0.0000000000
     39888      6048  TIP3      H2             28.4950317068       16.7175427537      -29.0484567114  TIP3      5856            0.0000000000
     39889      6049  TIP3      OH2            26.1191206418       17.8770254943      -36.5917971221  TIP3      5857            0.0000000000
     39890      6049  TIP3      H1             25.1535079499       18.0108634639      -36.4445770963  TIP3      5857            0.0000000000
     39891      6049  TIP3      H2             26.4723422135       18.7133802566      -36.2372985405  TIP3      5857            0.0000000000
     39892      6050  TIP3      OH2            31.4092827520       13.0566502775      -30.0850002498  TIP3      5858            0.0000000000
     39893      6050  TIP3      H1             31.0764277450       12.8670616333      -29.1806782431  TIP3      5858            0.0000000000
     39894      6050  TIP3      H2             32.0421788461       12.3400610533      -30.2529534227  TIP3      5858            0.0000000000
     39895      6051  TIP3      OH2            33.7010440458       14.1028790737      -40.9556187993  TIP3      5859            0.0000000000
     39896      6051  TIP3      H1             33.9854687285       13.6504500623      -40.1380858410  TIP3      5859            0.0000000000
     39897      6051  TIP3      H2             32.7455696078       13.9588136630      -40.9021952427  TIP3      5859            0.0000000000
     39898      6052  TIP3      OH2            34.1810078887       17.6817462318      -27.5904787458  TIP3      5860            0.0000000000
     39899      6052  TIP3      H1             33.5298561483       17.1537776255      -28.0912615409  TIP3      5860            0.0000000000
     39900      6052  TIP3      H2             34.4208417852       18.3451406359      -28.2682660936  TIP3      5860            0.0000000000
     39901      6053  TIP3      OH2            22.2775541206        4.9012272671      -28.2055153517  TIP3      5861            0.0000000000
     39902      6053  TIP3      H1             21.3708090348        5.2502588904      -28.2252296798  TIP3      5861            0.0000000000
     39903      6053  TIP3      H2             22.1735756249        4.0546471009      -27.7447487516  TIP3      5861            0.0000000000
     39904      6054  TIP3      OH2            34.5222483394       12.7459795712      -38.7420931722  TIP3      5862            0.0000000000
     39905      6054  TIP3      H1             34.2640320620       11.9463696093      -38.2242550715  TIP3      5862            0.0000000000
     39906      6054  TIP3      H2             35.4576175200       12.8209642460      -38.5082242933  TIP3      5862            0.0000000000
     39907      6055  TIP3      OH2            21.8776481780       16.6925127160      -29.7752666031  TIP3      5863            0.0000000000
     39908      6055  TIP3      H1             22.1973880727       15.7743829777      -29.7843330116  TIP3      5863            0.0000000000
     39909      6055  TIP3      H2             22.1761841077       16.9677634451      -28.8997323313  TIP3      5863            0.0000000000
     39910      6056  TIP3      OH2            26.6413420515       14.7776615583      -40.0668224939  TIP3      5864            0.0000000000
     39911      6056  TIP3      H1             26.9085279277       14.2110376645      -39.3298448868  TIP3      5864            0.0000000000
     39912      6056  TIP3      H2             26.7297881204       15.6849297363      -39.7129696412  TIP3      5864            0.0000000000
     39913      6057  TIP3      OH2            23.1242949346       12.0004867672      -39.6220138242  TIP3      5865            0.0000000000
     39914      6057  TIP3      H1             22.4760342168       12.4048583906      -39.0099768711  TIP3      5865            0.0000000000
     39915      6057  TIP3      H2             23.7049488280       12.7519155415      -39.8330419701  TIP3      5865            0.0000000000
     39916      6058  TIP3      OH2            30.9952880577        4.6641611130      -29.2289445910  TIP3      5866            0.0000000000
     39917      6058  TIP3      H1             31.7404603983        4.7362980227      -28.6222844723  TIP3      5866            0.0000000000
     39918      6058  TIP3      H2             30.6277573608        3.7848066592      -29.0217258239  TIP3      5866            0.0000000000
     39919      6059  TIP3      OH2            31.7589565293        4.2401954337      -38.1475907151  TIP3      5867            0.0000000000
     39920      6059  TIP3      H1             32.0024081711        4.7064608766      -38.9734499066  TIP3      5867            0.0000000000
     39921      6059  TIP3      H2             32.3303956833        4.6734430635      -37.5086707583  TIP3      5867            0.0000000000
     39922      6060  TIP3      OH2            29.4404405066       16.4207816541      -39.3245794688  TIP3      5868            0.0000000000
     39923      6060  TIP3      H1             28.6215702488       16.9397157555      -39.2708028031  TIP3      5868            0.0000000000
     39924      6060  TIP3      H2             29.9861846872       16.9104670386      -39.9648263867  TIP3      5868            0.0000000000
     39925      6061  TIP3      OH2            28.9799852486        5.9853684199      -37.3434004723  TIP3      5869            0.0000000000
     39926      6061  TIP3      H1             29.7573481534        6.5742290773      -37.3176299111  TIP3      5869            0.0000000000
     39927      6061  TIP3      H2             28.7172116260        5.8763625979      -36.4118089440  TIP3      5869            0.0000000000
     39928      6062  TIP3      OH2            29.5691549339        7.0235895355      -28.1616565048  TIP3      5870            0.0000000000
     39929      6062  TIP3      H1             29.6533201530        7.5783268667      -27.3591234952  TIP3      5870            0.0000000000
     39930      6062  TIP3      H2             30.2132236765        6.3109834598      -28.0545572197  TIP3      5870            0.0000000000
     39931      6063  TIP3      OH2            29.8002943524        3.0518712945      -36.4787178658  TIP3      5871            0.0000000000
     39932      6063  TIP3      H1             29.5209022330        3.6932435175      -35.8058711776  TIP3      5871            0.0000000000
     39933      6063  TIP3      H2             30.5144565124        3.5881405667      -36.9090161268  TIP3      5871            0.0000000000
     39934      6064  TIP3      OH2            26.8208876490       17.4556765357      -39.3010374902  TIP3      5872            0.0000000000
     39935      6064  TIP3      H1             26.9793432050       18.2751419584      -39.8111678193  TIP3      5872            0.0000000000
     39936      6064  TIP3      H2             26.5662155125       17.7990104417      -38.4142937072  TIP3      5872            0.0000000000
     39937      6065  TIP3      OH2            25.5010720536        4.1528037950      -39.6994356950  TIP3      5873            0.0000000000
     39938      6065  TIP3      H1             25.4413683858        5.0682063204      -39.3598186774  TIP3      5873            0.0000000000
     39939      6065  TIP3      H2             26.4139623529        3.9248132446      -39.4429600768  TIP3      5873            0.0000000000
     39940      6066  TIP3      OH2            35.6856871510        4.8166476351      -27.4115456433  TIP3      5874            0.0000000000
     39941      6066  TIP3      H1             34.7874474429        5.2195421348      -27.4341106715  TIP3      5874            0.0000000000
     39942      6066  TIP3      H2             36.0054213596        4.9419836024      -28.3104885417  TIP3      5874            0.0000000000
     39943      6067  TIP3      OH2            34.3494900353        8.6851810354      -33.2416563357  TIP3      5875            0.0000000000
     39944      6067  TIP3      H1             33.5249811424        8.2643181808      -33.5628456235  TIP3      5875            0.0000000000
     39945      6067  TIP3      H2             34.7401395734        7.9423509029      -32.7571010763  TIP3      5875            0.0000000000
     39946      6068  TIP3      OH2            23.7354093771       14.6095438614      -40.7024316460  TIP3      5876            0.0000000000
     39947      6068  TIP3      H1             24.4036631518       15.2197929318      -40.3744006974  TIP3      5876            0.0000000000
     39948      6068  TIP3      H2             24.2543868474       14.1275927873      -41.3762581896  TIP3      5876            0.0000000000
     39949      6069  TIP3      OH2            22.1130718158        7.2922266828      -41.4458408024  TIP3      5877            0.0000000000
     39950      6069  TIP3      H1             22.1117785973        8.2603490043      -41.4091983820  TIP3      5877            0.0000000000
     39951      6069  TIP3      H2             21.2776684037        7.0923772201      -41.8890934405  TIP3      5877            0.0000000000
     39952      6070  TIP3      OH2            35.4437571817       17.9436092585      -31.6162972129  TIP3      5878            0.0000000000
     39953      6070  TIP3      H1             35.2745247867       18.6324363533      -32.2869687873  TIP3      5878            0.0000000000
     39954      6070  TIP3      H2             36.3819512636       18.0365752016      -31.4378045097  TIP3      5878            0.0000000000
     39955      6071  TIP3      OH2            22.8870575973        2.0571691069      -32.8081066306  TIP3      5879            0.0000000000
     39956      6071  TIP3      H1             22.6978897629        2.0729900529      -33.7734134534  TIP3      5879            0.0000000000
     39957      6071  TIP3      H2             22.4756012531        1.2018629118      -32.5620735854  TIP3      5879            0.0000000000
     39958      6072  TIP3      OH2            21.8453212728       15.9808177009      -36.6708537571  TIP3      5880            0.0000000000
     39959      6072  TIP3      H1             20.9857677633       16.4172134397      -36.7279567183  TIP3      5880            0.0000000000
     39960      6072  TIP3      H2             22.3133934295       16.4383585192      -37.3825371010  TIP3      5880            0.0000000000
     39961      6073  TIP3      OH2            21.0799533347       18.5862586564      -25.4513436074  TIP3      5881            0.0000000000
     39962      6073  TIP3      H1             21.6386161210       18.4335659342      -24.6627727139  TIP3      5881            0.0000000000
     39963      6073  TIP3      H2             20.6421643718       17.7264926316      -25.5524804570  TIP3      5881            0.0000000000
     39964      6074  TIP3      OH2            25.7826342747       17.5707194804      -23.7776430355  TIP3      5882            0.0000000000
     39965      6074  TIP3      H1             26.4056286799       16.9245267658      -23.4750562387  TIP3      5882            0.0000000000
     39966      6074  TIP3      H2             25.6188571913       17.2591567488      -24.6960536519  TIP3      5882            0.0000000000
     39967      6075  TIP3      OH2            30.2428017412       17.1068045277      -41.7856302565  TIP3      5883            0.0000000000
     39968      6075  TIP3      H1             29.3974507631       16.6334256004      -41.8910183256  TIP3      5883            0.0000000000
     39969      6075  TIP3      H2             30.7400371682       16.6639628025      -42.4779608830  TIP3      5883            0.0000000000
     39970      6076  TIP3      OH2            32.2357734500       15.9564529179      -25.0193246214  TIP3      5884            0.0000000000
     39971      6076  TIP3      H1             31.9258626167       15.0584456537      -24.7659439805  TIP3      5884            0.0000000000
     39972      6076  TIP3      H2             33.0150665982       16.0616931419      -24.4499100867  TIP3      5884            0.0000000000
     39973      6077  TIP3      OH2            34.3842688074       16.7918050895      -42.2001597664  TIP3      5885            0.0000000000
     39974      6077  TIP3      H1             34.6702886977       16.0140585010      -41.7014025940  TIP3      5885            0.0000000000
     39975      6077  TIP3      H2             35.1715949401       17.0954907230      -42.6693040005  TIP3      5885            0.0000000000
     39976      6078  TIP3      OH2            20.9575369047       12.3725170460      -24.3800837588  TIP3      5886            0.0000000000
     39977      6078  TIP3      H1             21.1321430852       11.4829897359      -24.7464262476  TIP3      5886            0.0000000000
     39978      6078  TIP3      H2             20.2122106101       12.6806776598      -24.9338758144  TIP3      5886            0.0000000000
     39979      6079  TIP3      OH2            25.3914843543       12.8206384441      -42.2332727609  TIP3      5887            0.0000000000
     39980      6079  TIP3      H1             25.4523397905       11.9834628249      -41.7660527977  TIP3      5887            0.0000000000
     39981      6079  TIP3      H2             25.9447071800       12.5934729994      -43.0075919564  TIP3      5887            0.0000000000
     39982      6080  TIP3      OH2            27.7080669605       12.3882036158      -25.0043559295  TIP3      5888            0.0000000000
     39983      6080  TIP3      H1             27.3506726043       12.7050410886      -25.8519391889  TIP3      5888            0.0000000000
     39984      6080  TIP3      H2             27.7365795110       11.4128960301      -25.1003318032  TIP3      5888            0.0000000000
     39985      6081  TIP3      OH2            33.3393498154       12.2176318882      -27.6509979481  TIP3      5889            0.0000000000
     39986      6081  TIP3      H1             34.1258520310       12.8157213749      -27.6986053297  TIP3      5889            0.0000000000
     39987      6081  TIP3      H2             32.6655977796       12.9085356791      -27.5715353614  TIP3      5889            0.0000000000
     39988      6082  TIP3      OH2            21.8266499992        9.6218047498      -25.0156135685  TIP3      5890            0.0000000000
     39989      6082  TIP3      H1             22.2983879775        8.7914974736      -25.1344512440  TIP3      5890            0.0000000000
     39990      6082  TIP3      H2             21.6282504724        9.6121678078      -24.0714096122  TIP3      5890            0.0000000000
     39991      6083  TIP3      OH2            26.5279640252       10.7877074041      -39.9448127227  TIP3      5891            0.0000000000
     39992      6083  TIP3      H1             26.0135204768       10.2517871012      -39.3200950847  TIP3      5891            0.0000000000
     39993      6083  TIP3      H2             26.8328919823       10.1004556844      -40.5849357386  TIP3      5891            0.0000000000
     39994      6084  TIP3      OH2            25.7805413760        8.5589220252      -27.6447565998  TIP3      5892            0.0000000000
     39995      6084  TIP3      H1             25.1912997311        9.2832002407      -27.3818463209  TIP3      5892            0.0000000000
     39996      6084  TIP3      H2             26.1750369501        8.9315605262      -28.4520264671  TIP3      5892            0.0000000000
     39997      6085  TIP3      OH2            27.6086378385        8.9902195901      -41.7449134046  TIP3      5893            0.0000000000
     39998      6085  TIP3      H1             27.4780149537        8.8037272600      -42.6862645891  TIP3      5893            0.0000000000
     39999      6085  TIP3      H2             28.5848968209        9.0723828450      -41.6533426783  TIP3      5893            0.0000000000
     40000      6086  TIP3      OH2            30.8122456756       11.1560450255      -24.2456331189  TIP3      5894            0.0000000000
     40001      6086  TIP3      H1             31.7520004185       11.1099453295      -24.4658323973  TIP3      5894            0.0000000000
     40002      6086  TIP3      H2             30.6620294832       10.3472149828      -23.7389245445  TIP3      5894            0.0000000000
     40003      6087  TIP3      OH2            26.1949797318        5.9511331079      -26.5890933809  TIP3      5895            0.0000000000
     40004      6087  TIP3      H1             26.2982707142        5.2476521362      -27.2582836400  TIP3      5895            0.0000000000
     40005      6087  TIP3      H2             26.1320109036        6.7613078270      -27.1382340873  TIP3      5895            0.0000000000
     40006      6088  TIP3      OH2            26.5923671294        4.3367855408      -29.0359875720  TIP3      5896            0.0000000000
     40007      6088  TIP3      H1             27.0964683903        4.7962228284      -29.7476662803  TIP3      5896            0.0000000000
     40008      6088  TIP3      H2             25.6957649558        4.2578680432      -29.4334643091  TIP3      5896            0.0000000000
     40009      6089  TIP3      OH2            28.1215315606        9.8238940725      -28.7996688374  TIP3      5897            0.0000000000
     40010      6089  TIP3      H1             28.8780297653        9.6559794453      -29.3720010650  TIP3      5897            0.0000000000
     40011      6089  TIP3      H2             27.7666474104       10.6608841153      -29.1397574186  TIP3      5897            0.0000000000
     40012      6090  TIP3      OH2            32.4985176466        7.5897690090      -23.7909065667  TIP3      5898            0.0000000000
     40013      6090  TIP3      H1             32.7422041298        6.6718596180      -23.9753764853  TIP3      5898            0.0000000000
     40014      6090  TIP3      H2             33.3744379657        8.0040810739      -23.8454897546  TIP3      5898            0.0000000000
     40015      6091  TIP3      OH2            33.8160987969       10.3847967645      -25.6894464914  TIP3      5899            0.0000000000
     40016      6091  TIP3      H1             33.6116621290       11.1104014436      -26.3119661161  TIP3      5899            0.0000000000
     40017      6091  TIP3      H2             34.7808843604       10.3172276450      -25.8558809595  TIP3      5899            0.0000000000
     40018      6092  TIP3      OH2            24.6285197761        7.1909169015      -24.6669128856  TIP3      5900            0.0000000000
     40019      6092  TIP3      H1             23.8692102762        6.6195868244      -24.8686014768  TIP3      5900            0.0000000000
     40020      6092  TIP3      H2             25.2930847198        6.8315405606      -25.2818854869  TIP3      5900            0.0000000000
     40021      6093  TIP3      OH2            27.3738770703        1.7712581964      -28.6649627852  TIP3      5901            0.0000000000
     40022      6093  TIP3      H1             27.1915094935        2.7323675245      -28.7655315250  TIP3      5901            0.0000000000
     40023      6093  TIP3      H2             26.6261986669        1.3999186787      -29.1643390404  TIP3      5901            0.0000000000
     40024      6094  TIP3      OH2            28.6711273332        6.0376094126      -25.0642868408  TIP3      5902            0.0000000000
     40025      6094  TIP3      H1             28.3865968116        5.9221456672      -24.1413008203  TIP3      5902            0.0000000000
     40026      6094  TIP3      H2             27.8369218530        5.9147778015      -25.5562260508  TIP3      5902            0.0000000000
     40027      6095  TIP3      OH2            31.3570665000        5.2461118728      -25.9217014968  TIP3      5903            0.0000000000
     40028      6095  TIP3      H1             30.3856282705        5.2858343492      -25.8106684757  TIP3      5903            0.0000000000
     40029      6095  TIP3      H2             31.6604897534        4.5886652424      -25.2654521061  TIP3      5903            0.0000000000
     40030      6096  TIP3      OH2            32.9027313408        3.8925648942      -24.0269592995  TIP3      5904            0.0000000000
     40031      6096  TIP3      H1             32.9160486288        2.9119164407      -24.0213930620  TIP3      5904            0.0000000000
     40032      6096  TIP3      H2             32.7019531240        4.1135722882      -23.1176822195  TIP3      5904            0.0000000000
     40033      6097  TIP3      OH2            22.7436852220        5.1344240150      -24.9534758786  TIP3      5905            0.0000000000
     40034      6097  TIP3      H1             22.9790461165        4.3943214479      -25.5467614160  TIP3      5905            0.0000000000
     40035      6097  TIP3      H2             22.6191205259        4.6836579934      -24.1180938591  TIP3      5905            0.0000000000
     40036      6098  TIP3      OH2            27.5949912824        1.1649499556      -25.9427636193  TIP3      5906            0.0000000000
     40037      6098  TIP3      H1             28.2706781382        0.4613752342      -25.9970949254  TIP3      5906            0.0000000000
     40038      6098  TIP3      H2             27.4554894328        1.3256007709      -26.8982666580  TIP3      5906            0.0000000000
     40039      6099  TIP3      OH2            27.9119788336        2.8432547878      -23.8042713304  TIP3      5907            0.0000000000
     40040      6099  TIP3      H1             27.8010703862        2.2840177377      -24.6157448372  TIP3      5907            0.0000000000
     40041      6099  TIP3      H2             27.2993403050        3.5468912232      -24.0101396774  TIP3      5907            0.0000000000
     40042      6100  TIP3      OH2            27.4202716278       19.6835200180      -40.7311783135  TIP3      5908            0.0000000000
     40043      6100  TIP3      H1             28.3932458006       19.7822354273      -40.5973818296  TIP3      5908            0.0000000000
     40044      6100  TIP3      H2             27.2530240813       20.3570258257      -41.3899013531  TIP3      5908            0.0000000000
     40045      6101  TIP3      OH2            20.9916505890       14.2694721141      -41.1948062670  TIP3      5909            0.0000000000
     40046      6101  TIP3      H1             21.9506916126       14.3672429500      -40.9872640674  TIP3      5909            0.0000000000
     40047      6101  TIP3      H2             21.0279271836       13.6982124548      -41.9671808366  TIP3      5909            0.0000000000
     40048      6102  TIP3      OH2            19.7536653166       19.6445971042      -36.2343610932  TIP3      5910            0.0000000000
     40049      6102  TIP3      H1             19.0335264385       19.1581322825      -36.6920993497  TIP3      5910            0.0000000000
     40050      6102  TIP3      H2             20.0326114715       18.9935606826      -35.5654644911  TIP3      5910            0.0000000000
     40051      6103  TIP3      OH2            20.5748733714       17.7757178881      -34.3619511821  TIP3      5911            0.0000000000
     40052      6103  TIP3      H1             20.2193014967       16.9029004691      -34.1490377067  TIP3      5911            0.0000000000
     40053      6103  TIP3      H2             20.8450204333       18.1019868564      -33.4891916896  TIP3      5911            0.0000000000
     40054      6104  TIP3      OH2            35.9172156987       14.1330522905      -24.3302151854  TIP3      5912            0.0000000000
     40055      6104  TIP3      H1             35.2163107962       13.8207669744      -23.7516503975  TIP3      5912            0.0000000000
     40056      6104  TIP3      H2             36.4097253823       14.5913268987      -23.6558523630  TIP3      5912            0.0000000000
     40057      6105  TIP3      OH2            36.1073851242       15.8309094978      -29.1814241654  TIP3      5913            0.0000000000
     40058      6105  TIP3      H1             35.4461886262       16.2739265963      -28.6334408677  TIP3      5913            0.0000000000
     40059      6105  TIP3      H2             35.5690242261       15.4840856012      -29.9240945743  TIP3      5913            0.0000000000
     40060      6106  TIP3      OH2            36.3755724139        7.3797023097      -41.5535190511  TIP3      5914            0.0000000000
     40061      6106  TIP3      H1             36.5867694367        8.0189018447      -42.2478950533  TIP3      5914            0.0000000000
     40062      6106  TIP3      H2             36.2100204808        6.5340627703      -42.0106604467  TIP3      5914            0.0000000000
     40063      6107  TIP3      OH2            35.2598953514        8.8326117480      -35.8932873018  TIP3      5915            0.0000000000
     40064      6107  TIP3      H1             35.4140242816        7.8794999946      -35.8580617408  TIP3      5915            0.0000000000
     40065      6107  TIP3      H2             35.2498740061        9.0473717121      -34.9445950121  TIP3      5915            0.0000000000
     40066      6108  TIP3      OH2            20.6259576929       10.8498657548      -31.8697973237  TIP3      5916            0.0000000000
     40067      6108  TIP3      H1             20.8181913857       10.7839721587      -32.8293287836  TIP3      5916            0.0000000000
     40068      6108  TIP3      H2             21.5204493461       10.6821623084      -31.5099109212  TIP3      5916            0.0000000000
     40069      6109  TIP3      OH2           -37.0493076662       10.7810881866      -25.9731302609  TIP3      5917            0.0000000000
     40070      6109  TIP3      H1            -36.4598049989       10.0049275705      -25.9547734488  TIP3      5917            0.0000000000
     40071      6109  TIP3      H2            -36.4633279752       11.4958208105      -26.2692751566  TIP3      5917            0.0000000000
     40072      6110  TIP3      OH2            35.6230100661        4.8909163729      -42.3693191649  TIP3      5918            0.0000000000
     40073      6110  TIP3      H1             36.2698685145        4.3788817616      -41.8565719707  TIP3      5918            0.0000000000
     40074      6110  TIP3      H2             34.8193214711        4.3688538221      -42.2582245150  TIP3      5918            0.0000000000
     40075      6111  TIP3      OH2            35.2794347805        6.3216365177      -37.5798360164  TIP3      5919            0.0000000000
     40076      6111  TIP3      H1             35.5659257020        5.4599865441      -37.2247138971  TIP3      5919            0.0000000000
     40077      6111  TIP3      H2             36.0782188955        6.6802480413      -37.9598164233  TIP3      5919            0.0000000000
     40078      6112  TIP3      OH2            35.5284353979        6.3852698567      -32.0727473788  TIP3      5920            0.0000000000
     40079      6112  TIP3      H1             36.4735821137        6.5088081563      -32.2469642778  TIP3      5920            0.0000000000
     40080      6112  TIP3      H2             35.5429129257        6.8894957451      -31.2378578563  TIP3      5920            0.0000000000
     40081      6113  TIP3      OH2            35.9824514380        7.6348345336      -29.1067264661  TIP3      5921            0.0000000000
     40082      6113  TIP3      H1             35.0833661873        7.9336401064      -28.8959017867  TIP3      5921            0.0000000000
     40083      6113  TIP3      H2             36.3889425224        8.4057331251      -29.5349923311  TIP3      5921            0.0000000000
     40084      6114  TIP3      OH2            20.2488282862        6.1591791171      -25.6950665834  TIP3      5922            0.0000000000
     40085      6114  TIP3      H1             21.1884941362        5.9436900675      -25.5442313861  TIP3      5922            0.0000000000
     40086      6114  TIP3      H2             19.7832847557        5.3330190455      -25.4401679141  TIP3      5922            0.0000000000
     40087      6115  TIP3      OH2            35.1689758302        3.4568413490      -36.8760151150  TIP3      5923            0.0000000000
     40088      6115  TIP3      H1             36.0418504829        3.1789537097      -36.5506935382  TIP3      5923            0.0000000000
     40089      6115  TIP3      H2             35.1207637765        2.9096063619      -37.6948006333  TIP3      5923            0.0000000000
     40090      6116  TIP3      OH2            21.4547177786        4.4533042352      -32.8561067148  TIP3      5924            0.0000000000
     40091      6116  TIP3      H1             21.9122737524        3.6241895357      -32.6035486424  TIP3      5924            0.0000000000
     40092      6116  TIP3      H2             22.0097034519        5.1421701629      -32.4684347795  TIP3      5924            0.0000000000
     40093      6117  TIP3      OH2            19.7347931567        7.4573325509      -31.8235910233  TIP3      5925            0.0000000000
     40094      6117  TIP3      H1             20.2997430085        7.2018506162      -32.5809340989  TIP3      5925            0.0000000000
     40095      6117  TIP3      H2             20.2067562961        8.2579042138      -31.5527560378  TIP3      5925            0.0000000000
     40096      6118  TIP3      OH2            20.0960863663        3.7092018322      -37.7593165075  TIP3      5926            0.0000000000
     40097      6118  TIP3      H1             19.1561811936        3.9035584794      -37.8884864518  TIP3      5926            0.0000000000
     40098      6118  TIP3      H2             20.5162690679        4.2066761022      -38.4834835394  TIP3      5926            0.0000000000
     40099      6119  TIP3      OH2            34.7086783140       18.5409914036      -35.7353104609  TIP3      5927            0.0000000000
     40100      6119  TIP3      H1             35.3580415907       18.1911402825      -36.3543331408  TIP3      5927            0.0000000000
     40101      6119  TIP3      H2             35.2600835351       19.1037875446      -35.1578231541  TIP3      5927            0.0000000000
     40102      6120  TIP3      OH2            20.0475402220        2.3607875027      -29.4572250845  TIP3      5928            0.0000000000
     40103      6120  TIP3      H1             19.3815935406        2.1728238448      -28.7726736514  TIP3      5928            0.0000000000
     40104      6120  TIP3      H2             19.5906281912        3.0382624412      -29.9952048426  TIP3      5928            0.0000000000
     40105      6121  TIP3      OH2            22.2710070389       15.5661889426      -25.2488655923  TIP3      5929            0.0000000000
     40106      6121  TIP3      H1             21.4447317870       15.7889576824      -25.7025754424  TIP3      5929            0.0000000000
     40107      6121  TIP3      H2             21.9792348840       15.5119237165      -24.3341920257  TIP3      5929            0.0000000000
     40108      6122  TIP3      OH2            25.1732604617       16.5707559185      -29.0314047175  TIP3      5930            0.0000000000
     40109      6122  TIP3      H1             24.8605195021       17.4498514195      -29.2821410203  TIP3      5930            0.0000000000
     40110      6122  TIP3      H2             26.1119795938       16.6552475305      -29.3048815709  TIP3      5930            0.0000000000
     40111      6123  TIP3      OH2            29.5235605646       17.9911045598      -26.0412164365  TIP3      5931            0.0000000000
     40112      6123  TIP3      H1             29.7755071948       17.6015176969      -25.1975959813  TIP3      5931            0.0000000000
     40113      6123  TIP3      H2             30.3987868074       18.3128880383      -26.3707771644  TIP3      5931            0.0000000000
     40114      6124  TIP3      OH2            31.7941872860       19.2470530155      -26.7826038520  TIP3      5932            0.0000000000
     40115      6124  TIP3      H1             32.5527426445       18.6950298247      -27.0392014840  TIP3      5932            0.0000000000
     40116      6124  TIP3      H2             32.1829881787       19.7095521129      -26.0109816760  TIP3      5932            0.0000000000
     40117      6125  TIP3      OH2            22.6012934600       19.7914186116      -29.0282820249  TIP3      5933            0.0000000000
     40118      6125  TIP3      H1             21.8923865752       20.3180617020      -29.4160939790  TIP3      5933            0.0000000000
     40119      6125  TIP3      H2             22.3243560231       19.6161937973      -28.1157567747  TIP3      5933            0.0000000000
     40120      6126  TIP3      OH2            25.0801513004       19.3861217812      -29.9427537674  TIP3      5934            0.0000000000
     40121      6126  TIP3      H1             24.1859044275       19.5408666384      -29.5568682232  TIP3      5934            0.0000000000
     40122      6126  TIP3      H2             25.0376373285       19.9756437247      -30.7189532453  TIP3      5934            0.0000000000
     40123      6127  TIP3      OH2            29.7923170847       19.2997819214      -30.7749223142  TIP3      5935            0.0000000000
     40124      6127  TIP3      H1             29.3277570622       19.8561966829      -31.4200543605  TIP3      5935            0.0000000000
     40125      6127  TIP3      H2             29.9146764679       19.9317765477      -30.0292778322  TIP3      5935            0.0000000000
     40126      6128  TIP3      OH2            32.0869532495       18.0970590445      -29.7450955936  TIP3      5936            0.0000000000
     40127      6128  TIP3      H1             31.2300874738       18.3714547631      -30.1124753741  TIP3      5936            0.0000000000
     40128      6128  TIP3      H2             32.5418532422       18.9523414357      -29.8167527324  TIP3      5936            0.0000000000
     40129      6129  TIP3      OH2            34.6250254171       19.7246417508      -29.5139770304  TIP3      5937            0.0000000000
     40130      6129  TIP3      H1             34.5508797862       20.6694023678      -29.7513412760  TIP3      5937            0.0000000000
     40131      6129  TIP3      H2             34.8959622398       19.3234523166      -30.3615902946  TIP3      5937            0.0000000000
     40132      6130  TIP3      OH2            22.0529071572       18.4496811480      -32.0655738396  TIP3      5938            0.0000000000
     40133      6130  TIP3      H1             22.0314406116       17.9719312966      -31.2124277038  TIP3      5938            0.0000000000
     40134      6130  TIP3      H2             22.8727559690       18.0921335707      -32.4701159432  TIP3      5938            0.0000000000
     40135      6131  TIP3      OH2            24.1439258281       17.1692091716      -33.4196698440  TIP3      5939            0.0000000000
     40136      6131  TIP3      H1             23.9889319151       16.2333212684      -33.1879276159  TIP3      5939            0.0000000000
     40137      6131  TIP3      H2             25.0036676355       17.3265093481      -32.9723998216  TIP3      5939            0.0000000000
     40138      6132  TIP3      OH2            26.7237251653       17.6560757278      -32.5455455098  TIP3      5940            0.0000000000
     40139      6132  TIP3      H1             26.9047807397       16.7343455657      -32.8087010556  TIP3      5940            0.0000000000
     40140      6132  TIP3      H2             26.7960382851       17.6015096778      -31.5807654123  TIP3      5940            0.0000000000
     40141      6133  TIP3      OH2            30.2065747070        3.3045949084      -33.4150180842  TIP3      5941            0.0000000000
     40142      6133  TIP3      H1             29.5333407841        2.6650416889      -33.1264821200  TIP3      5941            0.0000000000
     40143      6133  TIP3      H2             30.7623839081        2.7686895737      -33.9918341115  TIP3      5941            0.0000000000
     40144      6134  TIP3      OH2            35.3592846401        1.3394456542      -33.3142418899  TIP3      5942            0.0000000000
     40145      6134  TIP3      H1             35.9025286738        1.9882305163      -33.7747289056  TIP3      5942            0.0000000000
     40146      6134  TIP3      H2             34.4620853885        1.6769603077      -33.5362321217  TIP3      5942            0.0000000000
     40147      6135  TIP3      OH2            22.5700183460        1.9197152332      -35.5324524478  TIP3      5943            0.0000000000
     40148      6135  TIP3      H1             21.7842537324        1.7382753420      -36.0840212319  TIP3      5943            0.0000000000
     40149      6135  TIP3      H2             23.0338679174        1.0644318033      -35.6155444566  TIP3      5943            0.0000000000
     40150      6136  TIP3      OH2            21.2957615744        1.6906840694      -39.8451344665  TIP3      5944            0.0000000000
     40151      6136  TIP3      H1             21.8276710449        2.3219613744      -40.3744825390  TIP3      5944            0.0000000000
     40152      6136  TIP3      H2             20.7758039471        2.2719574132      -39.2702552598  TIP3      5944            0.0000000000
     40153      6137  TIP3      OH2            27.0266272642        1.8783679683      -35.7590157150  TIP3      5945            0.0000000000
     40154      6137  TIP3      H1             27.9410581484        2.1941177614      -35.8576790057  TIP3      5945            0.0000000000
     40155      6137  TIP3      H2             27.0125225937        1.6331930024      -34.8362050859  TIP3      5945            0.0000000000
     40156      6138  TIP3      OH2            32.8102084355        1.8401515853      -34.1764646097  TIP3      5946            0.0000000000
     40157      6138  TIP3      H1             32.7252560319        1.9883116388      -35.1309578315  TIP3      5946            0.0000000000
     40158      6138  TIP3      H2             32.3749829394        0.9646324842      -34.0330724577  TIP3      5946            0.0000000000
     40159      6139  TIP3      OH2            33.9570172096        1.8576931802      -38.5309899234  TIP3      5947            0.0000000000
     40160      6139  TIP3      H1             33.2326291312        2.4833386862      -38.6509341459  TIP3      5947            0.0000000000
     40161      6139  TIP3      H2             33.5106263292        1.0088164562      -38.2920278510  TIP3      5947            0.0000000000
     40162      6140  TIP3      OH2            21.2631529077       17.6436516045      -38.8210538335  TIP3      5948            0.0000000000
     40163      6140  TIP3      H1             20.5853435063       17.6401999576      -39.5242406007  TIP3      5948            0.0000000000
     40164      6140  TIP3      H2             21.2933035532       18.5954686403      -38.6631744684  TIP3      5948            0.0000000000
     40165      6141  TIP3      OH2            23.1597064012        3.5145702225      -41.2745793570  TIP3      5949            0.0000000000
     40166      6141  TIP3      H1             23.7127770308        3.0140771711      -41.8780842271  TIP3      5949            0.0000000000
     40167      6141  TIP3      H2             23.8264224029        3.9709717990      -40.7305034936  TIP3      5949            0.0000000000
     40168      6142  TIP3      OH2            28.2024536112        3.8686155924      -38.9202218367  TIP3      5950            0.0000000000
     40169      6142  TIP3      H1             28.4644869307        3.2949924178      -38.1818688794  TIP3      5950            0.0000000000
     40170      6142  TIP3      H2             28.2734742801        4.7344223510      -38.4575494936  TIP3      5950            0.0000000000
     40171      6143  TIP3      OH2            30.1133003630       19.2468566723      -40.4775688334  TIP3      5951            0.0000000000
     40172      6143  TIP3      H1             31.0793550698       19.2184105340      -40.6144087322  TIP3      5951            0.0000000000
     40173      6143  TIP3      H2             29.9251767186       18.4979802048      -41.0948149363  TIP3      5951            0.0000000000
     40174      6144  TIP3      OH2            22.4392936272        2.4834872560      -26.0777746471  TIP3      5952            0.0000000000
     40175      6144  TIP3      H1             22.0657790861        1.6708805645      -25.6890216853  TIP3      5952            0.0000000000
     40176      6144  TIP3      H2             23.3644858533        2.4053208355      -25.7549665209  TIP3      5952            0.0000000000
     40177      6145  TIP3      OH2            24.4655649952        1.8451851436      -24.4899038423  TIP3      5953            0.0000000000
     40178      6145  TIP3      H1             25.3499510873        1.5143515906      -24.7147573870  TIP3      5953            0.0000000000
     40179      6145  TIP3      H2             24.1223665176        1.0508978513      -24.0360970955  TIP3      5953            0.0000000000
     40180      6146  TIP3      OH2            23.0979370629       18.6339591673      -41.8702938659  TIP3      5954            0.0000000000
     40181      6146  TIP3      H1             22.7820690654       18.8850213792      -40.9912217668  TIP3      5954            0.0000000000
     40182      6146  TIP3      H2             23.8424728469       18.0588171191      -41.6973786633  TIP3      5954            0.0000000000
     40183      6147  TIP3      OH2            32.9104281494        1.1572693122      -24.3272717067  TIP3      5955            0.0000000000
     40184      6147  TIP3      H1             32.9922333055        0.7159833100      -23.4550318966  TIP3      5955            0.0000000000
     40185      6147  TIP3      H2             33.8216777699        1.1020324727      -24.6871798931  TIP3      5955            0.0000000000
     40186      6148  TIP3      OH2            35.9839002530       17.1613597204      -25.5510728588  TIP3      5956            0.0000000000
     40187      6148  TIP3      H1             35.2803584649       17.0229193559      -26.2195483908  TIP3      5956            0.0000000000
     40188      6148  TIP3      H2             35.9007676892       18.1382508706      -25.4703008459  TIP3      5956            0.0000000000
     40189      6149  TIP3      OH2           -24.9133946688       29.9086063570      -35.7019399211  TIP3      5957            0.0000000000
     40190      6149  TIP3      H1            -24.9199587422       30.8930545287      -35.7307188931  TIP3      5957            0.0000000000
     40191      6149  TIP3      H2            -25.6386996457       29.6892424855      -36.3082045813  TIP3      5957            0.0000000000
     40192      6150  TIP3      OH2           -26.0380140851       29.1712411495      -32.1897333404  TIP3      5958            0.0000000000
     40193      6150  TIP3      H1            -26.0725057039       28.4999170153      -31.4998762245  TIP3      5958            0.0000000000
     40194      6150  TIP3      H2            -26.3940394544       28.6854838658      -32.9585614647  TIP3      5958            0.0000000000
     40195      6151  TIP3      OH2           -33.6582018675       28.8490667542      -30.6815506248  TIP3      5959            0.0000000000
     40196      6151  TIP3      H1            -33.6097063862       28.1611395012      -29.9809478255  TIP3      5959            0.0000000000
     40197      6151  TIP3      H2            -32.9294944931       29.4296350783      -30.4254177346  TIP3      5959            0.0000000000
     40198      6152  TIP3      OH2           -22.3652625425       32.1104944632      -33.9067405225  TIP3      5960            0.0000000000
     40199      6152  TIP3      H1            -22.7983525003       31.4093803671      -33.4192582181  TIP3      5960            0.0000000000
     40200      6152  TIP3      H2            -22.3330530696       32.8314201822      -33.2547707930  TIP3      5960            0.0000000000
     40201      6153  TIP3      OH2           -32.7712740428       33.2914459552      -32.1229631292  TIP3      5961            0.0000000000
     40202      6153  TIP3      H1            -33.0947683465       32.4309320314      -32.4554763170  TIP3      5961            0.0000000000
     40203      6153  TIP3      H2            -31.8214919743       33.0959428186      -32.0856744915  TIP3      5961            0.0000000000
     40204      6154  TIP3      OH2           -35.9208059530       26.8944459599      -36.9301938722  TIP3      5962            0.0000000000
     40205      6154  TIP3      H1            -36.4273747291       27.6826117585      -36.6346041146  TIP3      5962            0.0000000000
     40206      6154  TIP3      H2            -36.6520177423       26.3133305152      -37.0624271900  TIP3      5962            0.0000000000
     40207      6155  TIP3      OH2           -35.4425602136       29.0336243236      -34.5452219347  TIP3      5963            0.0000000000
     40208      6155  TIP3      H1            -35.1676599109       28.2617790996      -34.0354803843  TIP3      5963            0.0000000000
     40209      6155  TIP3      H2            -34.7079267308       29.1716692444      -35.1563086082  TIP3      5963            0.0000000000
     40210      6156  TIP3      OH2           -27.6900552347       31.5179965676      -31.6775052864  TIP3      5964            0.0000000000
     40211      6156  TIP3      H1            -27.3546762205       30.9648663191      -32.3993378404  TIP3      5964            0.0000000000
     40212      6156  TIP3      H2            -26.8620270113       31.7707281597      -31.2473735037  TIP3      5964            0.0000000000
     40213      6157  TIP3      OH2           -19.0813924623       23.2332371566      -31.0219568031  TIP3      5965            0.0000000000
     40214      6157  TIP3      H1            -18.9257888894       23.8188027722      -30.2479853385  TIP3      5965            0.0000000000
     40215      6157  TIP3      H2            -18.5036757555       23.6590037513      -31.6704476868  TIP3      5965            0.0000000000
     40216      6158  TIP3      OH2           -24.5521464692       26.0542074711      -31.3901145668  TIP3      5966            0.0000000000
     40217      6158  TIP3      H1            -24.3209452444       25.1078035964      -31.4058256033  TIP3      5966            0.0000000000
     40218      6158  TIP3      H2            -24.6156549279       26.1997995561      -32.3555781989  TIP3      5966            0.0000000000
     40219      6159  TIP3      OH2           -31.3803463118       24.1314839426      -34.2003728039  TIP3      5967            0.0000000000
     40220      6159  TIP3      H1            -31.2820867956       24.9667882177      -34.6942882523  TIP3      5967            0.0000000000
     40221      6159  TIP3      H2            -31.7855498191       23.5622120443      -34.8902330672  TIP3      5967            0.0000000000
     40222      6160  TIP3      OH2           -23.6562946220       24.2134855463      -35.8322327161  TIP3      5968            0.0000000000
     40223      6160  TIP3      H1            -23.0087036459       23.9012654388      -35.1584264996  TIP3      5968            0.0000000000
     40224      6160  TIP3      H2            -23.0902641795       24.7899931689      -36.3692367111  TIP3      5968            0.0000000000
     40225      6161  TIP3      OH2           -34.7478918725       26.5206243664      -33.5543176566  TIP3      5969            0.0000000000
     40226      6161  TIP3      H1            -34.0809140089       26.0267036165      -33.0347719554  TIP3      5969            0.0000000000
     40227      6161  TIP3      H2            -34.5882087464       26.1824811689      -34.4462516316  TIP3      5969            0.0000000000
     40228      6162  TIP3      OH2           -29.6233816029       28.1012242290      -34.1424201316  TIP3      5970            0.0000000000
     40229      6162  TIP3      H1            -28.9427176962       27.5230529392      -33.7554167856  TIP3      5970            0.0000000000
     40230      6162  TIP3      H2            -30.1259708509       27.4451099274      -34.6624711808  TIP3      5970            0.0000000000
     40231      6163  TIP3      OH2           -18.6607407120       24.6354925339      -28.7337079238  TIP3      5971            0.0000000000
     40232      6163  TIP3      H1            -19.2711744487       25.3946354332      -28.8483641381  TIP3      5971            0.0000000000
     40233      6163  TIP3      H2            -18.5799801793       24.5544719565      -27.7765670002  TIP3      5971            0.0000000000
     40234      6164  TIP3      OH2           -32.4780837927       23.0373206136      -30.1662373086  TIP3      5972            0.0000000000
     40235      6164  TIP3      H1            -32.7581616469       23.6062730641      -30.9141852735  TIP3      5972            0.0000000000
     40236      6164  TIP3      H2            -33.1697812436       23.2596461545      -29.4916584669  TIP3      5972            0.0000000000
     40237      6165  TIP3      OH2           -25.1883200445       32.5044206090      -36.6169178520  TIP3      5973            0.0000000000
     40238      6165  TIP3      H1            -25.4577569780       32.2478996785      -37.5141787047  TIP3      5973            0.0000000000
     40239      6165  TIP3      H2            -25.4718130989       33.4357835363      -36.5718745789  TIP3      5973            0.0000000000
     40240      6166  TIP3      OH2           -29.9353955911       30.6630610452      -29.9067031064  TIP3      5974            0.0000000000
     40241      6166  TIP3      H1            -30.6746922038       31.2826843402      -29.6901701922  TIP3      5974            0.0000000000
     40242      6166  TIP3      H2            -29.2687881005       31.2891008288      -30.2257771621  TIP3      5974            0.0000000000
     40243      6167  TIP3      OH2           -21.8675859026       23.5686942036      -33.8207508615  TIP3      5975            0.0000000000
     40244      6167  TIP3      H1            -22.0481168701       22.7894041072      -33.2904627544  TIP3      5975            0.0000000000
     40245      6167  TIP3      H2            -21.1701170887       23.9993250352      -33.2951677513  TIP3      5975            0.0000000000
     40246      6168  TIP3      OH2           -32.9291835977       24.8457738654      -32.1351792770  TIP3      5976            0.0000000000
     40247      6168  TIP3      H1            -32.3408885767       25.5631351337      -31.8039738211  TIP3      5976            0.0000000000
     40248      6168  TIP3      H2            -32.3784689463       24.4781773864      -32.8704405303  TIP3      5976            0.0000000000
     40249      6169  TIP3      OH2           -31.5320136948       32.6666727435      -29.1097292339  TIP3      5977            0.0000000000
     40250      6169  TIP3      H1            -31.5854563257       33.5783044294      -29.4416611564  TIP3      5977            0.0000000000
     40251      6169  TIP3      H2            -32.4213251652       32.6059644783      -28.6949770931  TIP3      5977            0.0000000000
     40252      6170  TIP3      OH2           -35.4325246913       32.3626428795      -38.3202516504  TIP3      5978            0.0000000000
     40253      6170  TIP3      H1            -35.6448185409       32.6529711879      -39.2280528206  TIP3      5978            0.0000000000
     40254      6170  TIP3      H2            -35.3362084910       33.1762106964      -37.7861084677  TIP3      5978            0.0000000000
     40255      6171  TIP3      OH2           -21.8147165450       34.0056488119      -31.5114060451  TIP3      5979            0.0000000000
     40256      6171  TIP3      H1            -22.7903884259       34.0668747279      -31.4519996111  TIP3      5979            0.0000000000
     40257      6171  TIP3      H2            -21.5504236756       34.9030892707      -31.7702379759  TIP3      5979            0.0000000000
     40258      6172  TIP3      OH2           -21.5176076750       22.2556764801      -30.1363693562  TIP3      5980            0.0000000000
     40259      6172  TIP3      H1            -22.2346388693       22.8861193967      -30.2665547704  TIP3      5980            0.0000000000
     40260      6172  TIP3      H2            -20.7911277903       22.6786144574      -30.6400906012  TIP3      5980            0.0000000000
     40261      6173  TIP3      OH2           -28.5428726861       20.3867706788      -32.6904256837  TIP3      5981            0.0000000000
     40262      6173  TIP3      H1            -28.6760321197       19.4203051921      -32.7648435797  TIP3      5981            0.0000000000
     40263      6173  TIP3      H2            -29.4320018916       20.6738332027      -32.3919227805  TIP3      5981            0.0000000000
     40264      6174  TIP3      OH2           -23.5617848567       35.5330810837      -35.0466265841  TIP3      5982            0.0000000000
     40265      6174  TIP3      H1            -23.0667140039       34.8840649650      -35.5821190644  TIP3      5982            0.0000000000
     40266      6174  TIP3      H2            -23.1685063282       36.3495193844      -35.3593798618  TIP3      5982            0.0000000000
     40267      6175  TIP3      OH2           -22.3436031568       33.6449016932      -36.4471806826  TIP3      5983            0.0000000000
     40268      6175  TIP3      H1            -22.6600912657       32.9742261884      -37.0706746411  TIP3      5983            0.0000000000
     40269      6175  TIP3      H2            -22.3343674595       33.1589073154      -35.6010335756  TIP3      5983            0.0000000000
     40270      6176  TIP3      OH2           -20.8467013671       32.2939044992      -27.9702349628  TIP3      5984            0.0000000000
     40271      6176  TIP3      H1            -20.6002978598       31.6270309138      -28.6500896680  TIP3      5984            0.0000000000
     40272      6176  TIP3      H2            -20.4978951416       33.1097947893      -28.3803759965  TIP3      5984            0.0000000000
     40273      6177  TIP3      OH2           -26.2610565277       29.1722222628      -38.1998982633  TIP3      5985            0.0000000000
     40274      6177  TIP3      H1            -26.9436101176       29.7507257848      -38.5951773404  TIP3      5985            0.0000000000
     40275      6177  TIP3      H2            -25.5446254385       29.2540306790      -38.8552110368  TIP3      5985            0.0000000000
     40276      6178  TIP3      OH2           -26.2143562267       27.7012854025      -41.1030726048  TIP3      5986            0.0000000000
     40277      6178  TIP3      H1            -25.4786508425       27.7023983186      -40.4707160201  TIP3      5986            0.0000000000
     40278      6178  TIP3      H2            -25.8840336293       27.0625214003      -41.7400914936  TIP3      5986            0.0000000000
     40279      6179  TIP3      OH2           -18.8367819892       28.5894275669      -29.9005582942  TIP3      5987            0.0000000000
     40280      6179  TIP3      H1            -19.5213852526       29.2919413379      -29.8676563966  TIP3      5987            0.0000000000
     40281      6179  TIP3      H2            -18.3604966864       28.8229419262      -30.7193977053  TIP3      5987            0.0000000000
     40282      6180  TIP3      OH2           -22.8100274519       29.3824771886      -37.2437112497  TIP3      5988            0.0000000000
     40283      6180  TIP3      H1            -23.5547860566       29.6139029747      -36.6390630820  TIP3      5988            0.0000000000
     40284      6180  TIP3      H2            -22.3249984313       28.7071849969      -36.7380823043  TIP3      5988            0.0000000000
     40285      6181  TIP3      OH2           -22.8517367981       27.5635631786      -28.1703066703  TIP3      5989            0.0000000000
     40286      6181  TIP3      H1            -22.8138360222       28.3472417997      -27.6108543505  TIP3      5989            0.0000000000
     40287      6181  TIP3      H2            -23.4929439413       27.8068757804      -28.8568051516  TIP3      5989            0.0000000000
     40288      6182  TIP3      OH2           -31.1676244551       30.0421048978      -35.3494684680  TIP3      5990            0.0000000000
     40289      6182  TIP3      H1            -31.5235371940       29.6365400518      -36.1757068216  TIP3      5990            0.0000000000
     40290      6182  TIP3      H2            -30.5676808152       29.3396724436      -35.0134396214  TIP3      5990            0.0000000000
     40291      6183  TIP3      OH2           -29.8413840386       33.3930456166      -32.6852169209  TIP3      5991            0.0000000000
     40292      6183  TIP3      H1            -29.8543641851       32.8640367169      -33.4839221449  TIP3      5991            0.0000000000
     40293      6183  TIP3      H2            -29.0747038873       33.0495712234      -32.1968445648  TIP3      5991            0.0000000000
     40294      6184  TIP3      OH2           -30.8498326566       28.7843589128      -31.6803349789  TIP3      5992            0.0000000000
     40295      6184  TIP3      H1            -30.3080024199       28.8789114607      -32.4884134732  TIP3      5992            0.0000000000
     40296      6184  TIP3      H2            -30.4673561604       29.4549947093      -31.0724287943  TIP3      5992            0.0000000000
     40297      6185  TIP3      OH2           -24.4429569657       34.3432877026      -30.9740052072  TIP3      5993            0.0000000000
     40298      6185  TIP3      H1            -24.7777466298       35.0080019130      -30.3798623258  TIP3      5993            0.0000000000
     40299      6185  TIP3      H2            -24.7207753597       33.4980021149      -30.5638703611  TIP3      5993            0.0000000000
     40300      6186  TIP3      OH2           -29.8813576796       33.2337959273      -26.9988902793  TIP3      5994            0.0000000000
     40301      6186  TIP3      H1            -30.3097783735       33.9532227696      -26.4803713298  TIP3      5994            0.0000000000
     40302      6186  TIP3      H2            -30.5665882626       33.0089939964      -27.6774991847  TIP3      5994            0.0000000000
     40303      6187  TIP3      OH2           -23.9172258314       28.5459428283      -39.5900267265  TIP3      5995            0.0000000000
     40304      6187  TIP3      H1            -23.3806634031       28.7531024087      -38.7871305553  TIP3      5995            0.0000000000
     40305      6187  TIP3      H2            -23.5135951069       29.0970378514      -40.2906783121  TIP3      5995            0.0000000000
     40306      6188  TIP3      OH2           -32.9201800811       29.3865615539      -27.7995348941  TIP3      5996            0.0000000000
     40307      6188  TIP3      H1            -32.9157114850       30.0784929501      -27.1153141926  TIP3      5996            0.0000000000
     40308      6188  TIP3      H2            -33.8533648845       29.4352415148      -28.0839542330  TIP3      5996            0.0000000000
     40309      6189  TIP3      OH2           -26.2532622018       35.2604166723      -36.0761404373  TIP3      5997            0.0000000000
     40310      6189  TIP3      H1            -25.7290504925       35.6117941331      -35.3548188931  TIP3      5997            0.0000000000
     40311      6189  TIP3      H2            -26.7385538048       36.0261252381      -36.4038641208  TIP3      5997            0.0000000000
     40312      6190  TIP3      OH2           -31.6953468698       35.2802990666      -26.3412218637  TIP3      5998            0.0000000000
     40313      6190  TIP3      H1            -31.7655419243       35.1300277616      -27.2961028438  TIP3      5998            0.0000000000
     40314      6190  TIP3      H2            -32.5959573356       35.1012167207      -26.0048763077  TIP3      5998            0.0000000000
     40315      6191  TIP3      OH2           -20.2082083794       20.3007784927      -39.6999950060  TIP3      5999            0.0000000000
     40316      6191  TIP3      H1            -21.1594155488       20.4094779043      -39.4560899917  TIP3      5999            0.0000000000
     40317      6191  TIP3      H2            -19.9890510560       21.1573762684      -40.1042420606  TIP3      5999            0.0000000000
     40318      6192  TIP3      OH2           -32.1973373805       29.0502024000      -37.7608829897  TIP3      6000            0.0000000000
     40319      6192  TIP3      H1            -32.4866151819       29.8329170244      -38.2654748973  TIP3      6000            0.0000000000
     40320      6192  TIP3      H2            -32.8747059720       28.3998385251      -37.9721539756  TIP3      6000            0.0000000000
     40321      6193  TIP3      OH2           -19.0605467105       34.6027316830      -41.3001497559  TIP3      6001            0.0000000000
     40322      6193  TIP3      H1            -19.0128407869       35.5650236316      -41.2027531153  TIP3      6001            0.0000000000
     40323      6193  TIP3      H2            -18.1344670348       34.3440416090      -41.4151928963  TIP3      6001            0.0000000000
     40324      6194  TIP3      OH2           -35.7027027615       31.4010868995      -29.0404850208  TIP3      6002            0.0000000000
     40325      6194  TIP3      H1            -36.4143521215       31.4417009906      -29.7018810587  TIP3      6002            0.0000000000
     40326      6194  TIP3      H2            -35.9698337171       30.5515268050      -28.6413018166  TIP3      6002            0.0000000000
     40327      6195  TIP3      OH2           -36.1932865158       34.4069267550      -32.2385417714  TIP3      6003            0.0000000000
     40328      6195  TIP3      H1            -35.3156699374       34.0695897372      -32.0206837431  TIP3      6003            0.0000000000
     40329      6195  TIP3      H2            -36.3622701630       35.0055091092      -31.5042589638  TIP3      6003            0.0000000000
     40330      6196  TIP3      OH2           -18.1635717210       34.9051032805      -26.3216225868  TIP3      6004            0.0000000000
     40331      6196  TIP3      H1            -18.2693251176       33.9534111261      -26.4135818195  TIP3      6004            0.0000000000
     40332      6196  TIP3      H2            -19.0447962641       35.1783651172      -25.9911272607  TIP3      6004            0.0000000000
     40333      6197  TIP3      OH2           -27.1915985617       34.4966418689      -27.5530181644  TIP3      6005            0.0000000000
     40334      6197  TIP3      H1            -27.0865955672       35.2585697592      -26.9677983683  TIP3      6005            0.0000000000
     40335      6197  TIP3      H2            -28.0319937062       34.1100196805      -27.2262335298  TIP3      6005            0.0000000000
     40336      6198  TIP3      OH2           -33.8184292313       32.8397887141      -27.8586592255  TIP3      6006            0.0000000000
     40337      6198  TIP3      H1            -33.6761831570       32.4349562928      -26.9824710279  TIP3      6006            0.0000000000
     40338      6198  TIP3      H2            -34.6663579631       32.4280936423      -28.1576912872  TIP3      6006            0.0000000000
     40339      6199  TIP3      OH2           -31.1470279427       21.2835457528      -31.9509828407  TIP3      6007            0.0000000000
     40340      6199  TIP3      H1            -32.0499330832       21.1626908411      -32.3162998905  TIP3      6007            0.0000000000
     40341      6199  TIP3      H2            -31.2847066721       22.1059064860      -31.4527406439  TIP3      6007            0.0000000000
     40342      6200  TIP3      OH2           -26.5249969525       20.8940094998      -28.5809803168  TIP3      6008            0.0000000000
     40343      6200  TIP3      H1            -26.1270252675       20.5373084518      -27.7712525409  TIP3      6008            0.0000000000
     40344      6200  TIP3      H2            -27.4979832015       20.8323695829      -28.4215093085  TIP3      6008            0.0000000000
     40345      6201  TIP3      OH2           -22.4006472732       29.6422528515      -41.7405065507  TIP3      6009            0.0000000000
     40346      6201  TIP3      H1            -22.3987057870       29.4817564381      -42.7002844698  TIP3      6009            0.0000000000
     40347      6201  TIP3      H2            -21.5377574340       30.0854840067      -41.6433300945  TIP3      6009            0.0000000000
     40348      6202  TIP3      OH2           -26.8715559989       23.5180097162      -41.2330991072  TIP3      6010            0.0000000000
     40349      6202  TIP3      H1            -27.1973571606       23.4650554387      -40.3177862600  TIP3      6010            0.0000000000
     40350      6202  TIP3      H2            -27.1500905201       22.6419870023      -41.5299542682  TIP3      6010            0.0000000000
     40351      6203  TIP3      OH2           -31.0597284078       26.2504498739      -30.6981180277  TIP3      6011            0.0000000000
     40352      6203  TIP3      H1            -31.7830348110       26.2302645329      -30.0406397687  TIP3      6011            0.0000000000
     40353      6203  TIP3      H2            -31.1474858874       27.1582639798      -31.0641730689  TIP3      6011            0.0000000000
     40354      6204  TIP3      OH2           -31.0888418474       26.3567284727      -35.8218975541  TIP3      6012            0.0000000000
     40355      6204  TIP3      H1            -32.0302960350       26.1138450286      -35.9562943858  TIP3      6012            0.0000000000
     40356      6204  TIP3      H2            -30.7135083278       26.0738825433      -36.6786214336  TIP3      6012            0.0000000000
     40357      6205  TIP3      OH2           -25.5717065934       26.8560546637      -37.0854379725  TIP3      6013            0.0000000000
     40358      6205  TIP3      H1            -25.9772974243       27.6932329864      -37.4077220286  TIP3      6013            0.0000000000
     40359      6205  TIP3      H2            -24.8854290416       26.7034171530      -37.7615221181  TIP3      6013            0.0000000000
     40360      6206  TIP3      OH2           -26.5550387980       27.0546480775      -25.6009589607  TIP3      6014            0.0000000000
     40361      6206  TIP3      H1            -27.0584975745       26.2804520829      -25.2860179151  TIP3      6014            0.0000000000
     40362      6206  TIP3      H2            -25.7118534009       26.9270151126      -25.1429087556  TIP3      6014            0.0000000000
     40363      6207  TIP3      OH2           -24.5507146543       26.3401659226      -34.1865775995  TIP3      6015            0.0000000000
     40364      6207  TIP3      H1            -24.8273606866       26.9175661630      -34.9213086454  TIP3      6015            0.0000000000
     40365      6207  TIP3      H2            -24.4469881436       25.5102662748      -34.6896721712  TIP3      6015            0.0000000000
     40366      6208  TIP3      OH2           -33.4208104627       26.4807566070      -29.0088613150  TIP3      6016            0.0000000000
     40367      6208  TIP3      H1            -33.3684450264       26.8919381715      -28.1293947025  TIP3      6016            0.0000000000
     40368      6208  TIP3      H2            -33.8923719167       25.6560232331      -28.8118222828  TIP3      6016            0.0000000000
     40369      6209  TIP3      OH2           -29.8846516006       24.1100003769      -41.8382730251  TIP3      6017            0.0000000000
     40370      6209  TIP3      H1            -30.4330908531       23.4938411877      -41.3073612293  TIP3      6017            0.0000000000
     40371      6209  TIP3      H2            -30.5008797222       24.4904768238      -42.4668388194  TIP3      6017            0.0000000000
     40372      6210  TIP3      OH2           -36.4908661427       23.8404774111      -35.1629783840  TIP3      6018            0.0000000000
     40373      6210  TIP3      H1            -36.0879947080       23.5391327247      -34.3210390042  TIP3      6018            0.0000000000
     40374      6210  TIP3      H2            -36.2537481937       23.1561673526      -35.7901094323  TIP3      6018            0.0000000000
     40375      6211  TIP3      OH2           -35.4795663301       24.4358153518      -39.6916076000  TIP3      6019            0.0000000000
     40376      6211  TIP3      H1            -34.9473834940       24.9884515478      -40.3023082123  TIP3      6019            0.0000000000
     40377      6211  TIP3      H2            -36.1937994985       25.0264917910      -39.4450597669  TIP3      6019            0.0000000000
     40378      6212  TIP3      OH2           -25.3113008226       27.9618563598      -29.5650210428  TIP3      6020            0.0000000000
     40379      6212  TIP3      H1            -24.9664400354       27.3052793466      -30.2259128780  TIP3      6020            0.0000000000
     40380      6212  TIP3      H2            -25.8156891341       27.3472193523      -28.9943965296  TIP3      6020            0.0000000000
     40381      6213  TIP3      OH2           -28.5442660513       23.9247769833      -34.8282491427  TIP3      6021            0.0000000000
     40382      6213  TIP3      H1            -29.4781063389       23.9224406659      -34.5349613659  TIP3      6021            0.0000000000
     40383      6213  TIP3      H2            -28.0654774478       23.7476349799      -34.0060415409  TIP3      6021            0.0000000000
     40384      6214  TIP3      OH2           -33.6573671453       25.4707803390      -35.9919904092  TIP3      6022            0.0000000000
     40385      6214  TIP3      H1            -34.5575174971       25.6300698892      -36.3430448467  TIP3      6022            0.0000000000
     40386      6214  TIP3      H2            -33.4446072215       24.6027955133      -36.3898170772  TIP3      6022            0.0000000000
     40387      6215  TIP3      OH2           -30.1065958152       25.5368630060      -38.3215236528  TIP3      6023            0.0000000000
     40388      6215  TIP3      H1            -29.1464736853       25.6320970910      -38.1597548119  TIP3      6023            0.0000000000
     40389      6215  TIP3      H2            -30.3292040739       26.1845003148      -39.0128172789  TIP3      6023            0.0000000000
     40390      6216  TIP3      OH2           -24.1482252207       23.1701051934      -31.5168325873  TIP3      6024            0.0000000000
     40391      6216  TIP3      H1            -24.8604148186       23.1678354023      -30.8712032472  TIP3      6024            0.0000000000
     40392      6216  TIP3      H2            -24.6086909970       22.8988773264      -32.3320326700  TIP3      6024            0.0000000000
     40393      6217  TIP3      OH2           -31.3678323907       26.6815969434      -40.7329847375  TIP3      6025            0.0000000000
     40394      6217  TIP3      H1            -31.9328709832       26.3470939955      -41.4518651760  TIP3      6025            0.0000000000
     40395      6217  TIP3      H2            -30.5561838005       26.9087768535      -41.2038397966  TIP3      6025            0.0000000000
     40396      6218  TIP3      OH2           -33.2347194733       31.2502350576      -25.6880347865  TIP3      6026            0.0000000000
     40397      6218  TIP3      H1            -32.5292360877       31.4935943957      -25.0824224418  TIP3      6026            0.0000000000
     40398      6218  TIP3      H2            -34.0120606669       31.4018498738      -25.1064967153  TIP3      6026            0.0000000000
     40399      6219  TIP3      OH2           -27.2708719381       26.6721824841      -32.9244187248  TIP3      6027            0.0000000000
     40400      6219  TIP3      H1            -26.6669862361       26.1448535697      -33.4619669774  TIP3      6027            0.0000000000
     40401      6219  TIP3      H2            -27.4045287884       26.1251616511      -32.1382358947  TIP3      6027            0.0000000000
     40402      6220  TIP3      OH2           -32.2625819941       22.8211557007      -36.4818381685  TIP3      6028            0.0000000000
     40403      6220  TIP3      H1            -32.5776230833       21.9000684388      -36.5104016561  TIP3      6028            0.0000000000
     40404      6220  TIP3      H2            -31.4667208022       22.7502147152      -37.0306633241  TIP3      6028            0.0000000000
     40405      6221  TIP3      OH2           -28.6277916843       25.0039107660      -30.5224040962  TIP3      6029            0.0000000000
     40406      6221  TIP3      H1            -29.4564877840       25.5158538286      -30.4339559456  TIP3      6029            0.0000000000
     40407      6221  TIP3      H2            -28.0948702122       25.3490664363      -29.7862491509  TIP3      6029            0.0000000000
     40408      6222  TIP3      OH2           -28.0296285966       31.2099603762      -38.7904938042  TIP3      6030            0.0000000000
     40409      6222  TIP3      H1            -28.8325241262       30.7532396441      -39.1339601244  TIP3      6030            0.0000000000
     40410      6222  TIP3      H2            -28.2670768335       31.3480259920      -37.8515882085  TIP3      6030            0.0000000000
     40411      6223  TIP3      OH2           -20.8476241790       30.4287154602      -30.0087388468  TIP3      6031            0.0000000000
     40412      6223  TIP3      H1            -20.2742290539       30.9164217384      -30.6332816811  TIP3      6031            0.0000000000
     40413      6223  TIP3      H2            -21.6849345647       30.4484951230      -30.5075339471  TIP3      6031            0.0000000000
     40414      6224  TIP3      OH2           -24.1652642300       24.0155258919      -40.6288740343  TIP3      6032            0.0000000000
     40415      6224  TIP3      H1            -25.1105631218       24.1720335766      -40.8059721159  TIP3      6032            0.0000000000
     40416      6224  TIP3      H2            -23.8682702885       24.8899187706      -40.3178489184  TIP3      6032            0.0000000000
     40417      6225  TIP3      OH2           -26.8072449960       31.5962623675      -27.5820098895  TIP3      6033            0.0000000000
     40418      6225  TIP3      H1            -27.0515560448       31.2218291587      -26.7153509215  TIP3      6033            0.0000000000
     40419      6225  TIP3      H2            -26.8743272188       32.5541653462      -27.4133603690  TIP3      6033            0.0000000000
     40420      6226  TIP3      OH2           -23.4681527785       25.9631939350      -38.9671839501  TIP3      6034            0.0000000000
     40421      6226  TIP3      H1            -22.5737375853       25.8248513017      -38.6000901996  TIP3      6034            0.0000000000
     40422      6226  TIP3      H2            -23.3766688338       26.7730345592      -39.4937068127  TIP3      6034            0.0000000000
     40423      6227  TIP3      OH2           -32.9062728796       30.6307037904      -33.0182998739  TIP3      6035            0.0000000000
     40424      6227  TIP3      H1            -32.2410985599       30.5462243519      -33.7192658108  TIP3      6035            0.0000000000
     40425      6227  TIP3      H2            -32.8595091575       29.7754925445      -32.5610925688  TIP3      6035            0.0000000000
     40426      6228  TIP3      OH2           -25.9253901891       32.6996473890      -39.7493454785  TIP3      6036            0.0000000000
     40427      6228  TIP3      H1            -26.2934799113       33.5421660734      -39.4268275017  TIP3      6036            0.0000000000
     40428      6228  TIP3      H2            -26.6699401323       32.0891795813      -39.5732034423  TIP3      6036            0.0000000000
     40429      6229  TIP3      OH2           -35.6841164485       28.8017559550      -28.0172170523  TIP3      6037            0.0000000000
     40430      6229  TIP3      H1            -35.6021053410       28.5831264862      -27.0752471006  TIP3      6037            0.0000000000
     40431      6229  TIP3      H2            -36.5405905748       28.4056508247      -28.2235677723  TIP3      6037            0.0000000000
     40432      6230  TIP3      OH2           -28.8795438884       28.5884023962      -25.6102868375  TIP3      6038            0.0000000000
     40433      6230  TIP3      H1            -29.2425671604       28.2418264142      -26.4422047401  TIP3      6038            0.0000000000
     40434      6230  TIP3      H2            -27.9786855968       28.2268228124      -25.5843332384  TIP3      6038            0.0000000000
     40435      6231  TIP3      OH2           -24.2888376178       33.8704689893      -27.6508636918  TIP3      6039            0.0000000000
     40436      6231  TIP3      H1            -25.2008774214       34.1173779527      -27.8549547331  TIP3      6039            0.0000000000
     40437      6231  TIP3      H2            -24.2824117601       34.1911854614      -26.7083217094  TIP3      6039            0.0000000000
     40438      6232  TIP3      OH2           -18.5780525233       26.0894927191      -39.2149433407  TIP3      6040            0.0000000000
     40439      6232  TIP3      H1            -19.1379920271       25.7860269769      -39.9505136373  TIP3      6040            0.0000000000
     40440      6232  TIP3      H2            -18.4961762736       27.0277654218      -39.4904311520  TIP3      6040            0.0000000000
     40441      6233  TIP3      OH2           -18.5702957199       31.9179306032      -26.4283601435  TIP3      6041            0.0000000000
     40442      6233  TIP3      H1            -19.4722150805       32.1590347625      -26.7509545177  TIP3      6041            0.0000000000
     40443      6233  TIP3      H2            -18.0384776012       31.9148360077      -27.2495771038  TIP3      6041            0.0000000000
     40444      6234  TIP3      OH2           -20.2258092313       34.7749008514      -38.7312468344  TIP3      6042            0.0000000000
     40445      6234  TIP3      H1            -20.6784872675       33.9701417316      -38.5208802392  TIP3      6042            0.0000000000
     40446      6234  TIP3      H2            -20.0017168395       34.7379340301      -39.6741365344  TIP3      6042            0.0000000000
     40447      6235  TIP3      OH2           -23.0830310920       29.7327243761      -31.7003447469  TIP3      6043            0.0000000000
     40448      6235  TIP3      H1            -24.0173052516       29.5260542041      -31.8686542712  TIP3      6043            0.0000000000
     40449      6235  TIP3      H2            -22.6378348973       28.9986845875      -32.1714650287  TIP3      6043            0.0000000000
     40450      6236  TIP3      OH2           -30.5152003199       34.0421688921      -35.6762394187  TIP3      6044            0.0000000000
     40451      6236  TIP3      H1            -30.0688249333       34.8699952506      -35.8518924811  TIP3      6044            0.0000000000
     40452      6236  TIP3      H2            -31.4184408644       34.2623979326      -35.9341970639  TIP3      6044            0.0000000000
     40453      6237  TIP3      OH2           -34.9222091519       28.8761670702      -41.0254325920  TIP3      6045            0.0000000000
     40454      6237  TIP3      H1            -34.2341947396       29.5075377649      -40.7231645226  TIP3      6045            0.0000000000
     40455      6237  TIP3      H2            -35.7368076050       29.2617719209      -40.7141304026  TIP3      6045            0.0000000000
     40456      6238  TIP3      OH2           -29.1142588029       31.7359196359      -36.1043893870  TIP3      6046            0.0000000000
     40457      6238  TIP3      H1            -29.4379747512       32.6552122739      -36.0345958404  TIP3      6046            0.0000000000
     40458      6238  TIP3      H2            -29.8498921423       31.2626417080      -35.6675204058  TIP3      6046            0.0000000000
     40459      6239  TIP3      OH2           -28.5126968500       35.6711143950      -29.9306805063  TIP3      6047            0.0000000000
     40460      6239  TIP3      H1            -28.2777279355       36.6081724420      -30.0151649917  TIP3      6047            0.0000000000
     40461      6239  TIP3      H2            -28.0799374543       35.4763759337      -29.0776537634  TIP3      6047            0.0000000000
     40462      6240  TIP3      OH2           -30.7860184759      -36.7893905982      -36.9152259289  TIP3      6048            0.0000000000
     40463      6240  TIP3      H1            -31.6227790505      -36.6552978993      -36.4674281415  TIP3      6048            0.0000000000
     40464      6240  TIP3      H2            -30.2477835698      -36.1311490799      -36.4057062068  TIP3      6048            0.0000000000
     40465      6241  TIP3      OH2           -25.1374985452       31.9127915706      -30.0892562680  TIP3      6049            0.0000000000
     40466      6241  TIP3      H1            -25.5405699950       31.7802783065      -29.2239828380  TIP3      6049            0.0000000000
     40467      6241  TIP3      H2            -24.5147564764       31.1914090497      -30.2873945626  TIP3      6049            0.0000000000
     40468      6242  TIP3      OH2           -22.8674061201       32.8829342811      -40.9588198982  TIP3      6050            0.0000000000
     40469      6242  TIP3      H1            -22.5633661412       32.5087590597      -40.1112223775  TIP3      6050            0.0000000000
     40470      6242  TIP3      H2            -23.8276366346       32.7953836964      -40.8767981111  TIP3      6050            0.0000000000
     40471      6243  TIP3      OH2           -22.3794755486       36.4147622138      -27.6005469956  TIP3      6051            0.0000000000
     40472      6243  TIP3      H1            -23.0939061870       35.9658569875      -28.0692937488  TIP3      6051            0.0000000000
     40473      6243  TIP3      H2            -22.2195991389       37.1869191239      -28.1737809094  TIP3      6051            0.0000000000
     40474      6244  TIP3      OH2           -34.2972709882       23.7222110302      -28.2878754971  TIP3      6052            0.0000000000
     40475      6244  TIP3      H1            -35.1764570331       24.1148520793      -28.1927558828  TIP3      6052            0.0000000000
     40476      6244  TIP3      H2            -34.3918667246       22.9118610486      -27.7528046898  TIP3      6052            0.0000000000
     40477      6245  TIP3      OH2           -22.0451726224       31.5983473007      -38.7378655835  TIP3      6053            0.0000000000
     40478      6245  TIP3      H1            -22.2895799037       30.8035515659      -38.2183446830  TIP3      6053            0.0000000000
     40479      6245  TIP3      H2            -21.0991421791       31.6813729983      -38.5365725053  TIP3      6053            0.0000000000
     40480      6246  TIP3      OH2           -34.5728960259       35.5307173931      -29.8275151336  TIP3      6054            0.0000000000
     40481      6246  TIP3      H1            -34.3788153281       34.5900681481      -29.7719426697  TIP3      6054            0.0000000000
     40482      6246  TIP3      H2            -34.5056105138       35.8357855740      -28.9174117391  TIP3      6054            0.0000000000
     40483      6247  TIP3      OH2           -29.9110848033       33.6257202640      -40.0775616152  TIP3      6055            0.0000000000
     40484      6247  TIP3      H1            -29.6594979552       33.0706617857      -39.3281262179  TIP3      6055            0.0000000000
     40485      6247  TIP3      H2            -29.8233051009       34.5283080909      -39.7307424659  TIP3      6055            0.0000000000
     40486      6248  TIP3      OH2           -33.4577587832       30.8387545732      -39.6313293727  TIP3      6056            0.0000000000
     40487      6248  TIP3      H1            -34.0764727749       31.2465444468      -38.9902269194  TIP3      6056            0.0000000000
     40488      6248  TIP3      H2            -32.8827370567       31.5979489264      -39.8506454055  TIP3      6056            0.0000000000
     40489      6249  TIP3      OH2           -24.8254138616       23.1111949464      -38.1417367488  TIP3      6057            0.0000000000
     40490      6249  TIP3      H1            -24.5730395709       23.5620617579      -38.9729838696  TIP3      6057            0.0000000000
     40491      6249  TIP3      H2            -24.2296849185       23.5445630357      -37.5226414807  TIP3      6057            0.0000000000
     40492      6250  TIP3      OH2           -27.1166447117       35.2670268439      -39.3140704552  TIP3      6058            0.0000000000
     40493      6250  TIP3      H1            -27.9702482409       35.7284751922      -39.2687713658  TIP3      6058            0.0000000000
     40494      6250  TIP3      H2            -26.6018798933       35.7644349210      -39.9762649400  TIP3      6058            0.0000000000
     40495      6251  TIP3      OH2           -27.5899617577       24.8426634901      -37.3443345233  TIP3      6059            0.0000000000
     40496      6251  TIP3      H1            -26.8081638992       25.4278321457      -37.3168126665  TIP3      6059            0.0000000000
     40497      6251  TIP3      H2            -27.8502452085       24.7318767576      -36.4121122875  TIP3      6059            0.0000000000
     40498      6252  TIP3      OH2           -27.0150624225       25.8928775558      -28.1981205182  TIP3      6060            0.0000000000
     40499      6252  TIP3      H1            -26.9682914777       26.4076610237      -27.3765564660  TIP3      6060            0.0000000000
     40500      6252  TIP3      H2            -26.3903041525       25.1754126551      -28.0059751288  TIP3      6060            0.0000000000
     40501      6253  TIP3      OH2           -26.7343118637       21.9044165286      -36.4670789009  TIP3      6061            0.0000000000
     40502      6253  TIP3      H1            -27.0557876437       22.5491780723      -35.8141143090  TIP3      6061            0.0000000000
     40503      6253  TIP3      H2            -26.0369621648       22.4531231236      -36.9069501629  TIP3      6061            0.0000000000
     40504      6254  TIP3      OH2           -29.6257315497      -37.0472249649      -39.3708244405  TIP3      6062            0.0000000000
     40505      6254  TIP3      H1            -29.6404071029      -36.1920583267      -39.7966446527  TIP3      6062            0.0000000000
     40506      6254  TIP3      H2            -30.0023760732      -36.8278166396      -38.4868213208  TIP3      6062            0.0000000000
     40507      6255  TIP3      OH2           -31.0541415600       23.0000143626      -39.6890417033  TIP3      6063            0.0000000000
     40508      6255  TIP3      H1            -31.1286280946       23.9194265699      -39.3633977128  TIP3      6063            0.0000000000
     40509      6255  TIP3      H2            -30.1385379024       22.7809476540      -39.4287776037  TIP3      6063            0.0000000000
     40510      6256  TIP3      OH2           -22.2306293364       27.5323703822      -33.3116487417  TIP3      6064            0.0000000000
     40511      6256  TIP3      H1            -23.0580794227       27.0817648159      -33.5556131140  TIP3      6064            0.0000000000
     40512      6256  TIP3      H2            -21.7463521537       26.8540691987      -32.7853417044  TIP3      6064            0.0000000000
     40513      6257  TIP3      OH2           -32.8176845164       33.4134293117      -40.6710466170  TIP3      6065            0.0000000000
     40514      6257  TIP3      H1            -32.1969090352       34.0997470962      -40.4074494877  TIP3      6065            0.0000000000
     40515      6257  TIP3      H2            -32.3137507733       33.0129397921      -41.4038142958  TIP3      6065            0.0000000000
     40516      6258  TIP3      OH2           -34.3737322037       26.1288826985      -41.5513223105  TIP3      6066            0.0000000000
     40517      6258  TIP3      H1            -34.4333587953       27.0793917897      -41.3569434651  TIP3      6066            0.0000000000
     40518      6258  TIP3      H2            -35.2730896880       25.9205819462      -41.8106706293  TIP3      6066            0.0000000000
     40519      6259  TIP3      OH2           -33.7031055270       20.9206526455      -32.8322071882  TIP3      6067            0.0000000000
     40520      6259  TIP3      H1            -33.8712700418       20.9174832055      -33.8032093431  TIP3      6067            0.0000000000
     40521      6259  TIP3      H2            -34.0973416272       20.0589251072      -32.5669067102  TIP3      6067            0.0000000000
     40522      6260  TIP3      OH2           -34.6220051094       34.7970924218      -36.5672634248  TIP3      6068            0.0000000000
     40523      6260  TIP3      H1            -35.5052243272       35.1925895644      -36.6748559798  TIP3      6068            0.0000000000
     40524      6260  TIP3      H2            -34.2419359787       35.2952533371      -37.3124847556  TIP3      6068            0.0000000000
     40525      6261  TIP3      OH2           -30.9220278016       35.6704692990      -23.8257040528  TIP3      6069            0.0000000000
     40526      6261  TIP3      H1            -30.0712122217       35.9512201314      -23.4120610941  TIP3      6069            0.0000000000
     40527      6261  TIP3      H2            -30.7443520980       35.9794884498      -24.7347718592  TIP3      6069            0.0000000000
     40528      6262  TIP3      OH2           -26.4018099070       36.1650858600      -41.7586101250  TIP3      6070            0.0000000000
     40529      6262  TIP3      H1            -27.1836720230       35.5767983732      -41.8505031617  TIP3      6070            0.0000000000
     40530      6262  TIP3      H2            -25.8575251173       35.6304120588      -42.3628556383  TIP3      6070            0.0000000000
     40531      6263  TIP3      OH2           -24.2398536673       34.5875172128      -25.1531983055  TIP3      6071            0.0000000000
     40532      6263  TIP3      H1            -24.7035384185       33.8557698676      -24.6988807656  TIP3      6071            0.0000000000
     40533      6263  TIP3      H2            -23.5773491826       34.8489838066      -24.5028942780  TIP3      6071            0.0000000000
     40534      6264  TIP3      OH2           -22.1259965073       35.6761271991      -42.1882469256  TIP3      6072            0.0000000000
     40535      6264  TIP3      H1            -21.9001779317       34.8756189662      -41.6804981823  TIP3      6072            0.0000000000
     40536      6264  TIP3      H2            -21.3137948111       35.8229730423      -42.7087611266  TIP3      6072            0.0000000000
     40537      6265  TIP3      OH2           -35.4585729176       31.2501790326      -24.4353104346  TIP3      6073            0.0000000000
     40538      6265  TIP3      H1            -35.4468682744       30.3143794019      -24.6921861222  TIP3      6073            0.0000000000
     40539      6265  TIP3      H2            -36.3150746583       31.5596092718      -24.8073066717  TIP3      6073            0.0000000000
     40540      6266  TIP3      OH2           -31.1778256928       31.6531240532      -42.2100658783  TIP3      6074            0.0000000000
     40541      6266  TIP3      H1            -31.1052086115       30.8206826699      -41.7456118563  TIP3      6074            0.0000000000
     40542      6266  TIP3      H2            -30.6318297032       31.4436056778      -42.9905983111  TIP3      6074            0.0000000000
     40543      6267  TIP3      OH2           -28.7476754561       31.2459717311      -25.0734717917  TIP3      6075            0.0000000000
     40544      6267  TIP3      H1            -29.2720949090       31.5659907913      -25.8281344122  TIP3      6075            0.0000000000
     40545      6267  TIP3      H2            -28.8673781874       30.2720610537      -25.0829314377  TIP3      6075            0.0000000000
     40546      6268  TIP3      OH2           -23.2657004266       31.1427687594      -27.6256137187  TIP3      6076            0.0000000000
     40547      6268  TIP3      H1            -22.3943069543       31.6299669252      -27.6868152862  TIP3      6076            0.0000000000
     40548      6268  TIP3      H2            -23.8140065128       31.9377223579      -27.5378398094  TIP3      6076            0.0000000000
     40549      6269  TIP3      OH2           -34.7780191642       28.4413185484      -25.0438473517  TIP3      6077            0.0000000000
     40550      6269  TIP3      H1            -34.2414812129       27.6289764391      -25.1176235150  TIP3      6077            0.0000000000
     40551      6269  TIP3      H2            -34.8564735008       28.4991210435      -24.0883685267  TIP3      6077            0.0000000000
     40552      6270  TIP3      OH2           -30.0408540099       29.6514270839      -39.9432605739  TIP3      6078            0.0000000000
     40553      6270  TIP3      H1            -30.5536342894       29.1123299708      -39.3190220522  TIP3      6078            0.0000000000
     40554      6270  TIP3      H2            -29.7373965025       28.9589237848      -40.5799021100  TIP3      6078            0.0000000000
     40555      6271  TIP3      OH2           -30.8129685068       27.4434551053      -27.6551322949  TIP3      6079            0.0000000000
     40556      6271  TIP3      H1            -31.4096997638       28.1586648163      -27.3667540201  TIP3      6079            0.0000000000
     40557      6271  TIP3      H2            -30.4283441757       27.8164744966      -28.4645284146  TIP3      6079            0.0000000000
     40558      6272  TIP3      OH2           -28.9843546994       27.8782423085      -41.7493209641  TIP3      6080            0.0000000000
     40559      6272  TIP3      H1            -29.0805656632       27.6651876121      -42.6861053231  TIP3      6080            0.0000000000
     40560      6272  TIP3      H2            -28.0044223531       27.9363415848      -41.6341634691  TIP3      6080            0.0000000000
     40561      6273  TIP3      OH2           -25.7186764133       29.9289616358      -24.3883988049  TIP3      6081            0.0000000000
     40562      6273  TIP3      H1            -24.7592997381       30.0111480992      -24.3989620306  TIP3      6081            0.0000000000
     40563      6273  TIP3      H2            -25.9030833458       29.2308921523      -23.7367868010  TIP3      6081            0.0000000000
     40564      6274  TIP3      OH2           -19.7989316692       30.3065898820       42.7550777196  TIP3      6082            0.0000000000
     40565      6274  TIP3      H1            -19.8979000432       29.8086118926       41.9266770925  TIP3      6082            0.0000000000
     40566      6274  TIP3      H2            -19.5739173679       31.2047859873       42.4892421051  TIP3      6082            0.0000000000
     40567      6275  TIP3      OH2           -30.4329445485       24.8093883047      -26.6021720881  TIP3      6083            0.0000000000
     40568      6275  TIP3      H1            -30.2457833226       24.1033353803      -27.2443088329  TIP3      6083            0.0000000000
     40569      6275  TIP3      H2            -30.4545917507       25.6228979951      -27.1347376368  TIP3      6083            0.0000000000
     40570      6276  TIP3      OH2           -29.9836022356       23.1808411241      -29.0582058598  TIP3      6084            0.0000000000
     40571      6276  TIP3      H1            -29.4792302574       23.6559324039      -29.7574188591  TIP3      6084            0.0000000000
     40572      6276  TIP3      H2            -30.8847447018       23.1079789528      -29.4548570029  TIP3      6084            0.0000000000
     40573      6277  TIP3      OH2           -28.3733170085       28.7266033146      -28.7611451433  TIP3      6085            0.0000000000
     40574      6277  TIP3      H1            -27.7180436179       28.4900922896      -29.4193241226  TIP3      6085            0.0000000000
     40575      6277  TIP3      H2            -28.8430671830       29.4938135284      -29.1446578839  TIP3      6085            0.0000000000
     40576      6278  TIP3      OH2           -22.7480319386       29.2215291620      -25.7045690440  TIP3      6086            0.0000000000
     40577      6278  TIP3      H1            -22.9009895306       29.9906788060      -26.2713240255  TIP3      6086            0.0000000000
     40578      6278  TIP3      H2            -21.7732977714       29.1679261847      -25.8326215962  TIP3      6086            0.0000000000
     40579      6279  TIP3      OH2           -31.9693247510       26.0848333233      -24.7142237233  TIP3      6087            0.0000000000
     40580      6279  TIP3      H1            -32.7146969182       25.4612873509      -24.8523670712  TIP3      6087            0.0000000000
     40581      6279  TIP3      H2            -31.2846676980       25.6960553790      -25.3006145673  TIP3      6087            0.0000000000
     40582      6280  TIP3      OH2           -29.1828293471       20.6388483634      -28.6391341649  TIP3      6088            0.0000000000
     40583      6280  TIP3      H1            -29.3645521632       21.6020234904      -28.7334225347  TIP3      6088            0.0000000000
     40584      6280  TIP3      H2            -29.9303556694       20.2679699402      -29.1442629992  TIP3      6088            0.0000000000
     40585      6281  TIP3      OH2           -33.7709299710       23.9819785053      -24.9072787719  TIP3      6089            0.0000000000
     40586      6281  TIP3      H1            -33.5838552960       23.2475213229      -25.5178877371  TIP3      6089            0.0000000000
     40587      6281  TIP3      H2            -33.9025710492       23.5319314583      -24.0461622749  TIP3      6089            0.0000000000
     40588      6282  TIP3      OH2           -28.9811942420       20.0149056275      -25.9688208785  TIP3      6090            0.0000000000
     40589      6282  TIP3      H1            -28.3033117260       19.3118481328      -25.9801340173  TIP3      6090            0.0000000000
     40590      6282  TIP3      H2            -29.1013336171       20.1592653127      -26.9238298453  TIP3      6090            0.0000000000
     40591      6283  TIP3      OH2           -28.6073818594       21.6400931929      -23.8838496288  TIP3      6091            0.0000000000
     40592      6283  TIP3      H1            -28.7962403993       21.1345187286      -24.7055034889  TIP3      6091            0.0000000000
     40593      6283  TIP3      H2            -29.2076693229       22.4095417784      -23.9313275121  TIP3      6091            0.0000000000
     40594      6284  TIP3      OH2           -35.5454001488       33.0734572177      -41.1467556598  TIP3      6092            0.0000000000
     40595      6284  TIP3      H1            -34.5944763698       33.2348341572      -40.9756738651  TIP3      6092            0.0000000000
     40596      6284  TIP3      H2            -35.5344379020       32.5914948917      -41.9742699542  TIP3      6092            0.0000000000
     40597      6285  TIP3      OH2           -35.9539159261       36.5995394720      -34.4231221844  TIP3      6093            0.0000000000
     40598      6285  TIP3      H1            -36.3771335925       35.7508664899      -34.1948010014  TIP3      6093            0.0000000000
     40599      6285  TIP3      H2            -35.7975849810       36.9323944617      -33.5285607730  TIP3      6093            0.0000000000
     40600      6286  TIP3      OH2           -20.4488890279       32.7214491840      -23.7425550586  TIP3      6094            0.0000000000
     40601      6286  TIP3      H1            -21.3587656736       32.7325688231      -23.4134675292  TIP3      6094            0.0000000000
     40602      6286  TIP3      H2            -20.0601328335       33.5549302692      -23.3817709061  TIP3      6094            0.0000000000
     40603      6287  TIP3      OH2           -19.0983190456       31.0355620428      -38.3998909081  TIP3      6095            0.0000000000
     40604      6287  TIP3      H1            -18.2770288815       31.4975212179      -38.1660093756  TIP3      6095            0.0000000000
     40605      6287  TIP3      H2            -19.1341029068       30.3575978533      -37.6926500953  TIP3      6095            0.0000000000
     40606      6288  TIP3      OH2           -18.7621516636       29.1632258939      -36.4907630415  TIP3      6096            0.0000000000
     40607      6288  TIP3      H1            -19.5124085389       28.6501658119      -36.1125928830  TIP3      6096            0.0000000000
     40608      6288  TIP3      H2            -18.1657667890       29.2870098196      -35.7243262462  TIP3      6096            0.0000000000
     40609      6289  TIP3      OH2           -19.0006075593       31.8549586835      -31.4795499030  TIP3      6097            0.0000000000
     40610      6289  TIP3      H1            -18.1958012515       31.4801842978      -31.8806092405  TIP3      6097            0.0000000000
     40611      6289  TIP3      H2            -18.8659125792       32.8038368477      -31.6610296805  TIP3      6097            0.0000000000
     40612      6290  TIP3      OH2           -20.4789409609       34.7829423953      -29.2041846141  TIP3      6098            0.0000000000
     40613      6290  TIP3      H1            -21.1474429159       35.1351338398      -28.6082005181  TIP3      6098            0.0000000000
     40614      6290  TIP3      H2            -21.0098213563       34.3588437029      -29.9159493360  TIP3      6098            0.0000000000
     40615      6291  TIP3      OH2           -18.4668272299       28.9750390280      -40.1265802807  TIP3      6099            0.0000000000
     40616      6291  TIP3      H1            -19.0627884712       29.3465019680      -40.8012485645  TIP3      6099            0.0000000000
     40617      6291  TIP3      H2            -18.5376431321       29.6740699614      -39.4440468339  TIP3      6099            0.0000000000
     40618      6292  TIP3      OH2           -20.4848436572       26.2369549283      -41.4851023800  TIP3      6100            0.0000000000
     40619      6292  TIP3      H1            -20.0199706546       26.8234247127      -42.1059500270  TIP3      6100            0.0000000000
     40620      6292  TIP3      H2            -20.2939579295       25.3916614947      -41.9374521450  TIP3      6100            0.0000000000
     40621      6293  TIP3      OH2           -20.9390097734       27.6295977437      -35.9131247482  TIP3      6101            0.0000000000
     40622      6293  TIP3      H1            -21.0887105519       26.6748679529      -35.9657264125  TIP3      6101            0.0000000000
     40623      6293  TIP3      H2            -21.2600929089       27.8381255798      -35.0192723201  TIP3      6101            0.0000000000
     40624      6294  TIP3      OH2           -35.9588318371       29.6980282650      -31.8828260193  TIP3      6102            0.0000000000
     40625      6294  TIP3      H1            -35.7628336612       29.6571954521      -32.8479669332  TIP3      6102            0.0000000000
     40626      6294  TIP3      H2            -35.0667519844       29.5652871181      -31.4982871984  TIP3      6102            0.0000000000
     40627      6295  TIP3      OH2           -20.1114902688       29.5765515380      -26.2430541870  TIP3      6103            0.0000000000
     40628      6295  TIP3      H1            -19.4699041520       28.8508757798      -26.1183886216  TIP3      6103            0.0000000000
     40629      6295  TIP3      H2            -19.5194747988       30.3629127864      -26.2142509478  TIP3      6103            0.0000000000
     40630      6296  TIP3      OH2           -18.6471068522       27.4556117508      -25.6155099734  TIP3      6104            0.0000000000
     40631      6296  TIP3      H1            -19.4874721023       27.0483351169      -25.8229479380  TIP3      6104            0.0000000000
     40632      6296  TIP3      H2            -18.0151447488       26.7085077533      -25.6471704932  TIP3      6104            0.0000000000
     40633      6297  TIP3      OH2           -20.8301032506       23.6180456879      -42.4895126055  TIP3      6105            0.0000000000
     40634      6297  TIP3      H1            -20.2592844919       23.2060115367      -41.8101227248  TIP3      6105            0.0000000000
     40635      6297  TIP3      H2            -21.7254198159       23.3037878856      -42.2759904679  TIP3      6105            0.0000000000
     40636      6298  TIP3      OH2           -21.2730274140       25.2149895135      -37.4423728735  TIP3      6106            0.0000000000
     40637      6298  TIP3      H1            -20.9684827123       24.2843675442      -37.3355820942  TIP3      6106            0.0000000000
     40638      6298  TIP3      H2            -20.4950711092       25.6153826935      -37.8523693576  TIP3      6106            0.0000000000
     40639      6299  TIP3      OH2           -20.6296953441       25.7568636849      -32.0317819355  TIP3      6107            0.0000000000
     40640      6299  TIP3      H1            -19.6700801126       25.9888295604      -32.0404790827  TIP3      6107            0.0000000000
     40641      6299  TIP3      H2            -20.8133765406       25.8952437881      -31.0875647907  TIP3      6107            0.0000000000
     40642      6300  TIP3      OH2           -20.5552998527       26.4832159231      -29.2537541005  TIP3      6108            0.0000000000
     40643      6300  TIP3      H1            -21.4217336106       26.7683340938      -28.8895087762  TIP3      6108            0.0000000000
     40644      6300  TIP3      H2            -20.1344111152       27.3477206571      -29.4711832358  TIP3      6108            0.0000000000
     40645      6301  TIP3      OH2           -36.0762206395       24.9244531812      -25.7488170335  TIP3      6109            0.0000000000
     40646      6301  TIP3      H1            -35.2028560517       24.6919281167      -25.3997935584  TIP3      6109            0.0000000000
     40647      6301  TIP3      H2            -36.6774414318       24.2308652965      -25.3930354993  TIP3      6109            0.0000000000
     40648      6302  TIP3      OH2           -20.5971947115       22.4889099475      -37.4207512639  TIP3      6110            0.0000000000
     40649      6302  TIP3      H1            -20.3847929971       22.0625500113      -36.5609261020  TIP3      6110            0.0000000000
     40650      6302  TIP3      H2            -21.2045989462       21.8556183634      -37.8576582828  TIP3      6110            0.0000000000
     40651      6303  TIP3      OH2           -35.1731452090       23.2505819565      -32.8183605796  TIP3      6111            0.0000000000
     40652      6303  TIP3      H1            -34.6274246645       22.4653925007      -32.6001877940  TIP3      6111            0.0000000000
     40653      6303  TIP3      H2            -34.6115904310       23.9634694791      -32.4640434957  TIP3      6111            0.0000000000
     40654      6304  TIP3      OH2           -36.1110869230       26.8259033090      -31.4132933810  TIP3      6112            0.0000000000
     40655      6304  TIP3      H1            -36.0328621412       26.4746407617      -32.3180612957  TIP3      6112            0.0000000000
     40656      6304  TIP3      H2            -36.3340536158       27.7284869821      -31.6510894036  TIP3      6112            0.0000000000
     40657      6305  TIP3      OH2           -18.7661238751       22.6782473721      -25.5992963223  TIP3      6113            0.0000000000
     40658      6305  TIP3      H1            -19.7204331120       22.8171174745      -25.5953445307  TIP3      6113            0.0000000000
     40659      6305  TIP3      H2            -18.6934784256       22.0567211178      -26.3417380980  TIP3      6113            0.0000000000
     40660      6306  TIP3      OH2           -18.7871936404       22.5626403353      -40.8545902006  TIP3      6114            0.0000000000
     40661      6306  TIP3      H1            -18.3582615762       21.8487753608      -41.3546788353  TIP3      6114            0.0000000000
     40662      6306  TIP3      H2            -18.0596612623       23.2084928061      -40.8346172633  TIP3      6114            0.0000000000
     40663      6307  TIP3      OH2            37.3625892470       22.5685662466      -38.0023790712  TIP3      6115            0.0000000000
     40664      6307  TIP3      H1             36.4140006338       22.7650373608      -37.9443871519  TIP3      6115            0.0000000000
     40665      6307  TIP3      H2             37.6538048122       23.2137240149      -38.6815326658  TIP3      6115            0.0000000000
     40666      6308  TIP3      OH2            37.0760481088       21.1830458757      -29.3307082040  TIP3      6116            0.0000000000
     40667      6308  TIP3      H1             36.3327542862       20.9797315267      -28.7477155327  TIP3      6116            0.0000000000
     40668      6308  TIP3      H2             36.5666453287       21.7498969246      -29.9372251979  TIP3      6116            0.0000000000
     40669      6309  TIP3      OH2           -34.2879497096       34.4871829722      -25.2864903450  TIP3      6117            0.0000000000
     40670      6309  TIP3      H1            -35.1509064775       34.6239336414      -25.7045305672  TIP3      6117            0.0000000000
     40671      6309  TIP3      H2            -34.5412501284       34.3448845882      -24.3681769437  TIP3      6117            0.0000000000
     40672      6310  TIP3      OH2           -31.3159817710       35.4421653931      -28.9462760783  TIP3      6118            0.0000000000
     40673      6310  TIP3      H1            -31.8028831530       36.1858771717      -29.3293851489  TIP3      6118            0.0000000000
     40674      6310  TIP3      H2            -30.4525145592       35.4625835271      -29.3774384194  TIP3      6118            0.0000000000
     40675      6311  TIP3      OH2           -19.7794838814       20.7427130810      -27.6936650337  TIP3      6119            0.0000000000
     40676      6311  TIP3      H1            -20.5959379860       21.0110027822      -28.1382673903  TIP3      6119            0.0000000000
     40677      6311  TIP3      H2            -19.5751548859       19.9223328924      -28.2007625496  TIP3      6119            0.0000000000
     40678      6312  TIP3      OH2           -32.4468525796       35.8817091531      -33.6304584344  TIP3      6120            0.0000000000
     40679      6312  TIP3      H1            -32.6347715603       35.0252259221      -33.2147072730  TIP3      6120            0.0000000000
     40680      6312  TIP3      H2            -31.6968945697       36.1368263239      -33.0342048651  TIP3      6120            0.0000000000
     40681      6313  TIP3      OH2           -30.2786699548       35.9405868468      -32.3374808880  TIP3      6121            0.0000000000
     40682      6313  TIP3      H1            -29.6578474506       35.3354401996      -32.7694739747  TIP3      6121            0.0000000000
     40683      6313  TIP3      H2            -29.8196574877       36.3385686175      -31.5891931539  TIP3      6121            0.0000000000
     40684      6314  TIP3      OH2           -26.3617739340       22.1623132909      -33.4050307616  TIP3      6122            0.0000000000
     40685      6314  TIP3      H1            -27.0377251289       21.5214651277      -33.1231168682  TIP3      6122            0.0000000000
     40686      6314  TIP3      H2            -25.8110660901       21.6259365266      -33.9883670674  TIP3      6122            0.0000000000
     40687      6315  TIP3      OH2           -21.2259653852       20.1999372998      -33.3438478966  TIP3      6123            0.0000000000
     40688      6315  TIP3      H1            -20.6150693566       20.7953206968      -33.8498895703  TIP3      6123            0.0000000000
     40689      6315  TIP3      H2            -22.1089926810       20.5629428496      -33.5706025715  TIP3      6123            0.0000000000
     40690      6316  TIP3      OH2           -19.5700298852       21.4646278626      -35.0632040562  TIP3      6124            0.0000000000
     40691      6316  TIP3      H1            -18.8836651878       20.8806604061      -35.4715123473  TIP3      6124            0.0000000000
     40692      6316  TIP3      H2            -19.0512869381       22.2947060746      -34.9573238166  TIP3      6124            0.0000000000
     40693      6317  TIP3      OH2           -34.0129252526       20.7613621412      -35.5359024226  TIP3      6125            0.0000000000
     40694      6317  TIP3      H1            -34.7717120030       20.5790589243      -36.1299473622  TIP3      6125            0.0000000000
     40695      6317  TIP3      H2            -33.5072267856       19.9336247230      -35.6463326870  TIP3      6125            0.0000000000
     40696      6318  TIP3      OH2           -34.7725229899       20.6750142327      -39.6458773475  TIP3      6126            0.0000000000
     40697      6318  TIP3      H1            -34.6386848484       21.2116078496      -40.4444288740  TIP3      6126            0.0000000000
     40698      6318  TIP3      H2            -35.6252464283       20.9774846539      -39.2983305249  TIP3      6126            0.0000000000
     40699      6319  TIP3      OH2           -29.5261121300       20.7098509701      -35.7707226713  TIP3      6127            0.0000000000
     40700      6319  TIP3      H1            -28.6258629014       21.0671916982      -35.8520364683  TIP3      6127            0.0000000000
     40701      6319  TIP3      H2            -29.5516932211       20.4911150076      -34.8401722906  TIP3      6127            0.0000000000
     40702      6320  TIP3      OH2           -23.8087728824       20.7379395602      -34.1390082960  TIP3      6128            0.0000000000
     40703      6320  TIP3      H1            -23.8577556153       20.8494069772      -35.0973702639  TIP3      6128            0.0000000000
     40704      6320  TIP3      H2            -24.1904513842       19.8339747220      -34.0150713497  TIP3      6128            0.0000000000
     40705      6321  TIP3      OH2           -22.5401628106       20.7481969533      -38.4966662409  TIP3      6129            0.0000000000
     40706      6321  TIP3      H1            -23.2842894376       21.3504152975      -38.6434989808  TIP3      6129            0.0000000000
     40707      6321  TIP3      H2            -22.9808980729       19.8980837099      -38.2575371307  TIP3      6129            0.0000000000
     40708      6322  TIP3      OH2           -35.3318060841      -37.0583975852      -38.4096793115  TIP3      6130            0.0000000000
     40709      6322  TIP3      H1            -35.8161292374      -37.1475325779      -39.2653080659  TIP3      6130            0.0000000000
     40710      6322  TIP3      H2            -35.1550240238      -36.1270868179      -38.4338098671  TIP3      6130            0.0000000000
     40711      6323  TIP3      OH2           -33.4030971327       22.4810847071      -41.3608450024  TIP3      6131            0.0000000000
     40712      6323  TIP3      H1            -32.8749543781       21.8354314466      -41.8418246341  TIP3      6131            0.0000000000
     40713      6323  TIP3      H2            -32.7744003904       22.7958133786      -40.6990632811  TIP3      6131            0.0000000000
     40714      6324  TIP3      OH2           -28.3739203313       22.7264459129      -38.9167202247  TIP3      6132            0.0000000000
     40715      6324  TIP3      H1            -28.1023328797       22.1512865716      -38.1832867418  TIP3      6132            0.0000000000
     40716      6324  TIP3      H2            -28.2936814174       23.5935525656      -38.4561170389  TIP3      6132            0.0000000000
     40717      6325  TIP3      OH2           -34.1396635978       21.3755250727      -26.1090227895  TIP3      6133            0.0000000000
     40718      6325  TIP3      H1            -34.5072404947       20.5473875539      -25.7519470218  TIP3      6133            0.0000000000
     40719      6325  TIP3      H2            -33.2403486084       21.2947384290      -25.7203037103  TIP3      6133            0.0000000000
     40720      6326  TIP3      OH2           -32.1212611573       20.6759921693      -24.4663491464  TIP3      6134            0.0000000000
     40721      6326  TIP3      H1            -31.2229300873       20.3596524032      -24.6848011836  TIP3      6134            0.0000000000
     40722      6326  TIP3      H2            -32.4586125661       19.8763452956      -24.0409738738  TIP3      6134            0.0000000000
     40723      6327  TIP3      OH2           -20.6070464896       35.9853674111      -25.5088613840  TIP3      6135            0.0000000000
     40724      6327  TIP3      H1            -21.2877817810       35.8938356405      -26.2068602034  TIP3      6135            0.0000000000
     40725      6327  TIP3      H2            -20.4772304003       36.9480213294      -25.5046620997  TIP3      6135            0.0000000000
     40726      6328  TIP3      OH2            -6.0559074935       29.9079593462      -35.7045109976  TIP3      6136            0.0000000000
     40727      6328  TIP3      H1             -6.0650271970       30.8923685968      -35.7307392714  TIP3      6136            0.0000000000
     40728      6328  TIP3      H2             -6.7832610635       29.6863173776      -36.3074815918  TIP3      6136            0.0000000000
     40729      6329  TIP3      OH2            -7.1935233597       29.1764358413      -32.2046923174  TIP3      6137            0.0000000000
     40730      6329  TIP3      H1             -7.2052109293       28.5299805629      -31.4842122953  TIP3      6137            0.0000000000
     40731      6329  TIP3      H2             -7.5461660149       28.6650678201      -32.9519007550  TIP3      6137            0.0000000000
     40732      6330  TIP3      OH2           -14.8471210030       28.8566190761      -30.6454404514  TIP3      6138            0.0000000000
     40733      6330  TIP3      H1            -14.7575158825       28.1641646802      -29.9609733528  TIP3      6138            0.0000000000
     40734      6330  TIP3      H2            -14.0908810603       29.4248774018      -30.4277600944  TIP3      6138            0.0000000000
     40735      6331  TIP3      OH2            -3.5095670743       32.1107523833      -33.9052740575  TIP3      6139            0.0000000000
     40736      6331  TIP3      H1             -3.9355657839       31.4042766199      -33.4169066484  TIP3      6139            0.0000000000
     40737      6331  TIP3      H2             -3.4793766541       32.8306171610      -33.2500898525  TIP3      6139            0.0000000000
     40738      6332  TIP3      OH2           -13.8711597522       33.3051487230      -32.1302749049  TIP3      6140            0.0000000000
     40739      6332  TIP3      H1            -14.2097718891       32.4412453751      -32.4495018541  TIP3      6140            0.0000000000
     40740      6332  TIP3      H2            -12.9261547367       33.0899657969      -32.0785975437  TIP3      6140            0.0000000000
     40741      6333  TIP3      OH2           -17.2793378220       26.8565164416      -36.6586648577  TIP3      6141            0.0000000000
     40742      6333  TIP3      H1            -17.7119308147       27.7295388334      -36.7156006143  TIP3      6141            0.0000000000
     40743      6333  TIP3      H2            -17.8398866133       26.3225823634      -37.2386213585  TIP3      6141            0.0000000000
     40744      6334  TIP3      OH2           -16.5587013040       29.0867797341      -34.5046433697  TIP3      6142            0.0000000000
     40745      6334  TIP3      H1            -16.2860215954       28.2612655696      -34.0606462187  TIP3      6142            0.0000000000
     40746      6334  TIP3      H2            -15.8731933504       29.1945570136      -35.1779798854  TIP3      6142            0.0000000000
     40747      6335  TIP3      OH2            -8.8315546294       31.5470475525      -31.7084919574  TIP3      6143            0.0000000000
     40748      6335  TIP3      H1             -8.4879474643       30.9500253824      -32.3905718343  TIP3      6143            0.0000000000
     40749      6335  TIP3      H2             -8.0114816223       31.7356222979      -31.2201252122  TIP3      6143            0.0000000000
     40750      6336  TIP3      OH2            -0.2223500087       23.2385662753      -31.0184499685  TIP3      6144            0.0000000000
     40751      6336  TIP3      H1             -0.0495453563       23.8216350759      -30.2461929386  TIP3      6144            0.0000000000
     40752      6336  TIP3      H2              0.3503005549       23.6608917841      -31.6733797057  TIP3      6144            0.0000000000
     40753      6337  TIP3      OH2            -5.6571981662       26.0460523190      -31.4168828384  TIP3      6145            0.0000000000
     40754      6337  TIP3      H1             -5.4762712006       25.0898130348      -31.4008854200  TIP3      6145            0.0000000000
     40755      6337  TIP3      H2             -5.7551439761       26.1816604000      -32.3782796426  TIP3      6145            0.0000000000
     40756      6338  TIP3      OH2           -12.5408069709       24.1379084446      -34.2016504668  TIP3      6146            0.0000000000
     40757      6338  TIP3      H1            -12.4287389976       24.9701343341      -34.6978751166  TIP3      6146            0.0000000000
     40758      6338  TIP3      H2            -12.9352717546       23.5625318250      -34.8927476468  TIP3      6146            0.0000000000
     40759      6339  TIP3      OH2            -4.7996436900       24.2131953271      -35.8333487736  TIP3      6147            0.0000000000
     40760      6339  TIP3      H1             -4.1509347778       23.9013995182      -35.1600616470  TIP3      6147            0.0000000000
     40761      6339  TIP3      H2             -4.2341107414       24.7899586858      -36.3729152362  TIP3      6147            0.0000000000
     40762      6340  TIP3      OH2           -15.9160822209       26.5469510304      -33.4673863219  TIP3      6148            0.0000000000
     40763      6340  TIP3      H1            -15.2462335929       26.0057580565      -33.0103842961  TIP3      6148            0.0000000000
     40764      6340  TIP3      H2            -15.8051420206       26.2328858044      -34.3783038379  TIP3      6148            0.0000000000
     40765      6341  TIP3      OH2           -10.7586548610       28.1048225034      -34.1421809921  TIP3      6149            0.0000000000
     40766      6341  TIP3      H1            -10.0833596390       27.5224353028      -33.7539133136  TIP3      6149            0.0000000000
     40767      6341  TIP3      H2            -11.2687302400       27.4512093042      -34.6597847152  TIP3      6149            0.0000000000
     40768      6342  TIP3      OH2             0.2049478535       24.6328023914      -28.7373791206  TIP3      6150            0.0000000000
     40769      6342  TIP3      H1             -0.3825958614       25.4137474068      -28.8493897995  TIP3      6150            0.0000000000
     40770      6342  TIP3      H2              0.2605668610       24.5613442186      -27.7779358209  TIP3      6150            0.0000000000
     40771      6343  TIP3      OH2           -13.6241889229       23.0375182360      -30.1648239919  TIP3      6151            0.0000000000
     40772      6343  TIP3      H1            -13.9079032382       23.6089499280      -30.9100979982  TIP3      6151            0.0000000000
     40773      6343  TIP3      H2            -14.3047909522       23.2701648067      -29.4887782716  TIP3      6151            0.0000000000
     40774      6344  TIP3      OH2            -6.3328212705       32.5067870488      -36.6232235874  TIP3      6152            0.0000000000
     40775      6344  TIP3      H1             -6.6053245572       32.2493696235      -37.5189830780  TIP3      6152            0.0000000000
     40776      6344  TIP3      H2             -6.6153574203       33.4385905954      -36.5780921045  TIP3      6152            0.0000000000
     40777      6345  TIP3      OH2           -11.1172296935       30.6663454035      -29.9328405626  TIP3      6153            0.0000000000
     40778      6345  TIP3      H1            -11.8143251890       31.3131914810      -29.6885130672  TIP3      6153            0.0000000000
     40779      6345  TIP3      H2            -10.4099828817       31.2658013093      -30.2167390762  TIP3      6153            0.0000000000
     40780      6346  TIP3      OH2            -2.9884944886       23.5614542889      -33.8432565933  TIP3      6154            0.0000000000
     40781      6346  TIP3      H1             -3.2049349740       22.7973543748      -33.3015140146  TIP3      6154            0.0000000000
     40782      6346  TIP3      H2             -2.3107576351       23.9990087137      -33.3012704976  TIP3      6154            0.0000000000
     40783      6347  TIP3      OH2           -14.0572247121       24.8905918220      -32.1208365442  TIP3      6155            0.0000000000
     40784      6347  TIP3      H1            -13.4303856060       25.5822351976      -31.8120252198  TIP3      6155            0.0000000000
     40785      6347  TIP3      H2            -13.5436781855       24.4834672029      -32.8633519312  TIP3      6155            0.0000000000
     40786      6348  TIP3      OH2           -12.6618787064       32.6645035427      -29.0839244183  TIP3      6156            0.0000000000
     40787      6348  TIP3      H1            -12.7088740858       33.5692780462      -29.4354743176  TIP3      6156            0.0000000000
     40788      6348  TIP3      H2            -13.5586992606       32.6098888949      -28.6788079679  TIP3      6156            0.0000000000
     40789      6349  TIP3      OH2           -16.6110810241       32.3470118948      -38.3060484188  TIP3      6157            0.0000000000
     40790      6349  TIP3      H1            -16.8187180860       32.6619068099      -39.2100388656  TIP3      6157            0.0000000000
     40791      6349  TIP3      H2            -16.5019642542       33.1719682321      -37.7929906747  TIP3      6157            0.0000000000
     40792      6350  TIP3      OH2            -2.9663988072       33.9960254791      -31.5085949830  TIP3      6158            0.0000000000
     40793      6350  TIP3      H1             -3.9448269685       34.0406820821      -31.4329978947  TIP3      6158            0.0000000000
     40794      6350  TIP3      H2             -2.7078979013       34.8965750270      -31.7692047475  TIP3      6158            0.0000000000
     40795      6351  TIP3      OH2            -2.6643264953       22.2487084072      -30.1752286560  TIP3      6159            0.0000000000
     40796      6351  TIP3      H1             -3.3824838795       22.8877054340      -30.2535189465  TIP3      6159            0.0000000000
     40797      6351  TIP3      H2             -1.9392144847       22.6855270698      -30.6660452289  TIP3      6159            0.0000000000
     40798      6352  TIP3      OH2            -9.6933638042       20.3726056148      -32.6965889555  TIP3      6160            0.0000000000
     40799      6352  TIP3      H1             -9.8409438327       19.4079346674      -32.7736667211  TIP3      6160            0.0000000000
     40800      6352  TIP3      H2            -10.5725771532       20.6769012363      -32.3875985564  TIP3      6160            0.0000000000
     40801      6353  TIP3      OH2            -4.7046358296       35.5370977209      -35.0442488253  TIP3      6161            0.0000000000
     40802      6353  TIP3      H1             -4.2129035199       34.8867830529      -35.5812068898  TIP3      6161            0.0000000000
     40803      6353  TIP3      H2             -4.3119840745       36.3514733879      -35.3628935566  TIP3      6161            0.0000000000
     40804      6354  TIP3      OH2            -3.4882714241       33.6448620029      -36.4469739114  TIP3      6162            0.0000000000
     40805      6354  TIP3      H1             -3.8042176215       32.9739171920      -37.0707221372  TIP3      6162            0.0000000000
     40806      6354  TIP3      H2             -3.4783415961       33.1589323214      -35.6007456144  TIP3      6162            0.0000000000
     40807      6355  TIP3      OH2            -1.8964122011       32.3003724311      -27.9534082063  TIP3      6163            0.0000000000
     40808      6355  TIP3      H1             -1.7544059149       31.6255918536      -28.6541385407  TIP3      6163            0.0000000000
     40809      6355  TIP3      H2             -1.6408088268       33.1258773714      -28.3980011222  TIP3      6163            0.0000000000
     40810      6356  TIP3      OH2            -7.4054698734       29.1683262501      -38.2055791295  TIP3      6164            0.0000000000
     40811      6356  TIP3      H1             -8.0867825316       29.7516557208      -38.5964722329  TIP3      6164            0.0000000000
     40812      6356  TIP3      H2             -6.6872487272       29.2543745118      -38.8587284157  TIP3      6164            0.0000000000
     40813      6357  TIP3      OH2            -7.3563475477       27.7017938906      -41.1022044010  TIP3      6165            0.0000000000
     40814      6357  TIP3      H1             -6.6179997558       27.7033706738      -40.4709532425  TIP3      6165            0.0000000000
     40815      6357  TIP3      H2             -7.0275679377       27.0630922878      -41.7400472277  TIP3      6165            0.0000000000
     40816      6358  TIP3      OH2             0.0062448704       28.5912956461      -29.9082693555  TIP3      6166            0.0000000000
     40817      6358  TIP3      H1             -0.6624800939       29.3040699753      -29.8710880928  TIP3      6166            0.0000000000
     40818      6358  TIP3      H2              0.4868601061       28.8326784895      -30.7199662842  TIP3      6166            0.0000000000
     40819      6359  TIP3      OH2            -3.9505234185       29.3823688815      -37.2493825971  TIP3      6167            0.0000000000
     40820      6359  TIP3      H1             -4.6965284878       29.6143232824      -36.6423494643  TIP3      6167            0.0000000000
     40821      6359  TIP3      H2             -3.4681588973       28.7075524760      -36.7397069509  TIP3      6167            0.0000000000
     40822      6360  TIP3      OH2            -4.0227968433       27.5401846464      -28.1582512492  TIP3      6168            0.0000000000
     40823      6360  TIP3      H1             -3.9972574161       28.3502189840      -27.6210053748  TIP3      6168            0.0000000000
     40824      6360  TIP3      H2             -4.6495139637       27.8384603072      -28.8465673862  TIP3      6168            0.0000000000
     40825      6361  TIP3      OH2           -12.3367581068       30.0277277447      -35.3494910909  TIP3      6169            0.0000000000
     40826      6361  TIP3      H1            -12.6538077548       29.6464655638      -36.2044298966  TIP3      6169            0.0000000000
     40827      6361  TIP3      H2            -11.7182773065       29.3392172606      -35.0161712520  TIP3      6169            0.0000000000
     40828      6362  TIP3      OH2           -11.0015599942       33.3933977228      -32.6760318357  TIP3      6170            0.0000000000
     40829      6362  TIP3      H1            -11.0008737889       32.8712845299      -33.4802037556  TIP3      6170            0.0000000000
     40830      6362  TIP3      H2            -10.2246669172       33.0579864836      -32.1979548887  TIP3      6170            0.0000000000
     40831      6363  TIP3      OH2           -12.0089028566       28.7766845288      -31.6850544370  TIP3      6171            0.0000000000
     40832      6363  TIP3      H1            -11.4593609160       28.8717899569      -32.4877872614  TIP3      6171            0.0000000000
     40833      6363  TIP3      H2            -11.6121170487       29.4412725687      -31.0778430700  TIP3      6171            0.0000000000
     40834      6364  TIP3      OH2            -5.5905254734       34.3360967577      -30.9855356182  TIP3      6172            0.0000000000
     40835      6364  TIP3      H1             -5.9181797261       34.9837655297      -30.3698226512  TIP3      6172            0.0000000000
     40836      6364  TIP3      H2             -5.8587043072       33.4878282367      -30.5624369918  TIP3      6172            0.0000000000
     40837      6365  TIP3      OH2           -11.0500965323       33.2373657396      -26.9758120249  TIP3      6173            0.0000000000
     40838      6365  TIP3      H1            -11.4937690958       33.9755114263      -26.5132672333  TIP3      6173            0.0000000000
     40839      6365  TIP3      H2            -11.7097390882       32.9969434813      -27.6783905909  TIP3      6173            0.0000000000
     40840      6366  TIP3      OH2            -5.0609900607       28.5457939630      -39.5904640438  TIP3      6174            0.0000000000
     40841      6366  TIP3      H1             -4.5245693226       28.7530938269      -38.7873252229  TIP3      6174            0.0000000000
     40842      6366  TIP3      H2             -4.6574284870       29.0970617951      -40.2909130091  TIP3      6174            0.0000000000
     40843      6367  TIP3      OH2           -14.1148596102       29.3526239923      -27.8098163031  TIP3      6175            0.0000000000
     40844      6367  TIP3      H1            -14.0595649218       30.0335179199      -27.1146431835  TIP3      6175            0.0000000000
     40845      6367  TIP3      H2            -15.0438470535       29.4614322090      -28.0658403942  TIP3      6175            0.0000000000
     40846      6368  TIP3      OH2            -7.4008910721       35.2586934499      -36.0849655327  TIP3      6176            0.0000000000
     40847      6368  TIP3      H1             -6.8753212281       35.6023472887      -35.3601214667  TIP3      6176            0.0000000000
     40848      6368  TIP3      H2             -7.8833190084       36.0268456594      -36.4048981639  TIP3      6176            0.0000000000
     40849      6369  TIP3      OH2           -12.8351362836       35.2507295849      -26.2853598738  TIP3      6177            0.0000000000
     40850      6369  TIP3      H1            -12.8681602186       35.1193475375      -27.2533366769  TIP3      6177            0.0000000000
     40851      6369  TIP3      H2            -13.7677296234       35.1180796591      -26.0239783461  TIP3      6177            0.0000000000
     40852      6370  TIP3      OH2            -1.3488300703       20.2968623286      -39.6977380670  TIP3      6178            0.0000000000
     40853      6370  TIP3      H1             -2.3016394031       20.4115919803      -39.4549750753  TIP3      6178            0.0000000000
     40854      6370  TIP3      H2             -1.1322139224       21.1555095644      -40.1030991886  TIP3      6178            0.0000000000
     40855      6371  TIP3      OH2           -13.3798976314       29.0553604776      -37.7304418084  TIP3      6179            0.0000000000
     40856      6371  TIP3      H1            -13.6477797911       29.8286040557      -38.2658502010  TIP3      6179            0.0000000000
     40857      6371  TIP3      H2            -14.0223199323       28.3851196694      -37.9750153395  TIP3      6179            0.0000000000
     40858      6372  TIP3      OH2            -0.2045682974       34.6032006379      -41.3015814277  TIP3      6180            0.0000000000
     40859      6372  TIP3      H1             -0.1572189662       35.5652606644      -41.2023125936  TIP3      6180            0.0000000000
     40860      6372  TIP3      H2              0.7213447192       34.3436832390      -41.4119966392  TIP3      6180            0.0000000000
     40861      6373  TIP3      OH2           -17.2644844855       31.4860589680      -28.8519574543  TIP3      6181            0.0000000000
     40862      6373  TIP3      H1            -17.7213078090       31.3962318633      -29.7040159338  TIP3      6181            0.0000000000
     40863      6373  TIP3      H2            -17.1970480736       30.5389871981      -28.6221861263  TIP3      6181            0.0000000000
     40864      6374  TIP3      OH2           -17.4693474639       34.2765100678      -32.1125332581  TIP3      6182            0.0000000000
     40865      6374  TIP3      H1            -16.5180449261       34.1229848889      -32.0859103005  TIP3      6182            0.0000000000
     40866      6374  TIP3      H2            -17.5760713686       35.0248540427      -31.5091644216  TIP3      6182            0.0000000000
     40867      6375  TIP3      OH2             0.7046428718       34.8931754524      -26.3369928855  TIP3      6183            0.0000000000
     40868      6375  TIP3      H1              0.5932480247       33.9368341006      -26.4039604124  TIP3      6183            0.0000000000
     40869      6375  TIP3      H2             -0.1681805587       35.1900460859      -26.0024949866  TIP3      6183            0.0000000000
     40870      6376  TIP3      OH2            -8.3356015926       34.5257464386      -27.5395068172  TIP3      6184            0.0000000000
     40871      6376  TIP3      H1             -8.2451293155       35.2925379298      -26.9680666730  TIP3      6184            0.0000000000
     40872      6376  TIP3      H2             -9.1738943174       34.0889005960      -27.2716167091  TIP3      6184            0.0000000000
     40873      6377  TIP3      OH2           -14.9845265875       32.8126867306      -27.8639666454  TIP3      6185            0.0000000000
     40874      6377  TIP3      H1            -14.7649493806       32.4242839871      -26.9907029396  TIP3      6185            0.0000000000
     40875      6377  TIP3      H2            -15.8388397192       32.3932862763      -28.1110412388  TIP3      6185            0.0000000000
     40876      6378  TIP3      OH2           -12.3046284390       21.2753264947      -31.9465950974  TIP3      6186            0.0000000000
     40877      6378  TIP3      H1            -13.2086231396       21.1464637991      -32.3110754834  TIP3      6186            0.0000000000
     40878      6378  TIP3      H2            -12.4424933604       22.1032543624      -31.4569817050  TIP3      6186            0.0000000000
     40879      6379  TIP3      OH2            -7.6613997661       20.9413113342      -28.5664196469  TIP3      6187            0.0000000000
     40880      6379  TIP3      H1             -7.2850949357       20.4991515566      -27.7842467383  TIP3      6187            0.0000000000
     40881      6379  TIP3      H2             -8.6354891805       20.8306128069      -28.4237462134  TIP3      6187            0.0000000000
     40882      6380  TIP3      OH2            -4.4097277960       24.7771681816      -27.7116237889  TIP3      6188            0.0000000000
     40883      6380  TIP3      H1             -4.9675212753       24.5848270497      -26.9263447872  TIP3      6188            0.0000000000
     40884      6380  TIP3      H2             -4.5324381046       25.7263520690      -27.9091743076  TIP3      6188            0.0000000000
     40885      6381  TIP3      OH2            -3.5438806392       29.6411085602      -41.7399486575  TIP3      6189            0.0000000000
     40886      6381  TIP3      H1             -3.5427656127       29.4815994103      -42.6998466025  TIP3      6189            0.0000000000
     40887      6381  TIP3      H2             -2.6816278461       30.0855658365      -41.6431387647  TIP3      6189            0.0000000000
     40888      6382  TIP3      OH2            -8.0157827153       23.5180920836      -41.2331963384  TIP3      6190            0.0000000000
     40889      6382  TIP3      H1             -8.3413698602       23.4645952846      -40.3175215848  TIP3      6190            0.0000000000
     40890      6382  TIP3      H2             -8.2939726006       22.6419172440      -41.5297321321  TIP3      6190            0.0000000000
     40891      6383  TIP3      OH2           -12.2009018138       26.2521696754      -30.6778757608  TIP3      6191            0.0000000000
     40892      6383  TIP3      H1            -12.9434581206       26.2413061742      -30.0478579696  TIP3      6191            0.0000000000
     40893      6383  TIP3      H2            -12.2519055845       27.1562026453      -31.0626222223  TIP3      6191            0.0000000000
     40894      6384  TIP3      OH2           -12.2445548931       26.3516018422      -35.8225624854  TIP3      6192            0.0000000000
     40895      6384  TIP3      H1            -13.1851275864       26.1120535140      -35.9594166190  TIP3      6192            0.0000000000
     40896      6384  TIP3      H2            -11.8711547865       26.0751089140      -36.6838446444  TIP3      6192            0.0000000000
     40897      6385  TIP3      OH2            -6.7170412318       26.8556173060      -37.0862815433  TIP3      6193            0.0000000000
     40898      6385  TIP3      H1             -7.1196202572       27.6936006175      -37.4089455244  TIP3      6193            0.0000000000
     40899      6385  TIP3      H2             -6.0297255922       26.7035390050      -37.7614807464  TIP3      6193            0.0000000000
     40900      6386  TIP3      OH2            -7.6630393818       27.0802021926      -25.6182985333  TIP3      6194            0.0000000000
     40901      6386  TIP3      H1             -8.1917669724       26.3077027026      -25.3117636258  TIP3      6194            0.0000000000
     40902      6386  TIP3      H2             -6.8226020266       26.9549031793      -25.1686310511  TIP3      6194            0.0000000000
     40903      6387  TIP3      OH2            -5.6844415883       26.3574822252      -34.2058127208  TIP3      6195            0.0000000000
     40904      6387  TIP3      H1             -5.9735782407       26.9206704563      -34.9444018309  TIP3      6195            0.0000000000
     40905      6387  TIP3      H2             -5.5954252279       25.5084812029      -34.6779829240  TIP3      6195            0.0000000000
     40906      6388  TIP3      OH2           -14.5862464978       26.4897166022      -29.0101490915  TIP3      6196            0.0000000000
     40907      6388  TIP3      H1            -14.4888788660       26.8937320207      -28.1296729475  TIP3      6196            0.0000000000
     40908      6388  TIP3      H2            -15.0335489243       25.6537328593      -28.7960684863  TIP3      6196            0.0000000000
     40909      6389  TIP3      OH2           -11.0327171947       24.1143586955      -41.8304050673  TIP3      6197            0.0000000000
     40910      6389  TIP3      H1            -11.5859037212       23.4935455825      -41.3103556118  TIP3      6197            0.0000000000
     40911      6389  TIP3      H2            -11.6329969243       24.5061554563      -42.4631785151  TIP3      6197            0.0000000000
     40912      6390  TIP3      OH2           -17.9241328427       23.6015406725      -35.0137799581  TIP3      6198            0.0000000000
     40913      6390  TIP3      H1            -17.2390125966       23.5634246157      -34.3162236821  TIP3      6198            0.0000000000
     40914      6390  TIP3      H2            -17.4757357423       23.2279568505      -35.7944151517  TIP3      6198            0.0000000000
     40915      6391  TIP3      OH2           -16.6295294719       24.3284570923      -39.6567121423  TIP3      6199            0.0000000000
     40916      6391  TIP3      H1            -16.1368738875       24.9136883013      -40.2663082691  TIP3      6199            0.0000000000
     40917      6391  TIP3      H2            -17.3176448282       24.9554077578      -39.3456631698  TIP3      6199            0.0000000000
     40918      6392  TIP3      OH2            -6.4842318291       27.9379318438      -29.6573965394  TIP3      6200            0.0000000000
     40919      6392  TIP3      H1             -6.1076449602       27.2494262190      -30.2423492186  TIP3      6200            0.0000000000
     40920      6392  TIP3      H2             -6.9638007336       27.4106182864      -28.9943757540  TIP3      6200            0.0000000000
     40921      6393  TIP3      OH2            -9.6902688240       23.9241510339      -34.8109213380  TIP3      6201            0.0000000000
     40922      6393  TIP3      H1            -10.6254913200       23.9209853595      -34.5272508325  TIP3      6201            0.0000000000
     40923      6393  TIP3      H2             -9.2084871479       23.7436266766      -33.9926179570  TIP3      6201            0.0000000000
     40924      6394  TIP3      OH2           -14.8842626433       25.4651699919      -35.9504087082  TIP3      6202            0.0000000000
     40925      6394  TIP3      H1            -15.7651160691       25.6232416108      -36.3473135189  TIP3      6202            0.0000000000
     40926      6394  TIP3      H2            -14.5983644753       24.6334618835      -36.3633258235  TIP3      6202            0.0000000000
     40927      6395  TIP3      OH2           -11.2474062722       25.5348967169      -38.3259722610  TIP3      6203            0.0000000000
     40928      6395  TIP3      H1            -10.2890081619       25.6320974601      -38.1594958800  TIP3      6203            0.0000000000
     40929      6395  TIP3      H2            -11.4718524104       26.1855386102      -39.0124114482  TIP3      6203            0.0000000000
     40930      6396  TIP3      OH2            -5.2822934238       23.1552928303      -31.5834221277  TIP3      6204            0.0000000000
     40931      6396  TIP3      H1             -5.9687494231       23.2021318346      -30.8784539019  TIP3      6204            0.0000000000
     40932      6396  TIP3      H2             -5.7931456997       22.8955424750      -32.3640386276  TIP3      6204            0.0000000000
     40933      6397  TIP3      OH2           -12.5398978474       26.6883280034      -40.7252301790  TIP3      6205            0.0000000000
     40934      6397  TIP3      H1            -13.0967588014       26.3442586521      -41.4456893183  TIP3      6205            0.0000000000
     40935      6397  TIP3      H2            -11.7136873651       26.9069018028      -41.1865514988  TIP3      6205            0.0000000000
     40936      6398  TIP3      OH2           -14.4216112571       31.2762241228      -25.6898342712  TIP3      6206            0.0000000000
     40937      6398  TIP3      H1            -13.6816476501       31.4978289892      -25.1157154321  TIP3      6206            0.0000000000
     40938      6398  TIP3      H2            -15.1802353680       31.3693955989      -25.0733546593  TIP3      6206            0.0000000000
     40939      6399  TIP3      OH2            -8.4107047850       26.6754617438      -32.9291022455  TIP3      6207            0.0000000000
     40940      6399  TIP3      H1             -7.8094397910       26.1424797239      -33.4618718198  TIP3      6207            0.0000000000
     40941      6399  TIP3      H2             -8.5554955528       26.1250058967      -32.1475597096  TIP3      6207            0.0000000000
     40942      6400  TIP3      OH2           -13.3994128496       22.8151735695      -36.4743412373  TIP3      6208            0.0000000000
     40943      6400  TIP3      H1            -13.7110931799       21.8933887344      -36.4952042911  TIP3      6208            0.0000000000
     40944      6400  TIP3      H2            -12.6149566807       22.7507691673      -37.0377444466  TIP3      6208            0.0000000000
     40945      6401  TIP3      OH2            -9.7719030290       24.9984171735      -30.5133140745  TIP3      6209            0.0000000000
     40946      6401  TIP3      H1            -10.5940331726       25.5203794593      -30.4271075583  TIP3      6209            0.0000000000
     40947      6401  TIP3      H2             -9.2139534279       25.3550084928      -29.7949150222  TIP3      6209            0.0000000000
     40948      6402  TIP3      OH2            -9.1732377953       31.2019838991      -38.7857758026  TIP3      6210            0.0000000000
     40949      6402  TIP3      H1             -9.9778091972       30.7551935535      -39.1312769153  TIP3      6210            0.0000000000
     40950      6402  TIP3      H2             -9.4118458098       31.3475586762      -37.8496682160  TIP3      6210            0.0000000000
     40951      6403  TIP3      OH2            -1.9811593760       30.4115180099      -30.0025512183  TIP3      6211            0.0000000000
     40952      6403  TIP3      H1             -1.4312951760       30.9178497092      -30.6303842580  TIP3      6211            0.0000000000
     40953      6403  TIP3      H2             -2.8464467527       30.4570118929      -30.4590262794  TIP3      6211            0.0000000000
     40954      6404  TIP3      OH2            -5.3092574258       24.0156040711      -40.6285052358  TIP3      6212            0.0000000000
     40955      6404  TIP3      H1             -6.2545591935       24.1721542535      -40.8057556175  TIP3      6212            0.0000000000
     40956      6404  TIP3      H2             -5.0123698455       24.8900189662      -40.3177262411  TIP3      6212            0.0000000000
     40957      6405  TIP3      OH2            -7.6830764817       31.5176235448      -27.5866318656  TIP3      6213            0.0000000000
     40958      6405  TIP3      H1             -7.9931522556       31.0570342297      -26.7864816994  TIP3      6213            0.0000000000
     40959      6405  TIP3      H2             -7.9503698347       32.4298365402      -27.4556681025  TIP3      6213            0.0000000000
     40960      6406  TIP3      OH2            -4.6122814528       25.9642645713      -38.9650225513  TIP3      6214            0.0000000000
     40961      6406  TIP3      H1             -3.7173207720       25.8247414357      -38.5999348812  TIP3      6214            0.0000000000
     40962      6406  TIP3      H2             -4.5206184319       26.7728825959      -39.4935111440  TIP3      6214            0.0000000000
     40963      6407  TIP3      OH2           -14.0703656192       30.6228547006      -33.0115162168  TIP3      6215            0.0000000000
     40964      6407  TIP3      H1            -13.3858314620       30.5524775243      -33.7061643595  TIP3      6215            0.0000000000
     40965      6407  TIP3      H2            -14.0105214006       29.7630104544      -32.5617887461  TIP3      6215            0.0000000000
     40966      6408  TIP3      OH2            -7.0692479265       32.6985238124      -39.7483692142  TIP3      6216            0.0000000000
     40967      6408  TIP3      H1             -7.4375425261       33.5416922094      -39.4275685442  TIP3      6216            0.0000000000
     40968      6408  TIP3      H2             -7.8143504459       32.0887964069      -39.5732891350  TIP3      6216            0.0000000000
     40969      6409  TIP3      OH2           -17.0995337215       29.0567886435      -27.7155089350  TIP3      6217            0.0000000000
     40970      6409  TIP3      H1            -16.8692032885       28.5731037136      -26.9006506604  TIP3      6217            0.0000000000
     40971      6409  TIP3      H2            -17.6743747202       28.4345854203      -28.2046802368  TIP3      6217            0.0000000000
     40972      6410  TIP3      OH2           -10.0624260453       28.5491010046      -25.5719385903  TIP3      6218            0.0000000000
     40973      6410  TIP3      H1            -10.3718394004       28.2850014089      -26.4516090943  TIP3      6218            0.0000000000
     40974      6410  TIP3      H2             -9.1274582877       28.2770747947      -25.5907768475  TIP3      6218            0.0000000000
     40975      6411  TIP3      OH2            -5.3940470876       33.9814341533      -27.6920041194  TIP3      6219            0.0000000000
     40976      6411  TIP3      H1             -6.3357285562       34.0649819845      -27.8816738701  TIP3      6219            0.0000000000
     40977      6411  TIP3      H2             -5.4168724243       34.1799973875      -26.7286890756  TIP3      6219            0.0000000000
     40978      6412  TIP3      OH2             0.2788915187       26.0863581156      -39.2158915430  TIP3      6220            0.0000000000
     40979      6412  TIP3      H1             -0.2822851654       25.7844001219      -39.9512323339  TIP3      6220            0.0000000000
     40980      6412  TIP3      H2              0.3602111198       27.0247800930      -39.4893412881  TIP3      6220            0.0000000000
     40981      6413  TIP3      OH2             0.2876767789       31.9347167203      -26.4165585126  TIP3      6221            0.0000000000
     40982      6413  TIP3      H1             -0.6022171667       32.1704709392      -26.7770917057  TIP3      6221            0.0000000000
     40983      6413  TIP3      H2              0.8294234428       31.9156659083      -27.2308209129  TIP3      6221            0.0000000000
     40984      6414  TIP3      OH2            -1.3673546783       34.7737814171      -38.7297196907  TIP3      6222            0.0000000000
     40985      6414  TIP3      H1             -1.8215138562       33.9711326997      -38.5189331697  TIP3      6222            0.0000000000
     40986      6414  TIP3      H2             -1.1450098261       34.7395436326      -39.6730917566  TIP3      6222            0.0000000000
     40987      6415  TIP3      OH2            -4.2166920215       29.7394880109      -31.7294421098  TIP3      6223            0.0000000000
     40988      6415  TIP3      H1             -5.1562406025       29.5248713021      -31.8472531305  TIP3      6223            0.0000000000
     40989      6415  TIP3      H2             -3.7807524317       28.9861013880      -32.1702873975  TIP3      6223            0.0000000000
     40990      6416  TIP3      OH2           -11.6646365153       34.0429483832      -35.6819177744  TIP3      6224            0.0000000000
     40991      6416  TIP3      H1            -11.2187277553       34.8729296558      -35.8591464291  TIP3      6224            0.0000000000
     40992      6416  TIP3      H2            -12.5694087477       34.2643610531      -35.9394281703  TIP3      6224            0.0000000000
     40993      6417  TIP3      OH2           -15.9714870184       28.9317826333      -41.1065679461  TIP3      6225            0.0000000000
     40994      6417  TIP3      H1            -15.3484395309       29.5512211847      -40.6819006543  TIP3      6225            0.0000000000
     40995      6417  TIP3      H2            -16.8396401406       29.2060620971      -40.7631009662  TIP3      6225            0.0000000000
     40996      6418  TIP3      OH2           -10.2609970654       31.7341809171      -36.1036098188  TIP3      6226            0.0000000000
     40997      6418  TIP3      H1            -10.5826919049       32.6543139287      -36.0330987985  TIP3      6226            0.0000000000
     40998      6418  TIP3      H2            -10.9930760389       31.2607981789      -35.6616585756  TIP3      6226            0.0000000000
     40999      6419  TIP3      OH2            -9.6508381992       35.6896860658      -29.9458517175  TIP3      6227            0.0000000000
     41000      6419  TIP3      H1             -9.4155083848       36.6287985749      -30.0053712542  TIP3      6227            0.0000000000
     41001      6419  TIP3      H2             -9.2156523345       35.4771521518      -29.1031919089  TIP3      6227            0.0000000000
     41002      6420  TIP3      OH2           -11.9242010077      -36.7584756533      -36.9166766665  TIP3      6228            0.0000000000
     41003      6420  TIP3      H1            -12.7605365634      -36.6963126811      -36.4549428043  TIP3      6228            0.0000000000
     41004      6420  TIP3      H2            -11.3815926857      -36.1295927964      -36.3838672132  TIP3      6228            0.0000000000
     41005      6421  TIP3      OH2            -6.3031643980       31.9102541891      -30.0863978031  TIP3      6229            0.0000000000
     41006      6421  TIP3      H1             -6.6447957490       31.6947786844      -29.1936774206  TIP3      6229            0.0000000000
     41007      6421  TIP3      H2             -5.6753662866       31.1898216891      -30.2588606977  TIP3      6229            0.0000000000
     41008      6422  TIP3      OH2            -4.0112779100       32.8839051896      -40.9586960711  TIP3      6230            0.0000000000
     41009      6422  TIP3      H1             -3.7072450595       32.5080207197      -40.1119060397  TIP3      6230            0.0000000000
     41010      6422  TIP3      H2             -4.9715804616       32.7955467483      -40.8766760944  TIP3      6230            0.0000000000
     41011      6423  TIP3      OH2            -3.5662607758       36.4738724684      -27.5615153141  TIP3      6231            0.0000000000
     41012      6423  TIP3      H1             -4.2066985145       35.9459670173      -28.0588390701  TIP3      6231            0.0000000000
     41013      6423  TIP3      H2             -3.3569076602       37.1788443187      -28.1976534305  TIP3      6231            0.0000000000
     41014      6424  TIP3      OH2           -15.4293534839       23.7653764975      -28.2303849086  TIP3      6232            0.0000000000
     41015      6424  TIP3      H1            -16.3406293585       24.1033973167      -28.2545006958  TIP3      6232            0.0000000000
     41016      6424  TIP3      H2            -15.5085939857       22.9195092001      -27.7553675714  TIP3      6232            0.0000000000
     41017      6425  TIP3      OH2            -3.1890751724       31.5990070844      -38.7381741082  TIP3      6233            0.0000000000
     41018      6425  TIP3      H1             -3.4337892361       30.8038716868      -38.2192444781  TIP3      6233            0.0000000000
     41019      6425  TIP3      H2             -2.2430289292       31.6814743177      -38.5366602928  TIP3      6233            0.0000000000
     41020      6426  TIP3      OH2           -15.8169910659       35.5007651447      -29.7806305066  TIP3      6234            0.0000000000
     41021      6426  TIP3      H1            -15.4952807897       34.5933431775      -29.7542830099  TIP3      6234            0.0000000000
     41022      6426  TIP3      H2            -15.6187657387       35.8495028184      -28.9041284921  TIP3      6234            0.0000000000
     41023      6427  TIP3      OH2           -11.0540484436       33.6200410275      -40.0820057146  TIP3      6235            0.0000000000
     41024      6427  TIP3      H1            -10.8099477287       33.0639284159      -39.3322078033  TIP3      6235            0.0000000000
     41025      6427  TIP3      H2            -10.9501648703       34.5205924100      -39.7353846152  TIP3      6235            0.0000000000
     41026      6428  TIP3      OH2           -14.5803120795       30.8479984649      -39.6208304922  TIP3      6236            0.0000000000
     41027      6428  TIP3      H1            -15.2318013307       31.2532103317      -39.0118106235  TIP3      6236            0.0000000000
     41028      6428  TIP3      H2            -14.0112632397       31.6091871086      -39.8405407235  TIP3      6236            0.0000000000
     41029      6429  TIP3      OH2            -6.7243076954       23.5197559397      -29.2473503001  TIP3      6237            0.0000000000
     41030      6429  TIP3      H1             -5.9881960978       23.5815641249      -28.6283855974  TIP3      6237            0.0000000000
     41031      6429  TIP3      H2             -7.0890946489       22.6368416992      -29.0510797682  TIP3      6237            0.0000000000
     41032      6430  TIP3      OH2            -5.9678776243       23.1113961035      -38.1364838658  TIP3      6238            0.0000000000
     41033      6430  TIP3      H1             -5.7139957468       23.5636487673      -38.9673848901  TIP3      6238            0.0000000000
     41034      6430  TIP3      H2             -5.3790624491       23.5425362620      -37.5061419470  TIP3      6238            0.0000000000
     41035      6431  TIP3      OH2            -8.2648377756       35.2652139841      -39.2922803699  TIP3      6239            0.0000000000
     41036      6431  TIP3      H1             -9.1095687738       35.7367169476      -39.2765309832  TIP3      6239            0.0000000000
     41037      6431  TIP3      H2             -7.7487530314       35.7561007085      -39.9700702906  TIP3      6239            0.0000000000
     41038      6432  TIP3      OH2            -8.7339283026       24.8421121312      -37.3436523769  TIP3      6240            0.0000000000
     41039      6432  TIP3      H1             -7.9524614932       25.4282013465      -37.3179373990  TIP3      6240            0.0000000000
     41040      6432  TIP3      H2             -8.9938589194       24.7325514770      -36.4118301883  TIP3      6240            0.0000000000
     41041      6433  TIP3      OH2            -8.1687996726       25.8851002123      -28.1776463220  TIP3      6241            0.0000000000
     41042      6433  TIP3      H1             -8.1024117279       26.4300059224      -27.3689593860  TIP3      6241            0.0000000000
     41043      6433  TIP3      H2             -7.5213190841       25.1764552730      -28.0687094742  TIP3      6241            0.0000000000
     41044      6434  TIP3      OH2            -7.8761408121       21.9035133318      -36.4696364623  TIP3      6242            0.0000000000
     41045      6434  TIP3      H1             -8.2013512656       22.5547560921      -35.8261720169  TIP3      6242            0.0000000000
     41046      6434  TIP3      H2             -7.1790805275       22.4519911276      -36.9095794045  TIP3      6242            0.0000000000
     41047      6435  TIP3      OH2           -10.8092275586      -37.0475280111      -39.3815950694  TIP3      6243            0.0000000000
     41048      6435  TIP3      H1            -10.7364900590      -36.2036910281      -39.8236704851  TIP3      6243            0.0000000000
     41049      6435  TIP3      H2            -11.1669829753      -36.8130997273      -38.4972963127  TIP3      6243            0.0000000000
     41050      6436  TIP3      OH2           -12.2174037561       22.9968136556      -39.6908148380  TIP3      6244            0.0000000000
     41051      6436  TIP3      H1            -12.2769242785       23.9168944778      -39.3653463200  TIP3      6244            0.0000000000
     41052      6436  TIP3      H2            -11.2992087197       22.7786945957      -39.4397212246  TIP3      6244            0.0000000000
     41053      6437  TIP3      OH2            -2.0123660665       23.7177463546      -27.2577312335  TIP3      6245            0.0000000000
     41054      6437  TIP3      H1             -2.9180267573       24.0819384972      -27.4199437579  TIP3      6245            0.0000000000
     41055      6437  TIP3      H2             -1.6889711724       23.7454014757      -28.1756219183  TIP3      6245            0.0000000000
     41056      6438  TIP3      OH2            -3.3760350246       27.5323395152      -33.2989838780  TIP3      6246            0.0000000000
     41057      6438  TIP3      H1             -4.2009678499       27.0836281520      -33.5655182644  TIP3      6246            0.0000000000
     41058      6438  TIP3      H2             -2.8952876949       26.8467280794      -32.7825270861  TIP3      6246            0.0000000000
     41059      6439  TIP3      OH2           -13.9619858303       33.3997893018      -40.6709613701  TIP3      6247            0.0000000000
     41060      6439  TIP3      H1            -13.3345234623       34.0822458986      -40.4115725039  TIP3      6247            0.0000000000
     41061      6439  TIP3      H2            -13.4662884357       33.0074771051      -41.4145471783  TIP3      6247            0.0000000000
     41062      6440  TIP3      OH2           -15.5858610694       26.1349467317      -41.4964054211  TIP3      6248            0.0000000000
     41063      6440  TIP3      H1            -15.6124871541       27.1008008960      -41.3868992712  TIP3      6248            0.0000000000
     41064      6440  TIP3      H2            -16.4550787697       25.9434398101      -41.8693915698  TIP3      6248            0.0000000000
     41065      6441  TIP3      OH2           -14.8251451535       20.9129472623      -32.8093301823  TIP3      6249            0.0000000000
     41066      6441  TIP3      H1            -15.0162783171       20.9304778479      -33.7736755291  TIP3      6249            0.0000000000
     41067      6441  TIP3      H2            -15.2365530236       20.0579140768      -32.5619046504  TIP3      6249            0.0000000000
     41068      6442  TIP3      OH2           -15.7725380276       34.8037161589      -36.5757873102  TIP3      6250            0.0000000000
     41069      6442  TIP3      H1            -16.6671752520       35.1871754954      -36.6758954480  TIP3      6250            0.0000000000
     41070      6442  TIP3      H2            -15.4108047067       35.2713292865      -37.3396844472  TIP3      6250            0.0000000000
     41071      6443  TIP3      OH2           -11.8676435065       35.8994763793      -23.6613227293  TIP3      6251            0.0000000000
     41072      6443  TIP3      H1            -10.9454854271       35.9148890876      -23.4123166361  TIP3      6251            0.0000000000
     41073      6443  TIP3      H2            -11.8405982803       36.0437726593      -24.6315543125  TIP3      6251            0.0000000000
     41074      6444  TIP3      OH2            -7.5672926685       36.1090086636      -41.7017028308  TIP3      6252            0.0000000000
     41075      6444  TIP3      H1             -8.3527204172       35.5556118149      -41.8717903921  TIP3      6252            0.0000000000
     41076      6444  TIP3      H2             -7.0045980826       35.6651427516      -42.3637283708  TIP3      6252            0.0000000000
     41077      6445  TIP3      OH2            -5.4935657641       34.6236376003      -25.1198988440  TIP3      6253            0.0000000000
     41078      6445  TIP3      H1             -5.8004134018       33.8027046253      -24.7198264494  TIP3      6253            0.0000000000
     41079      6445  TIP3      H2             -4.8021309472       34.8761001498      -24.4882968642  TIP3      6253            0.0000000000
     41080      6446  TIP3      OH2            -3.2591319896       35.6826211100      -42.2006398433  TIP3      6254            0.0000000000
     41081      6446  TIP3      H1             -3.0491897672       34.8844813622      -41.6829239743  TIP3      6254            0.0000000000
     41082      6446  TIP3      H2             -2.4517274018       35.8270731085      -42.7156347276  TIP3      6254            0.0000000000
     41083      6447  TIP3      OH2           -16.7715168087       31.2414876877      -24.3890556576  TIP3      6255            0.0000000000
     41084      6447  TIP3      H1            -16.5896345867       30.3541740433      -24.7421970378  TIP3      6255            0.0000000000
     41085      6447  TIP3      H2            -17.4875063759       31.5549034459      -24.9803280318  TIP3      6255            0.0000000000
     41086      6448  TIP3      OH2           -12.3094810143       31.6601192897      -42.2128047763  TIP3      6256            0.0000000000
     41087      6448  TIP3      H1            -12.2506232761       30.8241007855      -41.7488043121  TIP3      6256            0.0000000000
     41088      6448  TIP3      H2            -11.7695214232       31.4520429641      -43.0012462746  TIP3      6256            0.0000000000
     41089      6449  TIP3      OH2           -10.0103104892       31.2329431078      -25.0024224302  TIP3      6257            0.0000000000
     41090      6449  TIP3      H1            -10.3748086355       31.5478228286      -25.8438485564  TIP3      6257            0.0000000000
     41091      6449  TIP3      H2             -9.9644062069       30.2546419800      -25.1108753360  TIP3      6257            0.0000000000
     41092      6450  TIP3      OH2            -4.3322327725       31.1064188429      -27.5982911579  TIP3      6258            0.0000000000
     41093      6450  TIP3      H1             -3.5489410882       31.6866320292      -27.7083822537  TIP3      6258            0.0000000000
     41094      6450  TIP3      H2             -5.0472135053       31.7558859993      -27.5807215362  TIP3      6258            0.0000000000
     41095      6451  TIP3      OH2           -15.9416428320       28.4717159191      -24.9982889558  TIP3      6259            0.0000000000
     41096      6451  TIP3      H1            -15.4066206539       27.6763625624      -25.1396542065  TIP3      6259            0.0000000000
     41097      6451  TIP3      H2            -16.0146642096       28.4970923975      -24.0400195018  TIP3      6259            0.0000000000
     41098      6452  TIP3      OH2           -11.1885926144       29.6502805914      -39.9472104637  TIP3      6260            0.0000000000
     41099      6452  TIP3      H1            -11.6975558934       29.1116682658      -39.3203953555  TIP3      6260            0.0000000000
     41100      6452  TIP3      H2            -10.8782863716       28.9586420839      -40.5806582885  TIP3      6260            0.0000000000
     41101      6453  TIP3      OH2           -11.9351199255       27.4157615258      -27.6490159177  TIP3      6261            0.0000000000
     41102      6453  TIP3      H1            -12.5282187314       28.1355937049      -27.3847263157  TIP3      6261            0.0000000000
     41103      6453  TIP3      H2            -11.5320050087       27.7940917941      -28.4479622469  TIP3      6261            0.0000000000
     41104      6454  TIP3      OH2           -10.1116754688       27.8693103366      -41.7529869413  TIP3      6262            0.0000000000
     41105      6454  TIP3      H1            -10.2125053073       27.6628018759      -42.6918503951  TIP3      6262            0.0000000000
     41106      6454  TIP3      H2             -9.1341471649       27.9312136724      -41.6355581616  TIP3      6262            0.0000000000
     41107      6455  TIP3      OH2            -6.8373275073       29.9616118496      -24.3584706063  TIP3      6263            0.0000000000
     41108      6455  TIP3      H1             -5.8775297671       30.0069114984      -24.3719076988  TIP3      6263            0.0000000000
     41109      6455  TIP3      H2             -7.0334423866       29.2668840176      -23.7181314068  TIP3      6263            0.0000000000
     41110      6456  TIP3      OH2            -0.9428321631       30.3067209863       42.7551097762  TIP3      6264            0.0000000000
     41111      6456  TIP3      H1             -1.0420505196       29.8085383442       41.9268245349  TIP3      6264            0.0000000000
     41112      6456  TIP3      H2             -0.7177160476       31.2045821844       42.4888001054  TIP3      6264            0.0000000000
     41113      6457  TIP3      OH2           -11.5177495242       24.8239240409      -26.6079227244  TIP3      6265            0.0000000000
     41114      6457  TIP3      H1            -11.4139548389       24.0949530147      -27.2478628722  TIP3      6265            0.0000000000
     41115      6457  TIP3      H2            -11.5858242561       25.6284163728      -27.1560859615  TIP3      6265            0.0000000000
     41116      6458  TIP3      OH2           -11.1200861270       23.1839969292      -29.0296978798  TIP3      6266            0.0000000000
     41117      6458  TIP3      H1            -10.6108930174       23.6461831574      -29.7348716650  TIP3      6266            0.0000000000
     41118      6458  TIP3      H2            -12.0152375622       23.1108402867      -29.4295135220  TIP3      6266            0.0000000000
     41119      6459  TIP3      OH2            -9.5901314928       28.6719327201      -28.8065317072  TIP3      6267            0.0000000000
     41120      6459  TIP3      H1             -8.8313899038       28.5132736382      -29.3769596726  TIP3      6267            0.0000000000
     41121      6459  TIP3      H2             -9.9532407197       29.5119860245      -29.1330247408  TIP3      6267            0.0000000000
     41122      6460  TIP3      OH2            -3.8423480769       29.2206781745      -25.7021439564  TIP3      6268            0.0000000000
     41123      6460  TIP3      H1             -4.0970346582       29.9634295685      -26.2908546324  TIP3      6268            0.0000000000
     41124      6460  TIP3      H2             -2.8798856227       29.1842931702      -25.8867587449  TIP3      6268            0.0000000000
     41125      6461  TIP3      OH2           -13.1115258003       26.0849724256      -24.6562636761  TIP3      6269            0.0000000000
     41126      6461  TIP3      H1            -13.8441437782       25.4622866105      -24.8111101593  TIP3      6269            0.0000000000
     41127      6461  TIP3      H2            -12.4251748984       25.7178766432      -25.2422922229  TIP3      6269            0.0000000000
     41128      6462  TIP3      OH2           -10.3400144476       20.6173345784      -28.6549840190  TIP3      6270            0.0000000000
     41129      6462  TIP3      H1            -10.5221400176       21.5795530193      -28.7571252369  TIP3      6270            0.0000000000
     41130      6462  TIP3      H2            -11.0868024692       20.2507194807      -29.1580883065  TIP3      6270            0.0000000000
     41131      6463  TIP3      OH2            -9.0681706702       24.9450730463      -25.0406847382  TIP3      6271            0.0000000000
     41132      6463  TIP3      H1             -9.3471244952       24.7409525006      -24.1331983678  TIP3      6271            0.0000000000
     41133      6463  TIP3      H2             -9.8824857753       24.7456748837      -25.5545581541  TIP3      6271            0.0000000000
     41134      6464  TIP3      OH2            -6.3463623212       24.1355986899      -25.8857491836  TIP3      6272            0.0000000000
     41135      6464  TIP3      H1             -7.3217923361       24.1528945438      -25.8472692577  TIP3      6272            0.0000000000
     41136      6464  TIP3      H2             -6.1342028939       23.4106864128      -25.2946766383  TIP3      6272            0.0000000000
     41137      6465  TIP3      OH2           -15.0005855453       23.9890440246      -24.9166031338  TIP3      6273            0.0000000000
     41138      6465  TIP3      H1            -14.7172683445       23.2801807808      -25.5183845851  TIP3      6273            0.0000000000
     41139      6465  TIP3      H2            -14.9601628406       23.5293485412      -24.0643287450  TIP3      6273            0.0000000000
     41140      6466  TIP3      OH2           -10.1081990680       20.0020267388      -25.9527810056  TIP3      6274            0.0000000000
     41141      6466  TIP3      H1             -9.4275288837       19.3100090829      -25.9606746590  TIP3      6274            0.0000000000
     41142      6466  TIP3      H2            -10.2372202378       20.1670034147      -26.8959921849  TIP3      6274            0.0000000000
     41143      6467  TIP3      OH2           -16.7001901061       33.0827244735      -41.1854449209  TIP3      6275            0.0000000000
     41144      6467  TIP3      H1            -15.7500458990       33.2188558996      -40.9823498863  TIP3      6275            0.0000000000
     41145      6467  TIP3      H2            -16.6494164265       32.5296050381      -41.9648059819  TIP3      6275            0.0000000000
     41146      6468  TIP3      OH2           -17.2335836957       36.6245695085      -34.3636505151  TIP3      6276            0.0000000000
     41147      6468  TIP3      H1            -17.5437352038       35.7351094699      -34.1348527456  TIP3      6276            0.0000000000
     41148      6468  TIP3      H2            -16.9476916144       36.9667896281      -33.5092007811  TIP3      6276            0.0000000000
     41149      6469  TIP3      OH2            -1.5574883984       32.7349089085      -23.7518513665  TIP3      6277            0.0000000000
     41150      6469  TIP3      H1             -2.4762935706       32.7197281083      -23.4444438690  TIP3      6277            0.0000000000
     41151      6469  TIP3      H2             -1.2021205201       33.5722260430      -23.3944824347  TIP3      6277            0.0000000000
     41152      6470  TIP3      OH2            -0.2422697288       31.0354295375      -38.3997459344  TIP3      6278            0.0000000000
     41153      6470  TIP3      H1              0.5789967166       31.4975201459      -38.1660198302  TIP3      6278            0.0000000000
     41154      6470  TIP3      H2             -0.2780976387       30.3577263251      -37.6922108696  TIP3      6278            0.0000000000
     41155      6471  TIP3      OH2             0.0939758840       29.1632399111      -36.4907600091  TIP3      6279            0.0000000000
     41156      6471  TIP3      H1             -0.6565431777       28.6502669099      -36.1124497145  TIP3      6279            0.0000000000
     41157      6471  TIP3      H2              0.6901600332       29.2870890387      -35.7242036918  TIP3      6279            0.0000000000
     41158      6472  TIP3      OH2            -0.1441902549       31.8570509635      -31.4806198748  TIP3      6280            0.0000000000
     41159      6472  TIP3      H1              0.6598271725       31.4798285410      -31.8802266128  TIP3      6280            0.0000000000
     41160      6472  TIP3      H2             -0.0081887901       32.8058288716      -31.6691912574  TIP3      6280            0.0000000000
     41161      6473  TIP3      OH2            -1.6297091214       34.7516482720      -29.2287577430  TIP3      6281            0.0000000000
     41162      6473  TIP3      H1             -2.2819825622       35.1226546098      -28.6263825153  TIP3      6281            0.0000000000
     41163      6473  TIP3      H2             -2.1705135603       34.3444264348      -29.9360627925  TIP3      6281            0.0000000000
     41164      6474  TIP3      OH2             0.3888278699       28.9744075184      -40.1268446068  TIP3      6282            0.0000000000
     41165      6474  TIP3      H1             -0.2068642371       29.3463755411      -40.8014690784  TIP3      6282            0.0000000000
     41166      6474  TIP3      H2              0.3181440753       29.6739081259      -39.4447883806  TIP3      6282            0.0000000000
     41167      6475  TIP3      OH2            -1.6289079512       26.2367856303      -41.4851288347  TIP3      6283            0.0000000000
     41168      6475  TIP3      H1             -1.1639786619       26.8234288158      -42.1058579877  TIP3      6283            0.0000000000
     41169      6475  TIP3      H2             -1.4377348247       25.3917011856      -41.9374910456  TIP3      6283            0.0000000000
     41170      6476  TIP3      OH2            -2.0794805206       27.6315061324      -35.9152904835  TIP3      6284            0.0000000000
     41171      6476  TIP3      H1             -2.2327948847       26.6761495452      -35.9661746012  TIP3      6284            0.0000000000
     41172      6476  TIP3      H2             -2.4071981465       27.8388248268      -35.0201532450  TIP3      6284            0.0000000000
     41173      6477  TIP3      OH2           -17.0848445033       29.7200144120      -31.8591934882  TIP3      6285            0.0000000000
     41174      6477  TIP3      H1            -16.9036461849       29.6330714261      -32.8224209455  TIP3      6285            0.0000000000
     41175      6477  TIP3      H2            -16.1883072062       29.5391541314      -31.5081687359  TIP3      6285            0.0000000000
     41176      6478  TIP3      OH2            -1.2425562224       29.5955181030      -26.1820006509  TIP3      6286            0.0000000000
     41177      6478  TIP3      H1             -0.6005924001       28.8589318500      -26.1010429284  TIP3      6286            0.0000000000
     41178      6478  TIP3      H2             -0.6421816310       30.3621992480      -26.2647228854  TIP3      6286            0.0000000000
     41179      6479  TIP3      OH2             0.2390120051       27.4646015163      -25.6526313748  TIP3      6287            0.0000000000
     41180      6479  TIP3      H1             -0.6218364488       27.0619882642      -25.7618547930  TIP3      6287            0.0000000000
     41181      6479  TIP3      H2              0.8376074921       26.6985263836      -25.6635002332  TIP3      6287            0.0000000000
     41182      6480  TIP3      OH2            -1.9758946957       23.6172327211      -42.4911637184  TIP3      6288            0.0000000000
     41183      6480  TIP3      H1             -1.4031239033       23.2063481321      -41.8103235846  TIP3      6288            0.0000000000
     41184      6480  TIP3      H2             -2.8688381270       23.3046028704      -42.2764205302  TIP3      6288            0.0000000000
     41185      6481  TIP3      OH2            -2.4170849446       25.2150841312      -37.4424695367  TIP3      6289            0.0000000000
     41186      6481  TIP3      H1             -2.1122577755       24.2845969063      -37.3355558591  TIP3      6289            0.0000000000
     41187      6481  TIP3      H2             -1.6389167559       25.6151681750      -37.8522401969  TIP3      6289            0.0000000000
     41188      6482  TIP3      OH2            -1.7733760693       25.7524530081      -32.0358993237  TIP3      6290            0.0000000000
     41189      6482  TIP3      H1             -0.8153810702       25.9883774823      -32.0331711230  TIP3      6290            0.0000000000
     41190      6482  TIP3      H2             -1.9669808509       25.8936841279      -31.0944760450  TIP3      6290            0.0000000000
     41191      6483  TIP3      OH2            -1.6969726231       26.4794125762      -29.2478136787  TIP3      6291            0.0000000000
     41192      6483  TIP3      H1             -2.5735120629       26.7586568867      -28.8913953194  TIP3      6291            0.0000000000
     41193      6483  TIP3      H2             -1.2781849884       27.3430780489      -29.4692838796  TIP3      6291            0.0000000000
     41194      6484  TIP3      OH2           -17.4501010751       25.0112330229      -25.6588559767  TIP3      6292            0.0000000000
     41195      6484  TIP3      H1            -16.5060868861       24.7741624159      -25.5220433389  TIP3      6292            0.0000000000
     41196      6484  TIP3      H2            -17.8889781327       24.1641284155      -25.4193857706  TIP3      6292            0.0000000000
     41197      6485  TIP3      OH2             0.5184187025       20.4909434986      -23.9169892843  TIP3      6293            0.0000000000
     41198      6485  TIP3      H1              0.9392392670       19.8521183886      -24.5124984581  TIP3      6293            0.0000000000
     41199      6485  TIP3      H2              0.6933654760       21.3337852124      -24.3725803542  TIP3      6293            0.0000000000
     41200      6486  TIP3      OH2            -1.7416932065       22.4890529478      -37.4206917997  TIP3      6294            0.0000000000
     41201      6486  TIP3      H1             -1.5280490704       22.0624210602      -36.5612319002  TIP3      6294            0.0000000000
     41202      6486  TIP3      H2             -2.3483786679       21.8569047590      -37.8576255487  TIP3      6294            0.0000000000
     41203      6487  TIP3      OH2           -16.2673852715       23.3078896521      -32.8476122795  TIP3      6295            0.0000000000
     41204      6487  TIP3      H1            -15.8014356668       22.4804585361      -32.6033827402  TIP3      6295            0.0000000000
     41205      6487  TIP3      H2            -15.7043005137       23.9975796305      -32.4699588436  TIP3      6295            0.0000000000
     41206      6488  TIP3      OH2           -17.9821046431       26.3066697422      -31.8111770326  TIP3      6296            0.0000000000
     41207      6488  TIP3      H1            -17.4199324227       26.0513890034      -32.5703834192  TIP3      6296            0.0000000000
     41208      6488  TIP3      H2            -17.5144381008       27.1111056634      -31.5460413708  TIP3      6296            0.0000000000
     41209      6489  TIP3      OH2             0.0607935922       22.6496712141      -25.5343115184  TIP3      6297            0.0000000000
     41210      6489  TIP3      H1             -0.8612776286       22.9040554751      -25.6675469415  TIP3      6297            0.0000000000
     41211      6489  TIP3      H2              0.1522159862       22.0826799466      -26.3198739532  TIP3      6297            0.0000000000
     41212      6490  TIP3      OH2             0.0682971534       22.5624982872      -40.8558143866  TIP3      6298            0.0000000000
     41213      6490  TIP3      H1              0.4980756601       21.8482586113      -41.3549093350  TIP3      6298            0.0000000000
     41214      6490  TIP3      H2              0.7961233254       23.2083175693      -40.8342378305  TIP3      6298            0.0000000000
     41215      6491  TIP3      OH2           -17.6150763377       22.5654583440      -37.7589905146  TIP3      6299            0.0000000000
     41216      6491  TIP3      H1            -18.5579575175       22.7557527239      -37.8759868442  TIP3      6299            0.0000000000
     41217      6491  TIP3      H2            -17.2032394859       23.0661978567      -38.4848958813  TIP3      6299            0.0000000000
     41218      6492  TIP3      OH2           -17.6671608502       21.2170556636      -29.4599607604  TIP3      6300            0.0000000000
     41219      6492  TIP3      H1            -18.3302808269       21.0311814196      -28.7730216094  TIP3      6300            0.0000000000
     41220      6492  TIP3      H2            -18.1301470553       21.9052331698      -29.9784324097  TIP3      6300            0.0000000000
     41221      6493  TIP3      OH2           -15.4426934876       34.4422492765      -25.2990085202  TIP3      6301            0.0000000000
     41222      6493  TIP3      H1            -16.3020527427       34.6268753964      -25.7307479281  TIP3      6301            0.0000000000
     41223      6493  TIP3      H2            -15.6896801399       34.3820090926      -24.3627967431  TIP3      6301            0.0000000000
     41224      6494  TIP3      OH2           -12.4928850337       35.4204263688      -28.9640421648  TIP3      6302            0.0000000000
     41225      6494  TIP3      H1            -12.9312907818       36.1993260237      -29.3267102815  TIP3      6302            0.0000000000
     41226      6494  TIP3      H2            -11.6099226642       35.4444035746      -29.3626405430  TIP3      6302            0.0000000000
     41227      6495  TIP3      OH2            -0.9084767431       20.7237441714      -27.6898358678  TIP3      6303            0.0000000000
     41228      6495  TIP3      H1             -1.7240047783       21.0081800645      -28.1313803158  TIP3      6303            0.0000000000
     41229      6495  TIP3      H2             -0.7198409564       19.9046053829      -28.2042081334  TIP3      6303            0.0000000000
     41230      6496  TIP3      OH2           -13.6026037071       35.9084457747      -33.6305672284  TIP3      6304            0.0000000000
     41231      6496  TIP3      H1            -13.7674592854       35.0382667936      -33.2301581898  TIP3      6304            0.0000000000
     41232      6496  TIP3      H2            -12.8433813934       36.1336881581      -33.0325128800  TIP3      6304            0.0000000000
     41233      6497  TIP3      OH2           -11.4308357626       35.9521691732      -32.3368447631  TIP3      6305            0.0000000000
     41234      6497  TIP3      H1            -10.8082456653       35.3488428898      -32.7694817615  TIP3      6305            0.0000000000
     41235      6497  TIP3      H2            -10.9649617565       36.3405005869      -31.5895157831  TIP3      6305            0.0000000000
     41236      6498  TIP3      OH2            -7.5075802229       22.1603415195      -33.4093606150  TIP3      6306            0.0000000000
     41237      6498  TIP3      H1             -8.1823338472       21.5212570153      -33.1239460562  TIP3      6306            0.0000000000
     41238      6498  TIP3      H2             -6.9545836822       21.6234640526      -33.9890543921  TIP3      6306            0.0000000000
     41239      6499  TIP3      OH2            -2.3701789239       20.2043992688      -33.3509991545  TIP3      6307            0.0000000000
     41240      6499  TIP3      H1             -1.7592447989       20.7997075595      -33.8535814621  TIP3      6307            0.0000000000
     41241      6499  TIP3      H2             -3.2542170363       20.5662722338      -33.5719445343  TIP3      6307            0.0000000000
     41242      6500  TIP3      OH2            -0.7046062307       21.4579734944      -35.0692776787  TIP3      6308            0.0000000000
     41243      6500  TIP3      H1             -0.0152945642       20.8791539300      -35.4753156692  TIP3      6308            0.0000000000
     41244      6500  TIP3      H2             -0.1929605015       22.2928129620      -34.9596070663  TIP3      6308            0.0000000000
     41245      6501  TIP3      OH2           -15.1354221083       20.7789044419      -35.5433632688  TIP3      6309            0.0000000000
     41246      6501  TIP3      H1            -15.9272523434       20.5941758939      -36.0854686016  TIP3      6309            0.0000000000
     41247      6501  TIP3      H2            -14.6782061303       19.9193619611      -35.6160526106  TIP3      6309            0.0000000000
     41248      6502  TIP3      OH2           -16.4022552087       20.5368296935      -39.8483452596  TIP3      6310            0.0000000000
     41249      6502  TIP3      H1            -15.8826948886       21.1780026644      -40.3777575557  TIP3      6310            0.0000000000
     41250      6502  TIP3      H2            -16.9290060037       21.1197790498      -39.2780738074  TIP3      6310            0.0000000000
     41251      6503  TIP3      OH2           -10.6699379053       20.7089529130      -35.7691188150  TIP3      6311            0.0000000000
     41252      6503  TIP3      H1             -9.7702690804       21.0671016224      -35.8501166312  TIP3      6311            0.0000000000
     41253      6503  TIP3      H2            -10.6981740216       20.4930731241      -34.8381674024  TIP3      6311            0.0000000000
     41254      6504  TIP3      OH2            -4.9452466882       20.7261332895      -34.1508821233  TIP3      6312            0.0000000000
     41255      6504  TIP3      H1             -5.0019345163       20.8476539924      -35.1063094260  TIP3      6312            0.0000000000
     41256      6504  TIP3      H2             -5.3263681510       19.8223745961      -34.0288417341  TIP3      6312            0.0000000000
     41257      6505  TIP3      OH2            -3.6790256430       20.7393728677      -38.5069804275  TIP3      6313            0.0000000000
     41258      6505  TIP3      H1             -4.4218800017       21.3471872794      -38.6431627428  TIP3      6313            0.0000000000
     41259      6505  TIP3      H2             -4.1241129769       19.8951065266      -38.2575339737  TIP3      6313            0.0000000000
     41260      6506  TIP3      OH2           -16.6868654296      -37.1425365672      -38.4469202076  TIP3      6314            0.0000000000
     41261      6506  TIP3      H1            -17.0495934738      -37.1145352409      -39.3544858442  TIP3      6314            0.0000000000
     41262      6506  TIP3      H2            -16.3584302247      -36.2421836156      -38.4032176121  TIP3      6314            0.0000000000
     41263      6507  TIP3      OH2           -14.5495035700       22.3881083174      -41.2943852561  TIP3      6315            0.0000000000
     41264      6507  TIP3      H1            -13.9955262739       21.8494658260      -41.8557594208  TIP3      6315            0.0000000000
     41265      6507  TIP3      H2            -13.8888897529       22.8228685003      -40.7235644093  TIP3      6315            0.0000000000
     41266      6508  TIP3      OH2            -9.5122837833       22.7257866898      -38.9198185071  TIP3      6316            0.0000000000
     41267      6508  TIP3      H1             -9.2464096230       22.1515686487      -38.1836549665  TIP3      6316            0.0000000000
     41268      6508  TIP3      H2             -9.4382345493       23.5927533213      -38.4571046621  TIP3      6316            0.0000000000
     41269      6509  TIP3      OH2           -15.2113099933       21.3319888501      -26.0575946379  TIP3      6317            0.0000000000
     41270      6509  TIP3      H1            -15.5973367685       20.5343571487      -25.6506806775  TIP3      6317            0.0000000000
     41271      6509  TIP3      H2            -14.2904811003       21.2869494435      -25.7528424993  TIP3      6317            0.0000000000
     41272      6510  TIP3      OH2            -4.8439694786       20.0327997071      -24.2970346689  TIP3      6318            0.0000000000
     41273      6510  TIP3      H1             -4.7645014067       19.4988423939      -23.5049542946  TIP3      6318            0.0000000000
     41274      6510  TIP3      H2             -3.9461069881       19.9646130761      -24.6825178770  TIP3      6318            0.0000000000
     41275      6511  TIP3      OH2            -1.7205982709       35.9799152623      -25.5170192857  TIP3      6319            0.0000000000
     41276      6511  TIP3      H1             -2.4136946362       35.8839120455      -26.1977318656  TIP3      6319            0.0000000000
     41277      6511  TIP3      H2             -1.6416931461       36.9391520575      -25.5239877611  TIP3      6319            0.0000000000
     41278      6512  TIP3      OH2            12.7990539687       29.9064896850      -35.7043777246  TIP3      6320            0.0000000000
     41279      6512  TIP3      H1             12.7888070337       30.8895564321      -35.7340375894  TIP3      6320            0.0000000000
     41280      6512  TIP3      H2             12.0765401960       29.6812708556      -36.3162598990  TIP3      6320            0.0000000000
     41281      6513  TIP3      OH2            11.6665353594       29.1866363104      -32.2035515503  TIP3      6321            0.0000000000
     41282      6513  TIP3      H1             11.6661034010       28.5418357959      -31.4857825008  TIP3      6321            0.0000000000
     41283      6513  TIP3      H2             11.3121538975       28.6701691597      -32.9487024100  TIP3      6321            0.0000000000
     41284      6514  TIP3      OH2             4.0296222669       28.8403127103      -30.6587132139  TIP3      6322            0.0000000000
     41285      6514  TIP3      H1              4.0875780577       28.1760560451      -29.9491985431  TIP3      6322            0.0000000000
     41286      6514  TIP3      H2              4.7533124213       29.4419817849      -30.4256511713  TIP3      6322            0.0000000000
     41287      6515  TIP3      OH2            15.3477191231       32.1137645489      -33.9080565639  TIP3      6323            0.0000000000
     41288      6515  TIP3      H1             14.9156057987       31.4124982390      -33.4225942231  TIP3      6323            0.0000000000
     41289      6515  TIP3      H2             15.3781864814       32.8313879713      -33.2531924643  TIP3      6323            0.0000000000
     41290      6516  TIP3      OH2             4.9850531150       33.3056530453      -32.1347874149  TIP3      6324            0.0000000000
     41291      6516  TIP3      H1              4.6459306650       32.4406564193      -32.4532887113  TIP3      6324            0.0000000000
     41292      6516  TIP3      H2              5.9300177684       33.0911984051      -32.0792797992  TIP3      6324            0.0000000000
     41293      6517  TIP3      OH2             1.5777597047       26.8564980681      -36.6584981279  TIP3      6325            0.0000000000
     41294      6517  TIP3      H1              1.1492839302       27.7317706340      -36.7141113388  TIP3      6325            0.0000000000
     41295      6517  TIP3      H2              1.0171477305       26.3226575970      -37.2383304173  TIP3      6325            0.0000000000
     41296      6518  TIP3      OH2             2.2891996965       29.0889015722      -34.5023101698  TIP3      6326            0.0000000000
     41297      6518  TIP3      H1              2.5677033366       28.2634361879      -34.0629397717  TIP3      6326            0.0000000000
     41298      6518  TIP3      H2              2.9790872997       29.1956381491      -35.1760000009  TIP3      6326            0.0000000000
     41299      6519  TIP3      OH2            10.0233974116       31.5428950807      -31.7080470741  TIP3      6327            0.0000000000
     41300      6519  TIP3      H1             10.3689463024       30.9482211169      -32.3894601014  TIP3      6327            0.0000000000
     41301      6519  TIP3      H2             10.8427300102       31.7434004231      -31.2228813025  TIP3      6327            0.0000000000
     41302      6520  TIP3      OH2            18.6396583522       23.1983500600      -30.9843251205  TIP3      6328            0.0000000000
     41303      6520  TIP3      H1             18.8028790471       23.8411665305      -30.2526555938  TIP3      6328            0.0000000000
     41304      6520  TIP3      H2             19.1861737548       23.6388741803      -31.6630619438  TIP3      6328            0.0000000000
     41305      6521  TIP3      OH2            13.1589503823       26.0314866950      -31.4002753742  TIP3      6329            0.0000000000
     41306      6521  TIP3      H1             13.3911560564       25.0873496635      -31.4146857557  TIP3      6329            0.0000000000
     41307      6521  TIP3      H2             13.0949228082       26.1899372351      -32.3618211430  TIP3      6329            0.0000000000
     41308      6522  TIP3      OH2             6.3113082723       24.1348649714      -34.2003968160  TIP3      6330            0.0000000000
     41309      6522  TIP3      H1              6.4294567212       24.9675325771      -34.6999088693  TIP3      6330            0.0000000000
     41310      6522  TIP3      H2              5.9219841908       23.5614411299      -34.8944629198  TIP3      6330            0.0000000000
     41311      6523  TIP3      OH2            14.0632875452       24.2512126996      -35.7807543101  TIP3      6331            0.0000000000
     41312      6523  TIP3      H1             14.7351569167       23.9025507469      -35.1604043652  TIP3      6331            0.0000000000
     41313      6523  TIP3      H2             14.6052066453       24.7810478795      -36.3923126841  TIP3      6331            0.0000000000
     41314      6524  TIP3      OH2             2.9435904680       26.5469329792      -33.4667812076  TIP3      6332            0.0000000000
     41315      6524  TIP3      H1              3.6105751722       26.0041811847      -33.0110467690  TIP3      6332            0.0000000000
     41316      6524  TIP3      H2              3.0499234369       26.2322029332      -34.3783715694  TIP3      6332            0.0000000000
     41317      6525  TIP3      OH2             8.0915222613       28.1067343428      -34.1463223066  TIP3      6333            0.0000000000
     41318      6525  TIP3      H1              8.7816661200       27.5309769367      -33.7741757621  TIP3      6333            0.0000000000
     41319      6525  TIP3      H2              7.5861022178       27.4510363680      -34.6635412313  TIP3      6333            0.0000000000
     41320      6526  TIP3      OH2            18.9908084181       24.5797256935      -28.7376277892  TIP3      6334            0.0000000000
     41321      6526  TIP3      H1             18.4835899620       25.4185518349      -28.8538700967  TIP3      6334            0.0000000000
     41322      6526  TIP3      H2             19.1253906067       24.5943883007      -27.7749358237  TIP3      6334            0.0000000000
     41323      6527  TIP3      OH2             5.2633277101       23.0760482975      -30.1382532998  TIP3      6335            0.0000000000
     41324      6527  TIP3      H1              4.9382684372       23.5880712071      -30.9140162656  TIP3      6335            0.0000000000
     41325      6527  TIP3      H2              4.5418805749       23.2595572735      -29.4875269491  TIP3      6335            0.0000000000
     41326      6528  TIP3      OH2            12.5223641223       32.5084815091      -36.6223882201  TIP3      6336            0.0000000000
     41327      6528  TIP3      H1             12.2515893363       32.2485029056      -37.5186759791  TIP3      6336            0.0000000000
     41328      6528  TIP3      H2             12.2370443834       33.4394400940      -36.5773294699  TIP3      6336            0.0000000000
     41329      6529  TIP3      OH2             7.7430946443       30.6547327169      -29.9164679495  TIP3      6337            0.0000000000
     41330      6529  TIP3      H1              7.0431525719       31.3065180735      -29.6878825821  TIP3      6337            0.0000000000
     41331      6529  TIP3      H2              8.4402643657       31.2660968433      -30.2180078095  TIP3      6337            0.0000000000
     41332      6530  TIP3      OH2            15.8759357281       23.5484834429      -33.8386892190  TIP3      6338            0.0000000000
     41333      6530  TIP3      H1             15.6511110102       22.7960806311      -33.2905625872  TIP3      6338            0.0000000000
     41334      6530  TIP3      H2             16.5444223503       24.0131374978      -33.3140492984  TIP3      6338            0.0000000000
     41335      6531  TIP3      OH2             4.8296731509       24.8757011838      -32.1015036702  TIP3      6339            0.0000000000
     41336      6531  TIP3      H1              5.4286534771       25.6005128318      -31.8353483907  TIP3      6339            0.0000000000
     41337      6531  TIP3      H2              5.3069057933       24.4906529300      -32.8835063872  TIP3      6339            0.0000000000
     41338      6532  TIP3      OH2             6.1977505394       32.6719563348      -29.0819840923  TIP3      6340            0.0000000000
     41339      6532  TIP3      H1              6.1471058457       33.5746811250      -29.4420332535  TIP3      6340            0.0000000000
     41340      6532  TIP3      H2              5.2935331019       32.6086416368      -28.6915101316  TIP3      6340            0.0000000000
     41341      6533  TIP3      OH2             2.2449390387       32.3470363309      -38.3058814297  TIP3      6341            0.0000000000
     41342      6533  TIP3      H1              2.0373702956       32.6617614701      -39.2098983702  TIP3      6341            0.0000000000
     41343      6533  TIP3      H2              2.3542918634       33.1720157339      -37.7928724538  TIP3      6341            0.0000000000
     41344      6534  TIP3      OH2            15.8919169785       33.9976424225      -31.5057347600  TIP3      6342            0.0000000000
     41345      6534  TIP3      H1             14.9135666549       34.0415923283      -31.4319020152  TIP3      6342            0.0000000000
     41346      6534  TIP3      H2             16.1491681684       34.8981695691      -31.7682695455  TIP3      6342            0.0000000000
     41347      6535  TIP3      OH2            16.2211790796       22.2298229473      -30.1782974636  TIP3      6343            0.0000000000
     41348      6535  TIP3      H1             15.4677872789       22.8450687555      -30.2325798333  TIP3      6343            0.0000000000
     41349      6535  TIP3      H2             16.8703522915       22.7468595874      -30.7044116398  TIP3      6343            0.0000000000
     41350      6536  TIP3      OH2             9.1602644827       20.3651442753      -32.6935372892  TIP3      6344            0.0000000000
     41351      6536  TIP3      H1              9.0093622297       19.4011739945      -32.7627787373  TIP3      6344            0.0000000000
     41352      6536  TIP3      H2              8.2841749684       20.6773046439      -32.3875600485  TIP3      6344            0.0000000000
     41353      6537  TIP3      OH2            14.1504293817       35.5334818135      -35.0468262869  TIP3      6345            0.0000000000
     41354      6537  TIP3      H1             14.6453193114       34.8842853234      -35.5821495390  TIP3      6345            0.0000000000
     41355      6537  TIP3      H2             14.5440609724       36.3500842922      -35.3608960166  TIP3      6345            0.0000000000
     41356      6538  TIP3      OH2            15.3688798682       33.6445514440      -36.4478023006  TIP3      6346            0.0000000000
     41357      6538  TIP3      H1             15.0512872918       32.9736861959      -37.0706485151  TIP3      6346            0.0000000000
     41358      6538  TIP3      H2             15.3776993323       33.1591593817      -35.6010699121  TIP3      6346            0.0000000000
     41359      6539  TIP3      OH2            16.9620297265       32.2795162516      -27.9525670511  TIP3      6347            0.0000000000
     41360      6539  TIP3      H1             17.1038710505       31.6066772555      -28.6532402059  TIP3      6347            0.0000000000
     41361      6539  TIP3      H2             17.2096657950       33.1053903554      -28.4002437504  TIP3      6347            0.0000000000
     41362      6540  TIP3      OH2            11.4651151125       29.2127768649      -38.1809660058  TIP3      6348            0.0000000000
     41363      6540  TIP3      H1             10.7620350612       29.7278907002      -38.6142382413  TIP3      6348            0.0000000000
     41364      6540  TIP3      H2             12.1631334574       29.2259672488      -38.8627814251  TIP3      6348            0.0000000000
     41365      6541  TIP3      OH2            11.5226681558       27.7658504307      -41.1422232206  TIP3      6349            0.0000000000
     41366      6541  TIP3      H1             12.1930987128       27.6564780881      -40.4474888304  TIP3      6349            0.0000000000
     41367      6541  TIP3      H2             11.7887038975       27.0196849910      -41.6905630787  TIP3      6349            0.0000000000
     41368      6542  TIP3      OH2            18.8776471378       28.5908917343      -29.8876715601  TIP3      6350            0.0000000000
     41369      6542  TIP3      H1             18.2115502984       29.3073105306      -29.8636541784  TIP3      6350            0.0000000000
     41370      6542  TIP3      H2             19.3532549326       28.8198965487      -30.7068729253  TIP3      6350            0.0000000000
     41371      6543  TIP3      OH2            14.9048317719       29.3683237520      -37.2529013341  TIP3      6351            0.0000000000
     41372      6543  TIP3      H1             14.1610541313       29.6098759983      -36.6467776882  TIP3      6351            0.0000000000
     41373      6543  TIP3      H2             15.3874911674       28.6993259106      -36.7385996789  TIP3      6351            0.0000000000
     41374      6544  TIP3      OH2            14.8394825941       27.5365862528      -28.1536943848  TIP3      6352            0.0000000000
     41375      6544  TIP3      H1             14.8424586944       28.3413090397      -27.6031949076  TIP3      6352            0.0000000000
     41376      6544  TIP3      H2             14.2102267974       27.8358824477      -28.8387630831  TIP3      6352            0.0000000000
     41377      6545  TIP3      OH2             6.5094664229       30.0236254374      -35.3407555486  TIP3      6353            0.0000000000
     41378      6545  TIP3      H1              6.2025687684       29.6459509951      -36.2005857709  TIP3      6353            0.0000000000
     41379      6545  TIP3      H2              7.1408237073       29.3379584467      -35.0185132872  TIP3      6353            0.0000000000
     41380      6546  TIP3      OH2             7.8641097309       33.3895580677      -32.6805575512  TIP3      6354            0.0000000000
     41381      6546  TIP3      H1              7.8585878564       32.8666835008      -33.4837049357  TIP3      6354            0.0000000000
     41382      6546  TIP3      H2              8.6380292724       33.0521615062      -32.1990706465  TIP3      6354            0.0000000000
     41383      6547  TIP3      OH2             6.8822159000       28.7339862199      -31.6547452397  TIP3      6355            0.0000000000
     41384      6547  TIP3      H1              7.3805975792       28.8725949053      -32.4881035102  TIP3      6355            0.0000000000
     41385      6547  TIP3      H2              7.2334569012       29.4591119606      -31.0895858698  TIP3      6355            0.0000000000
     41386      6548  TIP3      OH2            13.2610143233       34.3488187416      -30.9827272892  TIP3      6356            0.0000000000
     41387      6548  TIP3      H1             12.9359854149       34.9926701566      -30.3623135513  TIP3      6356            0.0000000000
     41388      6548  TIP3      H2             12.9975121787       33.4966951526      -30.5674343011  TIP3      6356            0.0000000000
     41389      6549  TIP3      OH2             7.8137318501       33.2583719107      -26.9825536647  TIP3      6357            0.0000000000
     41390      6549  TIP3      H1              7.3470527475       33.9464259525      -26.4718856984  TIP3      6357            0.0000000000
     41391      6549  TIP3      H2              7.1404384692       33.0054252454      -27.6668832686  TIP3      6357            0.0000000000
     41392      6550  TIP3      OH2            13.7826583559       28.5760995774      -39.5843776152  TIP3      6358            0.0000000000
     41393      6550  TIP3      H1             14.3353846341       28.7395938895      -38.7851119761  TIP3      6358            0.0000000000
     41394      6550  TIP3      H2             14.2043150180       29.0890469933      -40.2974426380  TIP3      6358            0.0000000000
     41395      6551  TIP3      OH2             4.7469677235       29.3550576155      -27.7880567524  TIP3      6359            0.0000000000
     41396      6551  TIP3      H1              4.7893495892       30.0436055735      -27.0854316748  TIP3      6359            0.0000000000
     41397      6551  TIP3      H2              3.8184950872       29.4661152314      -28.0612912794  TIP3      6359            0.0000000000
     41398      6552  TIP3      OH2            11.4585168807       35.2598298598      -36.0771633423  TIP3      6360            0.0000000000
     41399      6552  TIP3      H1             11.9847238750       35.6085941486      -35.3548029134  TIP3      6360            0.0000000000
     41400      6552  TIP3      H2             10.9735583332       36.0253883252      -36.4031102577  TIP3      6360            0.0000000000
     41401      6553  TIP3      OH2             6.0291010916       35.3033309002      -26.3254886831  TIP3      6361            0.0000000000
     41402      6553  TIP3      H1              5.9725772111       35.1309883487      -27.2841150887  TIP3      6361            0.0000000000
     41403      6553  TIP3      H2              5.1192955772       35.1109505943      -26.0149466152  TIP3      6361            0.0000000000
     41404      6554  TIP3      OH2            17.5035198958       20.2982029935      -39.6992945838  TIP3      6362            0.0000000000
     41405      6554  TIP3      H1             16.5481540325       20.3999196504      -39.4571676751  TIP3      6362            0.0000000000
     41406      6554  TIP3      H2             17.7191708064       21.1573234822      -40.1018564289  TIP3      6362            0.0000000000
     41407      6555  TIP3      OH2             5.4803981466       29.0559202095      -37.7307499012  TIP3      6363            0.0000000000
     41408      6555  TIP3      H1              5.2107596853       29.8274595112      -38.2675144521  TIP3      6363            0.0000000000
     41409      6555  TIP3      H2              4.8368334350       28.3859594202      -37.9741829774  TIP3      6363            0.0000000000
     41410      6556  TIP3      OH2            18.6357509248       34.6175460978      -41.3148227399  TIP3      6364            0.0000000000
     41411      6556  TIP3      H1             18.6987032803       35.5738709179      -41.2091262067  TIP3      6364            0.0000000000
     41412      6556  TIP3      H2             19.5602304272       34.3462540383      -41.4254862634  TIP3      6364            0.0000000000
     41413      6557  TIP3      OH2             1.5668032623       31.4918736691      -28.8369108898  TIP3      6365            0.0000000000
     41414      6557  TIP3      H1              1.1375803972       31.3945974208      -29.7040468980  TIP3      6365            0.0000000000
     41415      6557  TIP3      H2              1.6551013484       30.5457799558      -28.6060878132  TIP3      6365            0.0000000000
     41416      6558  TIP3      OH2             1.3865074967       34.2758135752      -32.1101724018  TIP3      6366            0.0000000000
     41417      6558  TIP3      H1              2.3373929963       34.1231770548      -32.0811781809  TIP3      6366            0.0000000000
     41418      6558  TIP3      H2              1.2802265282       35.0254610185      -31.5083589339  TIP3      6366            0.0000000000
     41419      6559  TIP3      OH2            19.5536022024       34.9107370349      -26.3086889297  TIP3      6367            0.0000000000
     41420      6559  TIP3      H1             19.4333397085       33.9600447512      -26.4242396117  TIP3      6367            0.0000000000
     41421      6559  TIP3      H2             18.6706092278       35.1814412489      -25.9696364849  TIP3      6367            0.0000000000
     41422      6560  TIP3      OH2            10.5093671597       34.5263892966      -27.5619469834  TIP3      6368            0.0000000000
     41423      6560  TIP3      H1             10.6304169659       35.2786723994      -26.9860409987  TIP3      6368            0.0000000000
     41424      6560  TIP3      H2              9.6871926144       34.0862071725      -27.2593143739  TIP3      6368            0.0000000000
     41425      6561  TIP3      OH2            16.7913302967       26.4031223906      -25.9851671334  TIP3      6369            0.0000000000
     41426      6561  TIP3      H1             16.2202270137       26.8433307478      -26.6303840899  TIP3      6369            0.0000000000
     41427      6561  TIP3      H2             16.7037771837       25.4664948494      -26.2092185026  TIP3      6369            0.0000000000
     41428      6562  TIP3      OH2             3.8773311601       32.7851352615      -27.8881099674  TIP3      6370            0.0000000000
     41429      6562  TIP3      H1              4.0775325794       32.4360056231      -26.9911554469  TIP3      6370            0.0000000000
     41430      6562  TIP3      H2              3.0102722116       32.3936429693      -28.1226573094  TIP3      6370            0.0000000000
     41431      6563  TIP3      OH2             6.5558367527       21.2860278817      -31.9390917493  TIP3      6371            0.0000000000
     41432      6563  TIP3      H1              5.6547148769       21.1491217616      -32.3092056204  TIP3      6371            0.0000000000
     41433      6563  TIP3      H2              6.3983361049       22.0992237783      -31.4453053524  TIP3      6371            0.0000000000
     41434      6564  TIP3      OH2            11.1762570052       20.9775068172      -28.5866737142  TIP3      6372            0.0000000000
     41435      6564  TIP3      H1             11.5786602392       20.5368458177      -27.8184965167  TIP3      6372            0.0000000000
     41436      6564  TIP3      H2             10.2165826861       20.7997134747      -28.4405381567  TIP3      6372            0.0000000000
     41437      6565  TIP3      OH2            14.4794247574       24.7659583520      -27.7213219622  TIP3      6373            0.0000000000
     41438      6565  TIP3      H1             13.9388657774       24.5644967089      -26.9142980053  TIP3      6373            0.0000000000
     41439      6565  TIP3      H2             14.3340712375       25.7123518945      -27.8969364897  TIP3      6373            0.0000000000
     41440      6566  TIP3      OH2            15.3062629515       29.6542854107      -41.7388039737  TIP3      6374            0.0000000000
     41441      6566  TIP3      H1             15.3082346447       29.4629939628      -42.6930368881  TIP3      6374            0.0000000000
     41442      6566  TIP3      H2             16.1761501100       30.0827844832      -41.6426608081  TIP3      6374            0.0000000000
     41443      6567  TIP3      OH2            10.3015078187       23.1679853625      -41.6974388921  TIP3      6375            0.0000000000
     41444      6567  TIP3      H1             10.4520175315       23.5386300959      -40.7833717829  TIP3      6375            0.0000000000
     41445      6567  TIP3      H2             10.6728301954       22.3156272564      -41.5694795898  TIP3      6375            0.0000000000
     41446      6568  TIP3      OH2             6.6797479918       26.2628950194      -30.6072561410  TIP3      6376            0.0000000000
     41447      6568  TIP3      H1              5.8494095838       26.2407681011      -30.0911696657  TIP3      6376            0.0000000000
     41448      6568  TIP3      H2              6.5940572406       27.1331763327      -31.0803591620  TIP3      6376            0.0000000000
     41449      6569  TIP3      OH2             6.6206700134       26.3501260974      -35.8320219754  TIP3      6377            0.0000000000
     41450      6569  TIP3      H1              5.6805648751       26.1095111290      -35.9660825272  TIP3      6377            0.0000000000
     41451      6569  TIP3      H2              7.0070625682       26.0671711814      -36.6950376441  TIP3      6377            0.0000000000
     41452      6570  TIP3      OH2            12.1754295731       26.8989565347      -37.0466611596  TIP3      6378            0.0000000000
     41453      6570  TIP3      H1             11.7346973018       27.6916047621      -37.4202148892  TIP3      6378            0.0000000000
     41454      6570  TIP3      H2             12.7736990302       26.6555476282      -37.7856138689  TIP3      6378            0.0000000000
     41455      6571  TIP3      OH2            11.2124411958       27.0510541278      -25.6564523652  TIP3      6379            0.0000000000
     41456      6571  TIP3      H1             10.6790285619       26.3190386490      -25.2658703022  TIP3      6379            0.0000000000
     41457      6571  TIP3      H2             12.0277787309       26.9865915460      -25.1064061116  TIP3      6379            0.0000000000
     41458      6572  TIP3      OH2            13.1728852147       26.3617185875      -34.2001324441  TIP3      6380            0.0000000000
     41459      6572  TIP3      H1             12.8789011335       26.9109185805      -34.9521278219  TIP3      6380            0.0000000000
     41460      6572  TIP3      H2             13.2638627023       25.5153929302      -34.6868564927  TIP3      6380            0.0000000000
     41461      6573  TIP3      OH2             4.3182513877       26.4646735838      -29.0053971690  TIP3      6381            0.0000000000
     41462      6573  TIP3      H1              4.3160899177       26.9306288948      -28.1503675485  TIP3      6381            0.0000000000
     41463      6573  TIP3      H2              3.8112586730       25.6594634899      -28.8040237052  TIP3      6381            0.0000000000
     41464      6574  TIP3      OH2             7.7830156586       24.1756881220      -41.8087083801  TIP3      6382            0.0000000000
     41465      6574  TIP3      H1              7.2891461016       23.4892196991      -41.3129784466  TIP3      6382            0.0000000000
     41466      6574  TIP3      H2              7.2062594946       24.5011141704      -42.4839842606  TIP3      6382            0.0000000000
     41467      6575  TIP3      OH2             0.9326606233       23.6014726541      -35.0163274454  TIP3      6383            0.0000000000
     41468      6575  TIP3      H1              1.6177477255       23.5630272069      -34.3185136312  TIP3      6383            0.0000000000
     41469      6575  TIP3      H2              1.3802959824       23.2313208532      -35.7997032360  TIP3      6383            0.0000000000
     41470      6576  TIP3      OH2             2.2108049896       24.3264516597      -39.6550106770  TIP3      6384            0.0000000000
     41471      6576  TIP3      H1              2.7142488575       24.9107156712      -40.2600366227  TIP3      6384            0.0000000000
     41472      6576  TIP3      H2              1.5342268104       24.9619492793      -39.3421750354  TIP3      6384            0.0000000000
     41473      6577  TIP3      OH2            12.3236523966       27.9416514479      -29.6743103844  TIP3      6385            0.0000000000
     41474      6577  TIP3      H1             12.7554301950       27.2705618523      -30.2489912789  TIP3      6385            0.0000000000
     41475      6577  TIP3      H2             11.9282409709       27.4070560399      -28.9727644027  TIP3      6385            0.0000000000
     41476      6578  TIP3      OH2             9.1410372277       23.9137177856      -34.7757668556  TIP3      6386            0.0000000000
     41477      6578  TIP3      H1              8.2006361408       23.9208718678      -34.4975517916  TIP3      6386            0.0000000000
     41478      6578  TIP3      H2              9.6339509115       23.7400617700      -33.9640349983  TIP3      6386            0.0000000000
     41479      6579  TIP3      OH2             3.9782871597       25.4591692180      -35.9371483725  TIP3      6387            0.0000000000
     41480      6579  TIP3      H1              3.1012376438       25.6205676447      -36.3442255497  TIP3      6387            0.0000000000
     41481      6579  TIP3      H2              4.2751883359       24.6372863344      -36.3687411385  TIP3      6387            0.0000000000
     41482      6580  TIP3      OH2             7.5800137099       25.5579220719      -38.2962671600  TIP3      6388            0.0000000000
     41483      6580  TIP3      H1              8.5563099356       25.5946472375      -38.1518245170  TIP3      6388            0.0000000000
     41484      6580  TIP3      H2              7.4147339741       26.1683365349      -39.0282270170  TIP3      6388            0.0000000000
     41485      6581  TIP3      OH2            13.5818456195       23.1310282079      -31.5722694619  TIP3      6389            0.0000000000
     41486      6581  TIP3      H1             12.8830021141       23.1974646763      -30.8913948258  TIP3      6389            0.0000000000
     41487      6581  TIP3      H2             13.0669823859       22.9095306829      -32.3664324690  TIP3      6389            0.0000000000
     41488      6582  TIP3      OH2             6.2747771941       26.7420917882      -40.7432169963  TIP3      6390            0.0000000000
     41489      6582  TIP3      H1              5.7502033143       26.3408604752      -41.4568703126  TIP3      6390            0.0000000000
     41490      6582  TIP3      H2              7.1377156734       26.8872106458      -41.1682216265  TIP3      6390            0.0000000000
     41491      6583  TIP3      OH2             4.4404470740       31.2859506223      -25.6661671141  TIP3      6391            0.0000000000
     41492      6583  TIP3      H1              5.1569828438       31.5150202805      -25.0592665073  TIP3      6391            0.0000000000
     41493      6583  TIP3      H2              3.6723116923       31.3887187733      -25.0605977688  TIP3      6391            0.0000000000
     41494      6584  TIP3      OH2            10.4368508710       26.6747255384      -32.9127147210  TIP3      6392            0.0000000000
     41495      6584  TIP3      H1             11.0390117040       26.1645183497      -33.4698412964  TIP3      6392            0.0000000000
     41496      6584  TIP3      H2             10.3177862398       26.1050241888      -32.1512906204  TIP3      6392            0.0000000000
     41497      6585  TIP3      OH2             5.4570202267       22.8140759574      -36.4733790995  TIP3      6393            0.0000000000
     41498      6585  TIP3      H1              5.1457848223       21.8924931216      -36.4957412871  TIP3      6393            0.0000000000
     41499      6585  TIP3      H2              6.2414593582       22.7502451309      -37.0392864982  TIP3      6393            0.0000000000
     41500      6586  TIP3      OH2             9.0682049483       24.9718458393      -30.4948085750  TIP3      6394            0.0000000000
     41501      6586  TIP3      H1              8.2808508816       25.5559710019      -30.5618973698  TIP3      6394            0.0000000000
     41502      6586  TIP3      H2              9.7435291401       25.3912076901      -29.9287691276  TIP3      6394            0.0000000000
     41503      6587  TIP3      OH2             9.6803054637       31.2053850000      -38.7874878397  TIP3      6395            0.0000000000
     41504      6587  TIP3      H1              8.8796772866       30.7491249990      -39.1293969175  TIP3      6395            0.0000000000
     41505      6587  TIP3      H2              9.4458225234       31.3469909893      -37.8498684173  TIP3      6395            0.0000000000
     41506      6588  TIP3      OH2            16.8733028217       30.4211299125      -30.0170505979  TIP3      6396            0.0000000000
     41507      6588  TIP3      H1             17.4249763057       30.9287117402      -30.6420315247  TIP3      6396            0.0000000000
     41508      6588  TIP3      H2             16.0078003137       30.4693780085      -30.4727692267  TIP3      6396            0.0000000000
     41509      6589  TIP3      OH2            14.0397032871       24.0765457113      -40.8881596782  TIP3      6397            0.0000000000
     41510      6589  TIP3      H1             13.0667330826       24.1083275866      -41.0357486212  TIP3      6397            0.0000000000
     41511      6589  TIP3      H2             13.9803913435       24.8338306549      -40.2673075208  TIP3      6397            0.0000000000
     41512      6590  TIP3      OH2            11.1786594141       31.5388037901      -27.5948510897  TIP3      6398            0.0000000000
     41513      6590  TIP3      H1             10.8358827318       31.0645309942      -26.8209160435  TIP3      6398            0.0000000000
     41514      6590  TIP3      H2             10.9093044593       32.4466201215      -27.4459504153  TIP3      6398            0.0000000000
     41515      6591  TIP3      OH2            14.2963216106       25.9716214074      -38.9363967456  TIP3      6399            0.0000000000
     41516      6591  TIP3      H1             15.1941331871       25.8438141093      -38.6030222171  TIP3      6399            0.0000000000
     41517      6591  TIP3      H2             14.3225885350       26.7475904369      -39.5115096774  TIP3      6399            0.0000000000
     41518      6592  TIP3      OH2             4.7871775651       30.6212580419      -33.0100684420  TIP3      6400            0.0000000000
     41519      6592  TIP3      H1              5.4696022974       30.5519838468      -33.7076876509  TIP3      6400            0.0000000000
     41520      6592  TIP3      H2              4.8437538961       29.7605594689      -32.5624499578  TIP3      6400            0.0000000000
     41521      6593  TIP3      OH2            11.7867098067       32.7025534193      -39.7481545043  TIP3      6401            0.0000000000
     41522      6593  TIP3      H1             11.4168592747       33.5414305063      -39.4260357861  TIP3      6401            0.0000000000
     41523      6593  TIP3      H2             11.0439294268       32.0887959125      -39.5729469261  TIP3      6401            0.0000000000
     41524      6594  TIP3      OH2             1.7773981504       29.0183410408      -27.7711932367  TIP3      6402            0.0000000000
     41525      6594  TIP3      H1              1.9382960305       28.5905131473      -26.9082395913  TIP3      6402            0.0000000000
     41526      6594  TIP3      H2              1.1463331179       28.4110363559      -28.1945248541  TIP3      6402            0.0000000000
     41527      6595  TIP3      OH2             8.7958123853       28.5738849531      -25.5922678413  TIP3      6403            0.0000000000
     41528      6595  TIP3      H1              8.4957240704       28.2872264923      -26.4542051223  TIP3      6403            0.0000000000
     41529      6595  TIP3      H2              9.7184581305       28.2570447920      -25.5349490927  TIP3      6403            0.0000000000
     41530      6596  TIP3      OH2            13.4606359939       34.0080975955      -27.6780926807  TIP3      6404            0.0000000000
     41531      6596  TIP3      H1             12.5141205678       34.0698851221      -27.8546914421  TIP3      6404            0.0000000000
     41532      6596  TIP3      H2             13.4287914019       34.1928611951      -26.7089866348  TIP3      6404            0.0000000000
     41533      6597  TIP3      OH2            19.1509974038       26.0967493381      -39.2262590010  TIP3      6405            0.0000000000
     41534      6597  TIP3      H1             18.5778486598       25.7901064771      -39.9486631237  TIP3      6405            0.0000000000
     41535      6597  TIP3      H2             19.2205447469       27.0407135999      -39.4886721808  TIP3      6405            0.0000000000
     41536      6598  TIP3      OH2            19.1352411248       31.9092933752      -26.4151883572  TIP3      6406            0.0000000000
     41537      6598  TIP3      H1             18.2431662307       32.1725303827      -26.7607458502  TIP3      6406            0.0000000000
     41538      6598  TIP3      H2             19.6708683586       31.9129694104      -27.2387736904  TIP3      6406            0.0000000000
     41539      6599  TIP3      OH2            17.5038203729       34.7653013079      -38.7312643343  TIP3      6407            0.0000000000
     41540      6599  TIP3      H1             17.0237341164       33.9763870043      -38.5217122913  TIP3      6407            0.0000000000
     41541      6599  TIP3      H2             17.7080723462       34.7312861056      -39.6782389965  TIP3      6407            0.0000000000
     41542      6600  TIP3      OH2            14.6414316190       29.7416811533      -31.7311171209  TIP3      6408            0.0000000000
     41543      6600  TIP3      H1             13.7033438686       29.5401732873      -31.8648618280  TIP3      6408            0.0000000000
     41544      6600  TIP3      H2             15.0741969914       28.9856172200      -32.1717756096  TIP3      6408            0.0000000000
     41545      6601  TIP3      OH2             7.1910496602       34.0395938887      -35.6814268646  TIP3      6409            0.0000000000
     41546      6601  TIP3      H1              7.6373085416       34.8704895281      -35.8553929363  TIP3      6409            0.0000000000
     41547      6601  TIP3      H2              6.2873280821       34.2657556470      -35.9393058059  TIP3      6409            0.0000000000
     41548      6602  TIP3      OH2             2.8838748770       28.9320779400      -41.1068774033  TIP3      6410            0.0000000000
     41549      6602  TIP3      H1              3.5080463540       29.5505029168      -40.6821894086  TIP3      6410            0.0000000000
     41550      6602  TIP3      H2              2.0162079946       29.2063113157      -40.7627598895  TIP3      6410            0.0000000000
     41551      6603  TIP3      OH2             8.5944657347       31.7356262071      -36.1045905470  TIP3      6411            0.0000000000
     41552      6603  TIP3      H1              8.2768082428       32.6595453665      -36.0440738171  TIP3      6411            0.0000000000
     41553      6603  TIP3      H2              7.8626286548       31.2644685564      -35.6607917992  TIP3      6411            0.0000000000
     41554      6604  TIP3      OH2             9.1880007492       35.6779553540      -29.9361363580  TIP3      6412            0.0000000000
     41555      6604  TIP3      H1              9.4330203650       36.6113049283      -30.0181554002  TIP3      6412            0.0000000000
     41556      6604  TIP3      H2              9.6310290597       35.4739818531      -29.0939652847  TIP3      6412            0.0000000000
     41557      6605  TIP3      OH2             6.9241078100      -36.7885410317      -36.9141378080  TIP3      6413            0.0000000000
     41558      6605  TIP3      H1              6.0915483090      -36.6566557282      -36.4606943242  TIP3      6413            0.0000000000
     41559      6605  TIP3      H2              7.4640805524      -36.1285962049      -36.4085921662  TIP3      6413            0.0000000000
     41560      6606  TIP3      OH2            12.5528295859       31.9156784957      -30.0818468357  TIP3      6414            0.0000000000
     41561      6606  TIP3      H1             12.2130675131       31.7026507848      -29.1855849329  TIP3      6414            0.0000000000
     41562      6606  TIP3      H2             13.1782296621       31.1937409609      -30.2586409650  TIP3      6414            0.0000000000
     41563      6607  TIP3      OH2            14.8454835698       32.8848644279      -40.9574553621  TIP3      6415            0.0000000000
     41564      6607  TIP3      H1             15.1483418003       32.5076448451      -40.1106339089  TIP3      6415            0.0000000000
     41565      6607  TIP3      H2             13.8849599120       32.7945345929      -40.8768217774  TIP3      6415            0.0000000000
     41566      6608  TIP3      OH2            15.3286524829       36.4328136928      -27.5929245759  TIP3      6416            0.0000000000
     41567      6608  TIP3      H1             14.6282326257       35.9548000445      -28.0583254337  TIP3      6416            0.0000000000
     41568      6608  TIP3      H2             15.4899883042       37.1817978083      -28.1921880025  TIP3      6416            0.0000000000
     41569      6609  TIP3      OH2             3.4479229926       23.7520967316      -28.1993429980  TIP3      6417            0.0000000000
     41570      6609  TIP3      H1              2.5438308559       24.1102682579      -28.2354835374  TIP3      6417            0.0000000000
     41571      6609  TIP3      H2              3.3039824995       22.9048858343      -27.7461457173  TIP3      6417            0.0000000000
     41572      6610  TIP3      OH2            15.6650881016       31.6015611291      -38.7355661912  TIP3      6418            0.0000000000
     41573      6610  TIP3      H1             15.4211990720       30.8041997643      -38.2209941609  TIP3      6418            0.0000000000
     41574      6610  TIP3      H2             16.6121750634       31.6810462193      -38.5368256692  TIP3      6418            0.0000000000
     41575      6611  TIP3      OH2             3.0448383211       35.4928657529      -29.7956325904  TIP3      6419            0.0000000000
     41576      6611  TIP3      H1              3.3470438307       34.5813823610      -29.7509509749  TIP3      6419            0.0000000000
     41577      6611  TIP3      H2              3.2318085690       35.8446862923      -28.9154932014  TIP3      6419            0.0000000000
     41578      6612  TIP3      OH2             7.8016578445       33.6214614593      -40.0811930821  TIP3      6420            0.0000000000
     41579      6612  TIP3      H1              8.0462299828       33.0643063313      -39.3320850533  TIP3      6420            0.0000000000
     41580      6612  TIP3      H2              7.8993119086       34.5237095228      -39.7326925071  TIP3      6420            0.0000000000
     41581      6613  TIP3      OH2             4.2767186188       30.8470837903      -39.6211358041  TIP3      6421            0.0000000000
     41582      6613  TIP3      H1              3.6258944468       31.2503488690      -39.0104845399  TIP3      6421            0.0000000000
     41583      6613  TIP3      H2              4.8445682548       31.6095259392      -39.8405184926  TIP3      6421            0.0000000000
     41584      6614  TIP3      OH2            12.0954144839       23.5475556305      -29.2087814464  TIP3      6422            0.0000000000
     41585      6614  TIP3      H1             12.8484601324       23.6052287933      -28.6029963478  TIP3      6422            0.0000000000
     41586      6614  TIP3      H2             11.7919040663       22.6327883317      -29.0395988050  TIP3      6422            0.0000000000
     41587      6615  TIP3      OH2            13.2645801965       22.8958281162      -38.0460754883  TIP3      6423            0.0000000000
     41588      6615  TIP3      H1             13.0353226627       23.4747528415      -38.8081623856  TIP3      6423            0.0000000000
     41589      6615  TIP3      H2             13.4798399113       23.6060840118      -37.4247518577  TIP3      6423            0.0000000000
     41590      6616  TIP3      OH2            10.5910478513       35.2655695719      -39.2923380490  TIP3      6424            0.0000000000
     41591      6616  TIP3      H1              9.7456295633       35.7365067121      -39.2778060721  TIP3      6424            0.0000000000
     41592      6616  TIP3      H2             11.1071149126       35.7559485778      -39.9704723955  TIP3      6424            0.0000000000
     41593      6617  TIP3      OH2             9.9608009456       24.9304837615      -37.2053243070  TIP3      6425            0.0000000000
     41594      6617  TIP3      H1             10.8404491446       25.3574163401      -37.3751094390  TIP3      6425            0.0000000000
     41595      6617  TIP3      H2              9.8830268946       24.7194689279      -36.2738596665  TIP3      6425            0.0000000000
     41596      6618  TIP3      OH2            10.6449919012       25.8453883674      -28.1248012943  TIP3      6426            0.0000000000
     41597      6618  TIP3      H1             10.8358793938       26.4422611150      -27.3566775917  TIP3      6426            0.0000000000
     41598      6618  TIP3      H2             11.3720006477       25.1970528733      -28.0539998391  TIP3      6426            0.0000000000
     41599      6619  TIP3      OH2            10.9893495385       21.8991535576      -36.4470557551  TIP3      6427            0.0000000000
     41600      6619  TIP3      H1             10.6494242044       22.5620589945      -35.8214332640  TIP3      6427            0.0000000000
     41601      6619  TIP3      H2             11.6713699122       22.4450502392      -36.9090206094  TIP3      6427            0.0000000000
     41602      6620  TIP3      OH2             8.0431312983      -37.0517269228      -39.3826404926  TIP3      6428            0.0000000000
     41603      6620  TIP3      H1              8.1178109080      -36.1968742005      -39.8066614362  TIP3      6428            0.0000000000
     41604      6620  TIP3      H2              7.6949453222      -36.8185981176      -38.4888287095  TIP3      6428            0.0000000000
     41605      6621  TIP3      OH2             6.6293171042       22.9876316564      -39.6838871799  TIP3      6429            0.0000000000
     41606      6621  TIP3      H1              6.6025716662       23.9119882685      -39.3717513441  TIP3      6429            0.0000000000
     41607      6621  TIP3      H2              7.5638147478       22.7767230470      -39.4465930600  TIP3      6429            0.0000000000
     41608      6622  TIP3      OH2            16.8284948643       23.6963965838      -27.3129681441  TIP3      6430            0.0000000000
     41609      6622  TIP3      H1             15.9234815883       24.0807800265      -27.4308214720  TIP3      6430            0.0000000000
     41610      6622  TIP3      H2             17.1792733363       23.7970920622      -28.2125263383  TIP3      6430            0.0000000000
     41611      6623  TIP3      OH2            15.4810633484       27.5374635210      -33.2697200238  TIP3      6431            0.0000000000
     41612      6623  TIP3      H1             14.6621289509       27.0912242023      -33.5656956647  TIP3      6431            0.0000000000
     41613      6623  TIP3      H2             15.9626356339       26.8396477095      -32.7765283070  TIP3      6431            0.0000000000
     41614      6624  TIP3      OH2             4.8971412365       33.3965752652      -40.6614114860  TIP3      6432            0.0000000000
     41615      6624  TIP3      H1              5.5175161143       34.0881570794      -40.4059366085  TIP3      6432            0.0000000000
     41616      6624  TIP3      H2              5.3940814390       33.0138052409      -41.4088441524  TIP3      6432            0.0000000000
     41617      6625  TIP3      OH2             3.2691247367       26.1328527842      -41.4958239153  TIP3      6433            0.0000000000
     41618      6625  TIP3      H1              3.2450608944       27.0992795967      -41.3866430582  TIP3      6433            0.0000000000
     41619      6625  TIP3      H2              2.4001584630       25.9435107780      -41.8696789062  TIP3      6433            0.0000000000
     41620      6626  TIP3      OH2             4.0341075520       20.9133342545      -32.8086315835  TIP3      6434            0.0000000000
     41621      6626  TIP3      H1              3.8421538781       20.9318564532      -33.7743724718  TIP3      6434            0.0000000000
     41622      6626  TIP3      H2              3.6199352162       20.0597725676      -32.5603130024  TIP3      6434            0.0000000000
     41623      6627  TIP3      OH2             3.0828029431       34.8043663454      -36.5769070245  TIP3      6435            0.0000000000
     41624      6627  TIP3      H1              2.1894071361       35.1891694357      -36.6757906329  TIP3      6435            0.0000000000
     41625      6627  TIP3      H2              3.4491714882       35.2739364680      -37.3371447807  TIP3      6435            0.0000000000
     41626      6628  TIP3      OH2             6.8575852408       35.9168576059      -23.7618082107  TIP3      6436            0.0000000000
     41627      6628  TIP3      H1              7.7446238147       35.6393659448      -23.5545416286  TIP3      6436            0.0000000000
     41628      6628  TIP3      H2              6.8987065810       35.9734836724      -24.7398402239  TIP3      6436            0.0000000000
     41629      6629  TIP3      OH2            11.2975122670       36.1010338344      -41.7019533730  TIP3      6437            0.0000000000
     41630      6629  TIP3      H1             10.5178923648       35.5373953008      -41.8654266441  TIP3      6437            0.0000000000
     41631      6629  TIP3      H2             11.8580697443       35.6773682806      -42.3763299734  TIP3      6437            0.0000000000
     41632      6630  TIP3      OH2            13.3757136415       34.6289898877      -25.1089435662  TIP3      6438            0.0000000000
     41633      6630  TIP3      H1             13.0262268323       33.8079788909      -24.7118744807  TIP3      6438            0.0000000000
     41634      6630  TIP3      H2             14.1189688916       34.8464655122      -24.5139949417  TIP3      6438            0.0000000000
     41635      6631  TIP3      OH2            15.6036789779       35.6682897649      -42.1924057672  TIP3      6439            0.0000000000
     41636      6631  TIP3      H1             15.8164865088       34.8701713050      -41.6818857439  TIP3      6439            0.0000000000
     41637      6631  TIP3      H2             16.4069891238       35.8237556033      -42.7099066345  TIP3      6439            0.0000000000
     41638      6632  TIP3      OH2             2.0848338283       31.2404666402      -24.4117581896  TIP3      6440            0.0000000000
     41639      6632  TIP3      H1              2.2580559755       30.3436831404      -24.7319517408  TIP3      6440            0.0000000000
     41640      6632  TIP3      H2              1.3524925812       31.5485131751      -24.9687035794  TIP3      6440            0.0000000000
     41641      6633  TIP3      OH2             6.5462596731       31.6601717491      -42.2128780832  TIP3      6441            0.0000000000
     41642      6633  TIP3      H1              6.6046370793       30.8232581779      -41.7525837225  TIP3      6441            0.0000000000
     41643      6633  TIP3      H2              7.0860329584       31.4518332904      -43.0014630581  TIP3      6441            0.0000000000
     41644      6634  TIP3      OH2             8.9087877930       31.2481288798      -25.0346416577  TIP3      6442            0.0000000000
     41645      6634  TIP3      H1              8.4593283288       31.5362346235      -25.8457668118  TIP3      6442            0.0000000000
     41646      6634  TIP3      H2              8.8822746840       30.2648108361      -25.0879739195  TIP3      6442            0.0000000000
     41647      6635  TIP3      OH2            14.5036974840       31.0956367709      -27.6185005303  TIP3      6443            0.0000000000
     41648      6635  TIP3      H1             15.2972033655       31.6717522329      -27.6808141219  TIP3      6443            0.0000000000
     41649      6635  TIP3      H2             13.8081364960       31.7655671053      -27.5740158172  TIP3      6443            0.0000000000
     41650      6636  TIP3      OH2             2.9267946312       28.4637180449      -25.0097696240  TIP3      6444            0.0000000000
     41651      6636  TIP3      H1              3.4710900495       27.6701154432      -25.1028247460  TIP3      6444            0.0000000000
     41652      6636  TIP3      H2              2.7888683753       28.5003245600      -24.0615438894  TIP3      6444            0.0000000000
     41653      6637  TIP3      OH2             7.6869158761       29.6417608810      -39.9351998504  TIP3      6445            0.0000000000
     41654      6637  TIP3      H1              7.1541899039       29.1088973526      -39.3247113921  TIP3      6445            0.0000000000
     41655      6637  TIP3      H2              7.9898478324       28.9507096141      -40.5756906369  TIP3      6445            0.0000000000
     41656      6638  TIP3      OH2             6.9557525406       27.3872974762      -27.7143369855  TIP3      6446            0.0000000000
     41657      6638  TIP3      H1              6.3672469149       28.0839237521      -27.3512139122  TIP3      6446            0.0000000000
     41658      6638  TIP3      H2              7.2790460840       27.8918877406      -28.4861817579  TIP3      6446            0.0000000000
     41659      6639  TIP3      OH2             8.7398982038       27.9109466907      -41.7638209810  TIP3      6447            0.0000000000
     41660      6639  TIP3      H1              8.6543741241       27.6343625667      -42.6836882588  TIP3      6447            0.0000000000
     41661      6639  TIP3      H2              9.7188265895       27.9135022467      -41.6174448198  TIP3      6447            0.0000000000
     41662      6640  TIP3      OH2            12.0040661421       30.0137488522      -24.2621181758  TIP3      6448            0.0000000000
     41663      6640  TIP3      H1             12.9621577898       29.9425660584      -24.3943262730  TIP3      6448            0.0000000000
     41664      6640  TIP3      H2             11.8285652327       29.2229535309      -23.7348040077  TIP3      6448            0.0000000000
     41665      6641  TIP3      OH2            17.9154659273       30.3086491862       42.7579962569  TIP3      6449            0.0000000000
     41666      6641  TIP3      H1             17.8050488693       29.8152685634       41.9293822570  TIP3      6449            0.0000000000
     41667      6641  TIP3      H2             18.1378657661       31.2058730140       42.4892176962  TIP3      6449            0.0000000000
     41668      6642  TIP3      OH2             7.4088431978       24.8082379308      -26.5886457814  TIP3      6450            0.0000000000
     41669      6642  TIP3      H1              7.3397125752       24.0440172781      -27.2070751682  TIP3      6450            0.0000000000
     41670      6642  TIP3      H2              7.0616688612       25.6102363310      -27.0287019606  TIP3      6450            0.0000000000
     41671      6643  TIP3      OH2             7.7144732444       23.3228317126      -29.0124411966  TIP3      6451            0.0000000000
     41672      6643  TIP3      H1              8.2429057388       23.5720406006      -29.8130231496  TIP3      6451            0.0000000000
     41673      6643  TIP3      H2              6.8463898165       23.0776363894      -29.4305317117  TIP3      6451            0.0000000000
     41674      6644  TIP3      OH2             9.2354633258       28.5978001155      -28.8604091966  TIP3      6452            0.0000000000
     41675      6644  TIP3      H1             10.0481566036       28.5475870016      -29.3754227359  TIP3      6452            0.0000000000
     41676      6644  TIP3      H2              8.9107226262       29.4925652875      -29.0974571256  TIP3      6452            0.0000000000
     41677      6645  TIP3      OH2            13.6479258935       26.4310558122      -23.9331990949  TIP3      6453            0.0000000000
     41678      6645  TIP3      H1             13.9041770686       25.5092463644      -23.8270279546  TIP3      6453            0.0000000000
     41679      6645  TIP3      H2             14.5020972562       26.8696459023      -23.7641482078  TIP3      6453            0.0000000000
     41680      6646  TIP3      OH2            14.9955068655       29.2147070287      -25.7325821753  TIP3      6454            0.0000000000
     41681      6646  TIP3      H1             14.7651191167       29.9669961469      -26.3171230603  TIP3      6454            0.0000000000
     41682      6646  TIP3      H2             15.9616117361       29.1830415653      -25.8687646274  TIP3      6454            0.0000000000
     41683      6647  TIP3      OH2             5.7652688309       26.0696017801      -24.6682762462  TIP3      6455            0.0000000000
     41684      6647  TIP3      H1              4.9952827822       25.4852223531      -24.8214499404  TIP3      6455            0.0000000000
     41685      6647  TIP3      H2              6.4333351789       25.6925291538      -25.2576953617  TIP3      6455            0.0000000000
     41686      6648  TIP3      OH2             8.5005177898       20.6203604991      -28.6372271941  TIP3      6456            0.0000000000
     41687      6648  TIP3      H1              8.3184933556       21.5694873376      -28.7678602538  TIP3      6456            0.0000000000
     41688      6648  TIP3      H2              7.7824405263       20.1978012455      -29.1531462047  TIP3      6456            0.0000000000
     41689      6649  TIP3      OH2             9.7928353623       24.9121103048      -25.0639073253  TIP3      6457            0.0000000000
     41690      6649  TIP3      H1              9.5284224202       24.7374960696      -24.1365444679  TIP3      6457            0.0000000000
     41691      6649  TIP3      H2              8.9626232069       24.7299815013      -25.5286775707  TIP3      6457            0.0000000000
     41692      6650  TIP3      OH2            12.4912233431       24.0387015077      -26.0139663454  TIP3      6458            0.0000000000
     41693      6650  TIP3      H1             11.5500064491       24.1487197085      -25.8021679012  TIP3      6458            0.0000000000
     41694      6650  TIP3      H2             12.7967690477       23.4853086411      -25.2605213279  TIP3      6458            0.0000000000
     41695      6651  TIP3      OH2            13.9606129807       22.7291646796      -24.0685930107  TIP3      6459            0.0000000000
     41696      6651  TIP3      H1             14.0850809143       21.7737205076      -23.9822437819  TIP3      6459            0.0000000000
     41697      6651  TIP3      H2             13.9063553232       23.0385372580      -23.1352677945  TIP3      6459            0.0000000000
     41698      6652  TIP3      OH2             3.9338130074       24.0037002698      -24.9321243587  TIP3      6460            0.0000000000
     41699      6652  TIP3      H1              4.1033287194       23.2441702129      -25.5139691852  TIP3      6460            0.0000000000
     41700      6652  TIP3      H2              3.8125157051       23.5491261899      -24.0720607020  TIP3      6460            0.0000000000
     41701      6653  TIP3      OH2             8.7371016759       20.0175293132      -25.9643960656  TIP3      6461            0.0000000000
     41702      6653  TIP3      H1              9.4031860888       19.3034373019      -25.9864571003  TIP3      6461            0.0000000000
     41703      6653  TIP3      H2              8.6273639207       20.1688817431      -26.9219238373  TIP3      6461            0.0000000000
     41704      6654  TIP3      OH2             9.1056487337       21.6427809984      -23.8504578487  TIP3      6462            0.0000000000
     41705      6654  TIP3      H1              8.9273632812       21.1068383617      -24.6614124038  TIP3      6462            0.0000000000
     41706      6654  TIP3      H2              8.4966780068       22.3975737006      -23.9285852848  TIP3      6462            0.0000000000
     41707      6655  TIP3      OH2             2.1555963693       33.0836107187      -41.1838314714  TIP3      6463            0.0000000000
     41708      6655  TIP3      H1              3.1055386326       33.2178324202      -40.9774891087  TIP3      6463            0.0000000000
     41709      6655  TIP3      H2              2.2074868640       32.5307441238      -41.9635220429  TIP3      6463            0.0000000000
     41710      6656  TIP3      OH2             1.6056360946       36.6289799534      -34.3618862399  TIP3      6464            0.0000000000
     41711      6656  TIP3      H1              1.3102701481       35.7352696173      -34.1333337272  TIP3      6464            0.0000000000
     41712      6656  TIP3      H2              1.9089586146       36.9668407362      -33.5104870902  TIP3      6464            0.0000000000
     41713      6657  TIP3      OH2            17.2643566293       32.7529017344      -23.8265234080  TIP3      6465            0.0000000000
     41714      6657  TIP3      H1             16.3872868429       32.7155296738      -23.4019647040  TIP3      6465            0.0000000000
     41715      6657  TIP3      H2             17.6600605721       33.5441751238      -23.3945785291  TIP3      6465            0.0000000000
     41716      6658  TIP3      OH2            18.6113751909       31.0339310272      -38.4005006482  TIP3      6466            0.0000000000
     41717      6658  TIP3      H1             19.4327094758       31.5012423272      -38.1654704527  TIP3      6466            0.0000000000
     41718      6658  TIP3      H2             18.5782120093       30.3566128629      -37.6929598846  TIP3      6466            0.0000000000
     41719      6659  TIP3      OH2            18.9476127845       29.1625010760      -36.4892391313  TIP3      6467            0.0000000000
     41720      6659  TIP3      H1             18.1957753063       28.6484367341      -36.1129696156  TIP3      6467            0.0000000000
     41721      6659  TIP3      H2             19.5465875245       29.2870304887      -35.7246111146  TIP3      6467            0.0000000000
     41722      6660  TIP3      OH2            18.7117564286       31.8591290073      -31.4826103829  TIP3      6468            0.0000000000
     41723      6660  TIP3      H1             19.5151360563       31.4791513927      -31.8824190319  TIP3      6468            0.0000000000
     41724      6660  TIP3      H2             18.8485969220       32.8067787566      -31.6700243550  TIP3      6468            0.0000000000
     41725      6661  TIP3      OH2            17.2311787933       34.7847342004      -29.2044981192  TIP3      6469            0.0000000000
     41726      6661  TIP3      H1             16.5634094531       35.1359336336      -28.6078812789  TIP3      6469            0.0000000000
     41727      6661  TIP3      H2             16.7021258464       34.3607146917      -29.9167614766  TIP3      6469            0.0000000000
     41728      6662  TIP3      OH2            19.1916470609       28.9454544895      -40.1051075022  TIP3      6470            0.0000000000
     41729      6662  TIP3      H1             18.6627411832       29.3566444734      -40.8093058775  TIP3      6470            0.0000000000
     41730      6662  TIP3      H2             19.1966059368       29.6751058115      -39.4506199931  TIP3      6470            0.0000000000
     41731      6663  TIP3      OH2            17.2326767306       26.2363623598      -41.4814636022  TIP3      6471            0.0000000000
     41732      6663  TIP3      H1             17.6913041481       26.8233537817      -42.1068068168  TIP3      6471            0.0000000000
     41733      6663  TIP3      H2             17.4134312425       25.3915502641      -41.9380040039  TIP3      6471            0.0000000000
     41734      6664  TIP3      OH2            16.7754804526       27.6310646318      -35.9117518328  TIP3      6472            0.0000000000
     41735      6664  TIP3      H1             16.6206661425       26.6760597276      -35.9713664390  TIP3      6472            0.0000000000
     41736      6664  TIP3      H2             16.4501018116       27.8381504207      -35.0205846414  TIP3      6472            0.0000000000
     41737      6665  TIP3      OH2             1.7806625405       29.7215622683      -31.8582886280  TIP3      6473            0.0000000000
     41738      6665  TIP3      H1              1.9533690475       29.6300951757      -32.8227027421  TIP3      6473            0.0000000000
     41739      6665  TIP3      H2              2.6736353552       29.5379993687      -31.5091873760  TIP3      6473            0.0000000000
     41740      6666  TIP3      OH2            17.6425251021       29.5829690909      -26.2703173510  TIP3      6474            0.0000000000
     41741      6666  TIP3      H1             18.2424032263       28.8331721739      -26.0819770559  TIP3      6474            0.0000000000
     41742      6666  TIP3      H2             18.2283710524       30.3688597018      -26.2384074028  TIP3      6474            0.0000000000
     41743      6667  TIP3      OH2            19.1922131457       27.4869296851      -25.6078806306  TIP3      6475            0.0000000000
     41744      6667  TIP3      H1             18.2793988914       27.1058974586      -25.6926248204  TIP3      6475            0.0000000000
     41745      6667  TIP3      H2             19.7085286377       26.6630182847      -25.6445389473  TIP3      6475            0.0000000000
     41746      6668  TIP3      OH2            16.8795688136       23.6075442982      -42.4997534857  TIP3      6476            0.0000000000
     41747      6668  TIP3      H1             17.4460739373       23.2113217742      -41.8101025876  TIP3      6476            0.0000000000
     41748      6668  TIP3      H2             15.9724401555       23.3458186256      -42.2501625724  TIP3      6476            0.0000000000
     41749      6669  TIP3      OH2            16.4676104340       25.2257322842      -37.4003548782  TIP3      6477            0.0000000000
     41750      6669  TIP3      H1             16.7307128369       24.2809141965      -37.3499813622  TIP3      6477            0.0000000000
     41751      6669  TIP3      H2             17.2157168226       25.6096387810      -37.8695262411  TIP3      6477            0.0000000000
     41752      6670  TIP3      OH2            17.0865932199       25.7224806360      -32.0079425538  TIP3      6478            0.0000000000
     41753      6670  TIP3      H1             18.0350515849       26.0007648738      -32.0388107963  TIP3      6478            0.0000000000
     41754      6670  TIP3      H2             16.8892932310       25.9262708692      -31.0802092558  TIP3      6478            0.0000000000
     41755      6671  TIP3      OH2            17.1402222140       26.4756788075      -29.2820969988  TIP3      6479            0.0000000000
     41756      6671  TIP3      H1             16.2787337747       26.7592439560      -28.9081461452  TIP3      6479            0.0000000000
     41757      6671  TIP3      H2             17.5838779220       27.3334850562      -29.4623477316  TIP3      6479            0.0000000000
     41758      6672  TIP3      OH2             1.4201127345       25.0121210856      -25.6991829972  TIP3      6480            0.0000000000
     41759      6672  TIP3      H1              2.3560675626       24.7910771582      -25.5191988279  TIP3      6480            0.0000000000
     41760      6672  TIP3      H2              0.9604164809       24.1898091718      -25.4293413724  TIP3      6480            0.0000000000
     41761      6673  TIP3      OH2            19.4099076821       20.4570327638      -23.9350048808  TIP3      6481            0.0000000000
     41762      6673  TIP3      H1             19.8229217750       19.8578479672      -24.5606974639  TIP3      6481            0.0000000000
     41763      6673  TIP3      H2             19.5092294898       21.3426052649      -24.3368459348  TIP3      6481            0.0000000000
     41764      6674  TIP3      OH2            17.1137980416       22.4878564640      -37.4229766639  TIP3      6482            0.0000000000
     41765      6674  TIP3      H1             17.3214701794       22.0583032920      -36.5664761049  TIP3      6482            0.0000000000
     41766      6674  TIP3      H2             16.4864037497       21.8752790470      -37.8649822552  TIP3      6482            0.0000000000
     41767      6675  TIP3      OH2             2.5971156959       23.3116652666      -32.8551105268  TIP3      6483            0.0000000000
     41768      6675  TIP3      H1              3.0510172619       22.4801791428      -32.6051466520  TIP3      6483            0.0000000000
     41769      6675  TIP3      H2              3.1534676129       23.9980587441      -32.4668926922  TIP3      6483            0.0000000000
     41770      6676  TIP3      OH2             0.8798731590       26.3121679848      -31.8213363345  TIP3      6484            0.0000000000
     41771      6676  TIP3      H1              1.4420636889       26.0581778696      -32.5814195287  TIP3      6484            0.0000000000
     41772      6676  TIP3      H2              1.3498607096       27.1145355519      -31.5530080961  TIP3      6484            0.0000000000
     41773      6677  TIP3      OH2            18.9527014239       22.6333627745      -25.5734159948  TIP3      6485            0.0000000000
     41774      6677  TIP3      H1             18.0181366983       22.9009892228      -25.6058796217  TIP3      6485            0.0000000000
     41775      6677  TIP3      H2             18.9846804798       22.0690547973      -26.3459775544  TIP3      6485            0.0000000000
     41776      6678  TIP3      OH2            18.9160583333       22.5642013770      -40.8413958010  TIP3      6486            0.0000000000
     41777      6678  TIP3      H1             19.3283658474       21.8522209980      -41.3523966558  TIP3      6486            0.0000000000
     41778      6678  TIP3      H2             19.6390162721       23.2117542475      -40.8368714133  TIP3      6486            0.0000000000
     41779      6679  TIP3      OH2             1.2420798768       22.5657136000      -37.7592519586  TIP3      6487            0.0000000000
     41780      6679  TIP3      H1              0.2990635253       22.7557530350      -37.8758883639  TIP3      6487            0.0000000000
     41781      6679  TIP3      H2              1.6524695589       23.0672791364      -38.4859248686  TIP3      6487            0.0000000000
     41782      6680  TIP3      OH2             1.1872403157       21.2224442611      -29.4533877483  TIP3      6488            0.0000000000
     41783      6680  TIP3      H1              0.5213473166       21.0378927447      -28.7680693745  TIP3      6488            0.0000000000
     41784      6680  TIP3      H2              0.7311063140       21.8997820765      -29.9903424344  TIP3      6488            0.0000000000
     41785      6681  TIP3      OH2             3.4006363541       34.5204281298      -25.2718018752  TIP3      6489            0.0000000000
     41786      6681  TIP3      H1              2.5466718055       34.6375485149      -25.7363222882  TIP3      6489            0.0000000000
     41787      6681  TIP3      H2              3.1685318591       34.3084785683      -24.3581455577  TIP3      6489            0.0000000000
     41788      6682  TIP3      OH2             6.3664547692       35.4234886235      -28.9637564883  TIP3      6490            0.0000000000
     41789      6682  TIP3      H1              5.9227143213       36.2010138939      -29.3247485042  TIP3      6490            0.0000000000
     41790      6682  TIP3      H2              7.2477175086       35.4561792293      -29.3662178538  TIP3      6490            0.0000000000
     41791      6683  TIP3      OH2            18.0271366924       20.7731829622      -27.6546304529  TIP3      6491            0.0000000000
     41792      6683  TIP3      H1             17.1076727257       21.0382652279      -27.8641016578  TIP3      6491            0.0000000000
     41793      6683  TIP3      H2             18.1666698797       19.8592463885      -27.9855285166  TIP3      6491            0.0000000000
     41794      6684  TIP3      OH2             5.2402457153       35.8936813100      -33.6207919637  TIP3      6492            0.0000000000
     41795      6684  TIP3      H1              5.0939619152       35.0242019630      -33.2164728877  TIP3      6492            0.0000000000
     41796      6684  TIP3      H2              6.0067230863       36.1428982136      -33.0413699442  TIP3      6492            0.0000000000
     41797      6685  TIP3      OH2             7.4282290122       35.9358857852      -32.3393412161  TIP3      6493            0.0000000000
     41798      6685  TIP3      H1              8.0536510577       35.3353146717      -32.7697310672  TIP3      6493            0.0000000000
     41799      6685  TIP3      H2              7.8854054979       36.3359677707      -31.5921817576  TIP3      6493            0.0000000000
     41800      6686  TIP3      OH2            11.3545889624       22.1711016945      -33.4308669369  TIP3      6494            0.0000000000
     41801      6686  TIP3      H1             10.6803290343       21.5339290384      -33.1317359887  TIP3      6494            0.0000000000
     41802      6686  TIP3      H2             11.9046400129       21.6226562460      -33.9992642816  TIP3      6494            0.0000000000
     41803      6687  TIP3      OH2            16.4962353682       20.2551154490      -33.2860001370  TIP3      6495            0.0000000000
     41804      6687  TIP3      H1             17.0976076159       20.7906842022      -33.8672681910  TIP3      6495            0.0000000000
     41805      6687  TIP3      H2             15.6036227072       20.5538205914      -33.5786068768  TIP3      6495            0.0000000000
     41806      6688  TIP3      OH2            18.1790931096       21.4325296265      -35.0196734096  TIP3      6496            0.0000000000
     41807      6688  TIP3      H1             18.8441345672       20.8759707506      -35.4883751557  TIP3      6496            0.0000000000
     41808      6688  TIP3      H2             18.6628298897       22.2913701292      -34.9779690331  TIP3      6496            0.0000000000
     41809      6689  TIP3      OH2             3.7195084282       20.7813527866      -35.5444020798  TIP3      6497            0.0000000000
     41810      6689  TIP3      H1              2.9281707358       20.5943571566      -36.0859454945  TIP3      6497            0.0000000000
     41811      6689  TIP3      H2              4.1760540327       19.9196308995      -35.6153517242  TIP3      6497            0.0000000000
     41812      6690  TIP3      OH2             2.4499940091       20.5291821544      -39.8722679139  TIP3      6498            0.0000000000
     41813      6690  TIP3      H1              2.9754743800       21.1782958195      -40.3836461082  TIP3      6498            0.0000000000
     41814      6690  TIP3      H2              1.9317301127       21.1086794489      -39.2845350218  TIP3      6498            0.0000000000
     41815      6691  TIP3      OH2             8.1865360922       20.7051660610      -35.7682395339  TIP3      6499            0.0000000000
     41816      6691  TIP3      H1              9.0838147789       21.0745654653      -35.8608853032  TIP3      6499            0.0000000000
     41817      6691  TIP3      H2              8.1646074237       20.4902869664      -34.8385541150  TIP3      6499            0.0000000000
     41818      6692  TIP3      OH2            13.9446238267       20.7079361176      -34.1242679811  TIP3      6500            0.0000000000
     41819      6692  TIP3      H1             13.8805309512       20.8451014190      -35.0758245281  TIP3      6500            0.0000000000
     41820      6692  TIP3      H2             13.5184908590       19.8213397437      -34.0344518536  TIP3      6500            0.0000000000
     41821      6693  TIP3      OH2            15.1617269735       20.7392348889      -38.5239157273  TIP3      6501            0.0000000000
     41822      6693  TIP3      H1             14.4314267247       21.3844554587      -38.6186458908  TIP3      6501            0.0000000000
     41823      6693  TIP3      H2             14.6995286345       19.9144205670      -38.2627327528  TIP3      6501            0.0000000000
     41824      6694  TIP3      OH2             2.1740494625      -37.1427828302      -38.4562355904  TIP3      6502            0.0000000000
     41825      6694  TIP3      H1              1.7990702654      -37.1184406675      -39.3580051032  TIP3      6502            0.0000000000
     41826      6694  TIP3      H2              2.4919640675      -36.2410967137      -38.4062345553  TIP3      6502            0.0000000000
     41827      6695  TIP3      OH2             4.3132954729       22.3841636833      -41.2953746345  TIP3      6503            0.0000000000
     41828      6695  TIP3      H1              4.8774866939       21.8566049468      -41.8562914891  TIP3      6503            0.0000000000
     41829      6695  TIP3      H2              4.9684721599       22.8244920353      -40.7218689244  TIP3      6503            0.0000000000
     41830      6696  TIP3      OH2             9.2199825828       22.6990934824      -38.8534912891  TIP3      6504            0.0000000000
     41831      6696  TIP3      H1              9.6326075896       22.1665510079      -38.1639305295  TIP3      6504            0.0000000000
     41832      6696  TIP3      H2              9.4600405643       23.5965221819      -38.5236176946  TIP3      6504            0.0000000000
     41833      6697  TIP3      OH2             3.5911642715       21.3166950026      -26.0993589101  TIP3      6505            0.0000000000
     41834      6697  TIP3      H1              3.2091678769       20.5070412715      -25.7100161598  TIP3      6505            0.0000000000
     41835      6697  TIP3      H2              4.5058685010       21.2598062021      -25.7385175327  TIP3      6505            0.0000000000
     41836      6698  TIP3      OH2             5.6273314665       20.6990553524      -24.4650076165  TIP3      6506            0.0000000000
     41837      6698  TIP3      H1              6.5138136699       20.3644262744      -24.7022247008  TIP3      6506            0.0000000000
     41838      6698  TIP3      H2              5.2561632965       19.8945590347      -24.0593229964  TIP3      6506            0.0000000000
     41839      6699  TIP3      OH2            14.0248228395       19.9043810341      -24.3550882181  TIP3      6507            0.0000000000
     41840      6699  TIP3      H1             14.1399582811       19.6601535448      -23.4368030690  TIP3      6507            0.0000000000
     41841      6699  TIP3      H2             14.9516328575       20.0123463733      -24.6560375778  TIP3      6507            0.0000000000
     41842      6700  TIP3      OH2            17.1016342241       35.9686361970      -25.5226783082  TIP3      6508            0.0000000000
     41843      6700  TIP3      H1             16.4331283139       35.8837723111      -26.2286646441  TIP3      6508            0.0000000000
     41844      6700  TIP3      H2             17.2326258663       36.9265735770      -25.5311928899  TIP3      6508            0.0000000000
     41845      6701  TIP3      OH2            31.6558174158       29.9042377232      -35.7048876767  TIP3      6509            0.0000000000
     41846      6701  TIP3      H1             31.6571975224       30.8885360171      -35.7316623109  TIP3      6509            0.0000000000
     41847      6701  TIP3      H2             30.9276522441       29.6889749429      -36.3090483165  TIP3      6509            0.0000000000
     41848      6702  TIP3      OH2            30.5223240309       29.1734910582      -32.2118328469  TIP3      6510            0.0000000000
     41849      6702  TIP3      H1             30.5009459871       28.5326090029      -31.4821791357  TIP3      6510            0.0000000000
     41850      6702  TIP3      H2             30.1732016569       28.6611437781      -32.9584607737  TIP3      6510            0.0000000000
     41851      6703  TIP3      OH2            22.8497928069       28.8589232539      -30.6267771445  TIP3      6511            0.0000000000
     41852      6703  TIP3      H1             22.9621996402       28.1558718535      -29.9570231692  TIP3      6511            0.0000000000
     41853      6703  TIP3      H2             23.6206921311       29.4173992087      -30.4389504049  TIP3      6511            0.0000000000
     41854      6704  TIP3      OH2            34.2219161407       32.0880789863      -33.8929196463  TIP3      6512            0.0000000000
     41855      6704  TIP3      H1             33.7861507276       31.3925056598      -33.4016267913  TIP3      6512            0.0000000000
     41856      6704  TIP3      H2             34.2944487339       32.7938649215      -33.2338939127  TIP3      6512            0.0000000000
     41857      6705  TIP3      OH2            23.8414906704       33.3046279976      -32.1292614243  TIP3      6513            0.0000000000
     41858      6705  TIP3      H1             23.5028465788       32.4412109172      -32.4493994599  TIP3      6513            0.0000000000
     41859      6705  TIP3      H2             24.7868378331       33.0901477992      -32.0789244690  TIP3      6513            0.0000000000
     41860      6706  TIP3      OH2            20.4322687170       26.8577776196      -36.6577075780  TIP3      6514            0.0000000000
     41861      6706  TIP3      H1             20.0002972072       27.7308572908      -36.7116610395  TIP3      6514            0.0000000000
     41862      6706  TIP3      H2             19.8776772827       26.3369393107      -37.2538540071  TIP3      6514            0.0000000000
     41863      6707  TIP3      OH2            21.1491894835       29.0845886839      -34.5025009138  TIP3      6515            0.0000000000
     41864      6707  TIP3      H1             21.4274332388       28.2605430458      -34.0595668524  TIP3      6515            0.0000000000
     41865      6707  TIP3      H2             21.8363797850       29.1950202784      -35.1783690358  TIP3      6515            0.0000000000
     41866      6708  TIP3      OH2            28.8770493742       31.5453755363      -31.7041695037  TIP3      6516            0.0000000000
     41867      6708  TIP3      H1             29.2206671823       30.9529203714      -32.3880798334  TIP3      6516            0.0000000000
     41868      6708  TIP3      H2             29.6977784534       31.7425146182      -31.2207494601  TIP3      6516            0.0000000000
     41869      6709  TIP3      OH2            32.0435911217       26.0487466379      -31.4208113612  TIP3      6517            0.0000000000
     41870      6709  TIP3      H1             32.2324942059       25.0937136799      -31.4089561612  TIP3      6517            0.0000000000
     41871      6709  TIP3      H2             31.9551094906       26.1815938598      -32.3836581698  TIP3      6517            0.0000000000
     41872      6710  TIP3      OH2            25.1709295728       24.1383348628      -34.2020746699  TIP3      6518            0.0000000000
     41873      6710  TIP3      H1             25.2837560693       24.9700782188      -34.6983897258  TIP3      6518            0.0000000000
     41874      6710  TIP3      H2             24.7773634922       23.5626055138      -34.8933179328  TIP3      6518            0.0000000000
     41875      6711  TIP3      OH2            32.9153109915       24.2409159617      -35.8173546891  TIP3      6519            0.0000000000
     41876      6711  TIP3      H1             33.5685381484       23.8980788158      -35.1603160104  TIP3      6519            0.0000000000
     41877      6711  TIP3      H2             33.4768648110       24.7884346188      -36.3803606324  TIP3      6519            0.0000000000
     41878      6712  TIP3      OH2            21.7972776943       26.5471907870      -33.4676464421  TIP3      6520            0.0000000000
     41879      6712  TIP3      H1             22.4667643565       26.0054791947      -33.0109640194  TIP3      6520            0.0000000000
     41880      6712  TIP3      H2             21.9062414621       26.2331111629      -34.3787153840  TIP3      6520            0.0000000000
     41881      6713  TIP3      OH2            26.9451511237       28.0954312626      -34.1090264727  TIP3      6521            0.0000000000
     41882      6713  TIP3      H1             27.6343457559       27.5143365504      -33.7470646399  TIP3      6521            0.0000000000
     41883      6713  TIP3      H2             26.4433519577       27.4502929638      -34.6477405119  TIP3      6521            0.0000000000
     41884      6714  TIP3      OH2            24.0893559123       23.0378657653      -30.1596891357  TIP3      6522            0.0000000000
     41885      6714  TIP3      H1             23.8063200432       23.6063889944      -30.9081781937  TIP3      6522            0.0000000000
     41886      6714  TIP3      H2             23.4089394603       23.2673020165      -29.4801457747  TIP3      6522            0.0000000000
     41887      6715  TIP3      OH2            31.3621133539       32.4914815118      -36.6174270411  TIP3      6523            0.0000000000
     41888      6715  TIP3      H1             31.1036739651       32.2434652998      -37.5198765830  TIP3      6523            0.0000000000
     41889      6715  TIP3      H2             31.0931541754       33.4272801805      -36.5785196121  TIP3      6523            0.0000000000
     41890      6716  TIP3      OH2            26.5912660890       30.6647710772      -29.9336143364  TIP3      6524            0.0000000000
     41891      6716  TIP3      H1             25.8978721761       31.3128777825      -29.6906043320  TIP3      6524            0.0000000000
     41892      6716  TIP3      H2             27.3031077247       31.2638746005      -30.2142580865  TIP3      6524            0.0000000000
     41893      6717  TIP3      OH2            34.5332759751       23.5336002715      -33.7833051777  TIP3      6525            0.0000000000
     41894      6717  TIP3      H1             34.4631374237       22.7447147136      -33.2520451787  TIP3      6525            0.0000000000
     41895      6717  TIP3      H2             35.2567057327       24.0186003818      -33.3288373743  TIP3      6525            0.0000000000
     41896      6718  TIP3      OH2            23.6572514097       24.8899116492      -32.1234131164  TIP3      6526            0.0000000000
     41897      6718  TIP3      H1             24.2822841200       25.5815988668      -31.8118405699  TIP3      6526            0.0000000000
     41898      6718  TIP3      H2             24.1740236149       24.4862291270      -32.8663749183  TIP3      6526            0.0000000000
     41899      6719  TIP3      OH2            25.0508297265       32.6702521416      -29.0889224093  TIP3      6527            0.0000000000
     41900      6719  TIP3      H1             25.0051489421       33.5775032683      -29.4341652268  TIP3      6527            0.0000000000
     41901      6719  TIP3      H2             24.1485771335       32.6142048129      -28.6987577304  TIP3      6527            0.0000000000
     41902      6720  TIP3      OH2            21.0009261651       32.4130757355      -38.2702548101  TIP3      6528            0.0000000000
     41903      6720  TIP3      H1             20.9059435301       32.6712690070      -39.2111988134  TIP3      6528            0.0000000000
     41904      6720  TIP3      H2             21.2162408671       33.2317856931      -37.7919774017  TIP3      6528            0.0000000000
     41905      6721  TIP3      OH2            34.6706375044       33.9379940763      -31.4638072511  TIP3      6529            0.0000000000
     41906      6721  TIP3      H1             33.6986234649       34.0383206768      -31.4056481403  TIP3      6529            0.0000000000
     41907      6721  TIP3      H2             34.9751255047       34.8119270275      -31.7593531168  TIP3      6529            0.0000000000
     41908      6722  TIP3      OH2            34.9788865846       22.3559180220      -30.2989168372  TIP3      6530            0.0000000000
     41909      6722  TIP3      H1             34.2256746929       22.9765948140      -30.2740484647  TIP3      6530            0.0000000000
     41910      6722  TIP3      H2             35.6687469886       22.8472668360      -30.7541426488  TIP3      6530            0.0000000000
     41911      6723  TIP3      OH2            28.0198994815       20.3713830644      -32.6963507406  TIP3      6531            0.0000000000
     41912      6723  TIP3      H1             27.8847993889       19.4068663069      -32.7694874121  TIP3      6531            0.0000000000
     41913      6723  TIP3      H2             27.1406013987       20.6747500581      -32.3881331408  TIP3      6531            0.0000000000
     41914      6724  TIP3      OH2            33.0353994417       35.5211651327      -35.0466269285  TIP3      6532            0.0000000000
     41915      6724  TIP3      H1             33.5196358017       34.8764317360      -35.5960688278  TIP3      6532            0.0000000000
     41916      6724  TIP3      H2             33.4115200907       36.3488124998      -35.3511063968  TIP3      6532            0.0000000000
     41917      6725  TIP3      OH2            34.2232337382       33.6272139227      -36.4633640934  TIP3      6533            0.0000000000
     41918      6725  TIP3      H1             33.9151127798       32.9526701603      -37.0814527207  TIP3      6533            0.0000000000
     41919      6725  TIP3      H2             34.2581602221       33.1460045753      -35.6145559703  TIP3      6533            0.0000000000
     41920      6726  TIP3      OH2            35.5853155575       32.3856551206      -27.8959200598  TIP3      6534            0.0000000000
     41921      6726  TIP3      H1             35.8990293335       31.6694465910      -28.4783300400  TIP3      6534            0.0000000000
     41922      6726  TIP3      H2             36.0387454923       33.1422319310      -28.3137900079  TIP3      6534            0.0000000000
     41923      6727  TIP3      OH2            30.2888578001       29.1692023271      -38.2085307681  TIP3      6535            0.0000000000
     41924      6727  TIP3      H1             29.5862362013       29.7258712321      -38.6057430123  TIP3      6535            0.0000000000
     41925      6727  TIP3      H2             31.0109977890       29.2585963869      -38.8579681088  TIP3      6535            0.0000000000
     41926      6728  TIP3      OH2            30.3758349552       27.7038889433      -41.1145528188  TIP3      6536            0.0000000000
     41927      6728  TIP3      H1             31.0910964415       27.6990360686      -40.4656816400  TIP3      6536            0.0000000000
     41928      6728  TIP3      H2             30.6926319192       27.0496385669      -41.7410909483  TIP3      6536            0.0000000000
     41929      6729  TIP3      OH2            33.7526620491       29.3990386817      -37.2796308261  TIP3      6537            0.0000000000
     41930      6729  TIP3      H1             33.0275078460       29.6366024496      -36.6588934855  TIP3      6537            0.0000000000
     41931      6729  TIP3      H2             34.2319625889       28.7333007277      -36.7327449781  TIP3      6537            0.0000000000
     41932      6730  TIP3      OH2            33.6249259759       27.5066085741      -28.1504250693  TIP3      6538            0.0000000000
     41933      6730  TIP3      H1             33.6906700948       28.3189776945      -27.6194375426  TIP3      6538            0.0000000000
     41934      6730  TIP3      H2             33.0463417238       27.8514668172      -28.8538303538  TIP3      6538            0.0000000000
     41935      6731  TIP3      OH2            25.3775517917       30.0304390811      -35.3287653308  TIP3      6539            0.0000000000
     41936      6731  TIP3      H1             25.0662298799       29.6543263913      -36.1943309556  TIP3      6539            0.0000000000
     41937      6731  TIP3      H2             25.9959607536       29.3376020245      -35.0105705493  TIP3      6539            0.0000000000
     41938      6732  TIP3      OH2            26.7070515911       33.3898798451      -32.6732003816  TIP3      6540            0.0000000000
     41939      6732  TIP3      H1             26.7117074552       32.8705503763      -33.4805239822  TIP3      6540            0.0000000000
     41940      6732  TIP3      H2             27.4878017960       33.0573375664      -32.1968010979  TIP3      6540            0.0000000000
     41941      6733  TIP3      OH2            25.6995804507       28.7768662663      -31.6837137083  TIP3      6541            0.0000000000
     41942      6733  TIP3      H1             26.2512586866       28.8696013898      -32.4868675826  TIP3      6541            0.0000000000
     41943      6733  TIP3      H2             26.0987670731       29.4409088784      -31.0773733927  TIP3      6541            0.0000000000
     41944      6734  TIP3      OH2            32.0856350594       34.3626476287      -30.9782950956  TIP3      6542            0.0000000000
     41945      6734  TIP3      H1             31.8019233998       34.9828190436      -30.3208709938  TIP3      6542            0.0000000000
     41946      6734  TIP3      H2             31.8637741950       33.4981665515      -30.5671164459  TIP3      6542            0.0000000000
     41947      6735  TIP3      OH2            26.6523433009       33.2366579614      -26.9567013584  TIP3      6543            0.0000000000
     41948      6735  TIP3      H1             26.2378782950       33.9752725058      -26.4654984216  TIP3      6543            0.0000000000
     41949      6735  TIP3      H2             25.9969421227       33.0179475416      -27.6647621652  TIP3      6543            0.0000000000
     41950      6736  TIP3      OH2            32.6988495105       28.5230247476      -39.6160355907  TIP3      6544            0.0000000000
     41951      6736  TIP3      H1             33.1864152606       28.7721599571      -38.7938436435  TIP3      6544            0.0000000000
     41952      6736  TIP3      H2             33.0552939288       29.1103646161      -40.3128586682  TIP3      6544            0.0000000000
     41953      6737  TIP3      OH2            23.5834628243       29.3450368312      -27.7976982669  TIP3      6545            0.0000000000
     41954      6737  TIP3      H1             23.6795442108       30.0374893118      -27.1215169877  TIP3      6545            0.0000000000
     41955      6737  TIP3      H2             22.6654830571       29.4761218799      -28.0794497170  TIP3      6545            0.0000000000
     41956      6738  TIP3      OH2            30.3185700266       35.2612646062      -36.0795643732  TIP3      6546            0.0000000000
     41957      6738  TIP3      H1             30.8389422362       35.6112117827      -35.3565120140  TIP3      6546            0.0000000000
     41958      6738  TIP3      H2             29.8270161958       36.0233395195      -36.4036234897  TIP3      6546            0.0000000000
     41959      6739  TIP3      OH2            24.8387147307       35.2629731890      -26.2811599299  TIP3      6547            0.0000000000
     41960      6739  TIP3      H1             24.8613755085       35.1261692928      -27.2476937069  TIP3      6547            0.0000000000
     41961      6739  TIP3      H2             23.9140080099       35.0897162680      -26.0425857586  TIP3      6547            0.0000000000
     41962      6740  TIP3      OH2            36.1151556834       20.2164610882      -39.7912504155  TIP3      6548            0.0000000000
     41963      6740  TIP3      H1             35.2373699985       20.4672581575      -39.4396794873  TIP3      6548            0.0000000000
     41964      6740  TIP3      H2             36.4548626051       21.0417431861      -40.1347528213  TIP3      6548            0.0000000000
     41965      6741  TIP3      OH2            24.3029918427       29.0766294335      -37.6655045979  TIP3      6549            0.0000000000
     41966      6741  TIP3      H1             24.0842597361       29.8109125006      -38.2867741094  TIP3      6549            0.0000000000
     41967      6741  TIP3      H2             23.7201442590       28.3905003856      -38.0013676018  TIP3      6549            0.0000000000
     41968      6742  TIP3      OH2            20.4220325139       31.4892527184      -28.8388874871  TIP3      6550            0.0000000000
     41969      6742  TIP3      H1             19.9883007584       31.4070202260      -29.7071342033  TIP3      6550            0.0000000000
     41970      6742  TIP3      H2             20.5158607890       30.5400640304      -28.6288138055  TIP3      6550            0.0000000000
     41971      6743  TIP3      OH2            20.2467455309       34.2756065506      -32.1073118195  TIP3      6551            0.0000000000
     41972      6743  TIP3      H1             21.1979590159       34.1239190245      -32.0859582674  TIP3      6551            0.0000000000
     41973      6743  TIP3      H2             20.1392053261       35.0266881258      -31.5071139237  TIP3      6551            0.0000000000
     41974      6744  TIP3      OH2            29.3498602094       34.5389751121      -27.5779220473  TIP3      6552            0.0000000000
     41975      6744  TIP3      H1             29.4966010411       35.2550002631      -26.9505714980  TIP3      6552            0.0000000000
     41976      6744  TIP3      H2             28.5588758270       34.1040480454      -27.2073351411  TIP3      6552            0.0000000000
     41977      6745  TIP3      OH2            35.2871253157       26.4811171278      -25.8503281373  TIP3      6553            0.0000000000
     41978      6745  TIP3      H1             35.0703433819       26.8578256156      -26.7051097652  TIP3      6553            0.0000000000
     41979      6745  TIP3      H2             35.6575357308       25.6068923247      -26.1206301115  TIP3      6553            0.0000000000
     41980      6746  TIP3      OH2            22.7226327325       32.8071052369      -27.8798916202  TIP3      6554            0.0000000000
     41981      6746  TIP3      H1             22.9466946190       32.4141337641      -27.0141825713  TIP3      6554            0.0000000000
     41982      6746  TIP3      H2             21.8668930922       32.3951038239      -28.1301752535  TIP3      6554            0.0000000000
     41983      6747  TIP3      OH2            25.4089235730       21.2750504198      -31.9450494767  TIP3      6555            0.0000000000
     41984      6747  TIP3      H1             24.5072440519       21.1481226925      -32.3156070391  TIP3      6555            0.0000000000
     41985      6747  TIP3      H2             25.2701598336       22.1036977699      -31.4570004883  TIP3      6555            0.0000000000
     41986      6748  TIP3      OH2            30.0414661636       20.9313321822      -28.5903571895  TIP3      6556            0.0000000000
     41987      6748  TIP3      H1             30.4354725993       20.5324764305      -27.7933888798  TIP3      6556            0.0000000000
     41988      6748  TIP3      H2             29.0704304395       20.8269042563      -28.4338179489  TIP3      6556            0.0000000000
     41989      6749  TIP3      OH2            33.2922384575       24.7824593541      -27.6925994644  TIP3      6557            0.0000000000
     41990      6749  TIP3      H1             32.7792272600       24.6038927828      -26.8702519952  TIP3      6557            0.0000000000
     41991      6749  TIP3      H2             33.1537689117       25.7288633070      -27.8784122130  TIP3      6557            0.0000000000
     41992      6750  TIP3      OH2            34.2027749274       29.5985565302      -41.7567992652  TIP3      6558            0.0000000000
     41993      6750  TIP3      H1             34.1637243139       29.4890937989      -42.7223291570  TIP3      6558            0.0000000000
     41994      6750  TIP3      H2             34.9989172452       30.1258963881      -41.6715197263  TIP3      6558            0.0000000000
     41995      6751  TIP3      OH2            29.6976211985       23.5185231853      -41.2331228256  TIP3      6559            0.0000000000
     41996      6751  TIP3      H1             29.3692957228       23.4647981458      -40.3184917456  TIP3      6559            0.0000000000
     41997      6751  TIP3      H2             29.4171380168       22.6429515504      -41.5300578324  TIP3      6559            0.0000000000
     41998      6752  TIP3      OH2            25.5116465084       26.2511589824      -30.6707709299  TIP3      6560            0.0000000000
     41999      6752  TIP3      H1             24.7692458995       26.2465262379      -30.0389545804  TIP3      6560            0.0000000000
     42000      6752  TIP3      H2             25.4612977075       27.1528860477      -31.0617422970  TIP3      6560            0.0000000000
     42001      6753  TIP3      OH2            25.4719695847       26.3572695944      -35.8317275342  TIP3      6561            0.0000000000
     42002      6753  TIP3      H1             24.5311430456       26.1117042706      -35.9604270136  TIP3      6561            0.0000000000
     42003      6753  TIP3      H2             25.8396044785       26.0931718741      -36.7008567878  TIP3      6561            0.0000000000
     42004      6754  TIP3      OH2            31.0139355197       26.8593223145      -37.0744588159  TIP3      6562            0.0000000000
     42005      6754  TIP3      H1             30.5914862391       27.6850036876      -37.4048869474  TIP3      6562            0.0000000000
     42006      6754  TIP3      H2             31.6841643079       26.6997370723      -37.7595435425  TIP3      6562            0.0000000000
     42007      6755  TIP3      OH2            30.1039120482       27.0294306431      -25.6896007542  TIP3      6563            0.0000000000
     42008      6755  TIP3      H1             29.5411494059       26.3156267601      -25.3195012476  TIP3      6563            0.0000000000
     42009      6755  TIP3      H2             30.8769438005       27.0021946356      -25.1017944061  TIP3      6563            0.0000000000
     42010      6756  TIP3      OH2            32.0186722536       26.3816929417      -34.1964688118  TIP3      6564            0.0000000000
     42011      6756  TIP3      H1             31.7436920747       26.9292696226      -34.9490605135  TIP3      6564            0.0000000000
     42012      6756  TIP3      H2             32.1108831833       25.5230799098      -34.6620793426  TIP3      6564            0.0000000000
     42013      6757  TIP3      OH2            23.1219540677       26.4964751695      -29.0087389980  TIP3      6565            0.0000000000
     42014      6757  TIP3      H1             23.2343455345       26.8832132442      -28.1211009074  TIP3      6565            0.0000000000
     42015      6757  TIP3      H2             22.6907098209       25.6531838805      -28.7980191215  TIP3      6565            0.0000000000
     42016      6758  TIP3      OH2            26.6972312837       24.0672810630      -41.8386871156  TIP3      6566            0.0000000000
     42017      6758  TIP3      H1             26.1179006787       23.4971650174      -41.2963994098  TIP3      6566            0.0000000000
     42018      6758  TIP3      H2             26.0922383097       24.5443191420      -42.4191592355  TIP3      6566            0.0000000000
     42019      6759  TIP3      OH2            19.7885664604       23.6014157985      -35.0189619014  TIP3      6567            0.0000000000
     42020      6759  TIP3      H1             20.4711367288       23.5613447017      -34.3193676084  TIP3      6567            0.0000000000
     42021      6759  TIP3      H2             20.2380004732       23.2320917783      -35.8008796623  TIP3      6567            0.0000000000
     42022      6760  TIP3      OH2            21.0981274092       24.3527850056      -39.6345320017  TIP3      6568            0.0000000000
     42023      6760  TIP3      H1             21.5883751580       24.9273918661      -40.2584121082  TIP3      6568            0.0000000000
     42024      6760  TIP3      H2             20.3951691174       24.9764251998      -39.3555807118  TIP3      6568            0.0000000000
     42025      6761  TIP3      OH2            31.2198574586       27.9342571499      -29.6731387842  TIP3      6569            0.0000000000
     42026      6761  TIP3      H1             31.6127875547       27.2383523002      -30.2448334402  TIP3      6569            0.0000000000
     42027      6761  TIP3      H2             30.7560472095       27.4123693139      -28.9939764101  TIP3      6569            0.0000000000
     42028      6762  TIP3      OH2            28.0169680887       23.9262466858      -34.8122259125  TIP3      6570            0.0000000000
     42029      6762  TIP3      H1             27.0827693546       23.9214109913      -34.5256700976  TIP3      6570            0.0000000000
     42030      6762  TIP3      H2             28.5009211586       23.7445159255      -33.9961036286  TIP3      6570            0.0000000000
     42031      6763  TIP3      OH2            22.8275373930       25.4647127168      -35.9497976995  TIP3      6571            0.0000000000
     42032      6763  TIP3      H1             21.9465443060       25.6232514541      -36.3465950154  TIP3      6571            0.0000000000
     42033      6763  TIP3      H2             23.1137494302       24.6334632155      -36.3638164828  TIP3      6571            0.0000000000
     42034      6764  TIP3      OH2            26.4682328652       25.5231556505      -38.3195296630  TIP3      6572            0.0000000000
     42035      6764  TIP3      H1             27.4212219420       25.6530883820      -38.1682464587  TIP3      6572            0.0000000000
     42036      6764  TIP3      H2             26.2284298577       26.1818769131      -39.0066414763  TIP3      6572            0.0000000000
     42037      6765  TIP3      OH2            32.3965222933       23.1286107986      -31.5875159477  TIP3      6573            0.0000000000
     42038      6765  TIP3      H1             31.7251947544       23.1955497006      -30.8760586071  TIP3      6573            0.0000000000
     42039      6765  TIP3      H2             31.8831431415       22.9145555934      -32.3806798095  TIP3      6573            0.0000000000
     42040      6766  TIP3      OH2            25.2540488041       26.4940381316      -40.7068190770  TIP3      6574            0.0000000000
     42041      6766  TIP3      H1             24.6070339071       26.4080091510      -41.4298375603  TIP3      6574            0.0000000000
     42042      6766  TIP3      H2             25.9674858857       26.9748902682      -41.1634078016  TIP3      6574            0.0000000000
     42043      6767  TIP3      OH2            23.2988495627       31.2959293142      -25.6675982196  TIP3      6575            0.0000000000
     42044      6767  TIP3      H1             24.0367933238       31.4740236073      -25.0670685530  TIP3      6575            0.0000000000
     42045      6767  TIP3      H2             22.5294975913       31.3911955096      -25.0726903220  TIP3      6575            0.0000000000
     42046      6768  TIP3      OH2            29.3035195852       26.6704534557      -32.9322412168  TIP3      6576            0.0000000000
     42047      6768  TIP3      H1             29.9203419389       26.1398726610      -33.4511161877  TIP3      6576            0.0000000000
     42048      6768  TIP3      H2             29.1561809954       26.1262645715      -32.1466586512  TIP3      6576            0.0000000000
     42049      6769  TIP3      OH2            24.3122319701       22.8162581369      -36.4771209320  TIP3      6577            0.0000000000
     42050      6769  TIP3      H1             24.0018148557       21.8937979556      -36.4958012329  TIP3      6577            0.0000000000
     42051      6769  TIP3      H2             25.0986840871       22.7516747707      -37.0385075030  TIP3      6577            0.0000000000
     42052      6770  TIP3      OH2            27.9406837965       25.0018981149      -30.5153024940  TIP3      6578            0.0000000000
     42053      6770  TIP3      H1             27.1175449161       25.5218995578      -30.4266197765  TIP3      6578            0.0000000000
     42054      6770  TIP3      H2             28.4991050340       25.3538711708      -29.7946075949  TIP3      6578            0.0000000000
     42055      6771  TIP3      OH2            28.5321706227       31.2790110183      -38.7773214685  TIP3      6579            0.0000000000
     42056      6771  TIP3      H1             27.7901807552       30.7171842833      -39.1258755494  TIP3      6579            0.0000000000
     42057      6771  TIP3      H2             28.2777606656       31.3438854025      -37.8400576111  TIP3      6579            0.0000000000
     42058      6772  TIP3      OH2            35.5717676660       30.4818762560      -30.0095006374  TIP3      6580            0.0000000000
     42059      6772  TIP3      H1             36.2096511010       30.6646961739      -30.7272778323  TIP3      6580            0.0000000000
     42060      6772  TIP3      H2             34.7455865641       30.4537488260      -30.5297687623  TIP3      6580            0.0000000000
     42061      6773  TIP3      OH2            32.3837968807       24.0072020678      -40.6262480947  TIP3      6581            0.0000000000
     42062      6773  TIP3      H1             31.4408421795       24.1598378287      -40.8146335837  TIP3      6581            0.0000000000
     42063      6773  TIP3      H2             32.6557397325       24.8944483083      -40.3182736542  TIP3      6581            0.0000000000
     42064      6774  TIP3      OH2            30.0143111794       31.5202975307      -27.6135149502  TIP3      6582            0.0000000000
     42065      6774  TIP3      H1             29.6887914739       31.0571005478      -26.8221334476  TIP3      6582            0.0000000000
     42066      6774  TIP3      H2             29.7725846035       32.4333205976      -27.4501525081  TIP3      6582            0.0000000000
     42067      6775  TIP3      OH2            33.0981646443       25.9620071826      -39.0411063957  TIP3      6583            0.0000000000
     42068      6775  TIP3      H1             33.9571637797       25.8503811322      -38.5911581955  TIP3      6583            0.0000000000
     42069      6775  TIP3      H2             33.1662679548       26.8270232797      -39.4778123816  TIP3      6583            0.0000000000
     42070      6776  TIP3      OH2            23.6416299800       30.6227170387      -33.0181762056  TIP3      6584            0.0000000000
     42071      6776  TIP3      H1             24.3151514112       30.5511805311      -33.7253657866  TIP3      6584            0.0000000000
     42072      6776  TIP3      H2             23.7044916812       29.7629953485      -32.5667276455  TIP3      6584            0.0000000000
     42073      6777  TIP3      OH2            30.6243247583       32.7028862429      -39.7547417234  TIP3      6585            0.0000000000
     42074      6777  TIP3      H1             30.2653369024       33.5479012225      -39.4203722453  TIP3      6585            0.0000000000
     42075      6777  TIP3      H2             29.8867508833       32.0884216895      -39.5653477342  TIP3      6585            0.0000000000
     42076      6778  TIP3      OH2            20.6373238402       29.0223062710      -27.7324610666  TIP3      6586            0.0000000000
     42077      6778  TIP3      H1             20.7834375232       28.5174667910      -26.9237448480  TIP3      6586            0.0000000000
     42078      6778  TIP3      H2             20.0113240814       28.4365012020      -28.2059804128  TIP3      6586            0.0000000000
     42079      6779  TIP3      OH2            27.6296849258       28.5886474549      -25.5951460028  TIP3      6587            0.0000000000
     42080      6779  TIP3      H1             27.3370627461       28.2632755770      -26.4552346559  TIP3      6587            0.0000000000
     42081      6779  TIP3      H2             28.5537623985       28.2883227765      -25.5596486434  TIP3      6587            0.0000000000
     42082      6780  TIP3      OH2            32.2996774733       34.0290927659      -27.6914093305  TIP3      6588            0.0000000000
     42083      6780  TIP3      H1             31.3539770308       34.0750495729      -27.8517116759  TIP3      6588            0.0000000000
     42084      6780  TIP3      H2             32.2947897928       34.1697374240      -26.7116446370  TIP3      6588            0.0000000000
     42085      6781  TIP3      OH2            36.0389326509       34.7916938651      -38.8067444503  TIP3      6589            0.0000000000
     42086      6781  TIP3      H1             35.8750247385       33.9188474570      -38.4840910047  TIP3      6589            0.0000000000
     42087      6781  TIP3      H2             36.5261066759       34.7190594904      -39.6392511349  TIP3      6589            0.0000000000
     42088      6782  TIP3      OH2            33.4330750971       29.7131724752      -31.7068679864  TIP3      6590            0.0000000000
     42089      6782  TIP3      H1             32.4954169666       29.5012402499      -31.8749646204  TIP3      6590            0.0000000000
     42090      6782  TIP3      H2             33.9054524191       28.9877009963      -32.1611518574  TIP3      6590            0.0000000000
     42091      6783  TIP3      OH2            26.0474767215       34.0396276834      -35.6818635987  TIP3      6591            0.0000000000
     42092      6783  TIP3      H1             26.4935708003       34.8707520272      -35.8560511599  TIP3      6591            0.0000000000
     42093      6783  TIP3      H2             25.1433703325       34.2656970715      -35.9388409428  TIP3      6591            0.0000000000
     42094      6784  TIP3      OH2            21.6602497806       28.9229046317      -41.1356464629  TIP3      6592            0.0000000000
     42095      6784  TIP3      H1             22.3951608114       29.4599177448      -40.7390282233  TIP3      6592            0.0000000000
     42096      6784  TIP3      H2             20.8546879967       29.2526400988      -40.7287428446  TIP3      6592            0.0000000000
     42097      6785  TIP3      OH2            27.4543511720       31.7369347432      -36.0960605648  TIP3      6593            0.0000000000
     42098      6785  TIP3      H1             27.1286392272       32.6558470897      -36.0293562009  TIP3      6593            0.0000000000
     42099      6785  TIP3      H2             26.7196157582       31.2594009255      -35.6651967897  TIP3      6593            0.0000000000
     42100      6786  TIP3      OH2            28.0408885156       35.6778894417      -29.9481979857  TIP3      6594            0.0000000000
     42101      6786  TIP3      H1             28.2882551127       36.6123391204      -30.0182767439  TIP3      6594            0.0000000000
     42102      6786  TIP3      H2             28.4639537763       35.4725283711      -29.0934752877  TIP3      6594            0.0000000000
     42103      6787  TIP3      OH2            25.7820681553      -36.7928166872      -36.9155617089  TIP3      6595            0.0000000000
     42104      6787  TIP3      H1             24.9489599805      -36.6576117492      -36.4614513724  TIP3      6595            0.0000000000
     42105      6787  TIP3      H2             26.3200710207      -36.1304390364      -36.4097708038  TIP3      6595            0.0000000000
     42106      6788  TIP3      OH2            31.4253023386       31.9131559320      -30.0810999215  TIP3      6596            0.0000000000
     42107      6788  TIP3      H1             31.0712447910       31.7041197658      -29.1880843177  TIP3      6596            0.0000000000
     42108      6788  TIP3      H2             32.0378960370       31.1798890305      -30.2583139952  TIP3      6596            0.0000000000
     42109      6789  TIP3      OH2            33.7157553466       32.8853068935      -40.9498655409  TIP3      6597            0.0000000000
     42110      6789  TIP3      H1             33.9909541495       32.4972002275      -40.1021633271  TIP3      6597            0.0000000000
     42111      6789  TIP3      H2             32.7525047859       32.8111363236      -40.8873646761  TIP3      6597            0.0000000000
     42112      6790  TIP3      OH2            34.1999798896       36.4960636915      -27.5797456272  TIP3      6598            0.0000000000
     42113      6790  TIP3      H1             33.5141039608       35.9908348566      -28.0457508586  TIP3      6598            0.0000000000
     42114      6790  TIP3      H2             34.3813819565       37.2181623959      -28.1963163943  TIP3      6598            0.0000000000
     42115      6791  TIP3      OH2            22.2666925399       23.7438771352      -28.2398972483  TIP3      6599            0.0000000000
     42116      6791  TIP3      H1             21.3747084454       24.1186225576      -28.2134347401  TIP3      6599            0.0000000000
     42117      6791  TIP3      H2             22.1943404443       22.9368718870      -27.7085143559  TIP3      6599            0.0000000000
     42118      6792  TIP3      OH2            34.5205553344       31.5467812519      -38.7590113994  TIP3      6600            0.0000000000
     42119      6792  TIP3      H1             34.2602982276       30.7825638371      -38.1940875950  TIP3      6600            0.0000000000
     42120      6792  TIP3      H2             35.4461166832       31.6823951287      -38.5008972952  TIP3      6600            0.0000000000
     42121      6793  TIP3      OH2            21.8959610958       35.4984954076      -29.7778955321  TIP3      6601            0.0000000000
     42122      6793  TIP3      H1             22.2011115335       34.5872007140      -29.7481016009  TIP3      6601            0.0000000000
     42123      6793  TIP3      H2             22.1050813316       35.8493214619      -28.9039109703  TIP3      6601            0.0000000000
     42124      6794  TIP3      OH2            26.6328748054       33.6321682896      -40.0649381185  TIP3      6602            0.0000000000
     42125      6794  TIP3      H1             26.9070957423       33.0582300301      -39.3332538793  TIP3      6602            0.0000000000
     42126      6794  TIP3      H2             26.7553691682       34.5270029920      -39.7179693693  TIP3      6602            0.0000000000
     42127      6795  TIP3      OH2            22.8994805262       30.9278589675      -39.2594717135  TIP3      6603            0.0000000000
     42128      6795  TIP3      H1             22.2908358770       31.5190650249      -38.7867015154  TIP3      6603            0.0000000000
     42129      6795  TIP3      H2             23.5441286678       31.4932358704      -39.7376740980  TIP3      6603            0.0000000000
     42130      6796  TIP3      OH2            30.9959610156       23.5139246869      -29.2458645880  TIP3      6604            0.0000000000
     42131      6796  TIP3      H1             31.7283151389       23.5959471012      -28.6235102607  TIP3      6604            0.0000000000
     42132      6796  TIP3      H2             30.6285413334       22.6375115635      -29.0307714640  TIP3      6604            0.0000000000
     42133      6797  TIP3      OH2            31.7628849245       23.0935411779      -38.1470232185  TIP3      6605            0.0000000000
     42134      6797  TIP3      H1             32.0015893558       23.5620092329      -38.9736571333  TIP3      6605            0.0000000000
     42135      6797  TIP3      H2             32.3308120917       23.5309900826      -37.5083714224  TIP3      6605            0.0000000000
     42136      6798  TIP3      OH2            29.4462555662       35.2669726589      -39.2907037974  TIP3      6606            0.0000000000
     42137      6798  TIP3      H1             28.5957161211       35.7290251007      -39.2874584910  TIP3      6606            0.0000000000
     42138      6798  TIP3      H2             29.9623837782       35.7555195535      -39.9707812380  TIP3      6606            0.0000000000
     42139      6799  TIP3      OH2            28.9846541983       24.8371308702      -37.3456603371  TIP3      6607            0.0000000000
     42140      6799  TIP3      H1             29.7571899896       25.4305949689      -37.3201533080  TIP3      6607            0.0000000000
     42141      6799  TIP3      H2             28.7089974931       24.7458550113      -36.4178134705  TIP3      6607            0.0000000000
     42142      6800  TIP3      OH2            29.5585130569       25.8801364055      -28.1819424337  TIP3      6608            0.0000000000
     42143      6800  TIP3      H1             29.6502599346       26.4495832562      -27.3871341766  TIP3      6608            0.0000000000
     42144      6800  TIP3      H2             30.2124961941       25.1775167689      -28.0708600469  TIP3      6608            0.0000000000
     42145      6801  TIP3      OH2            29.8000001405       21.9075967236      -36.4787139167  TIP3      6609            0.0000000000
     42146      6801  TIP3      H1             29.5213004493       22.5496379294      -35.8065001839  TIP3      6609            0.0000000000
     42147      6801  TIP3      H2             30.5133160671       22.4441531362      -36.9096940536  TIP3      6609            0.0000000000
     42148      6802  TIP3      OH2            26.9007538556      -37.0518611244      -39.3819483919  TIP3      6610            0.0000000000
     42149      6802  TIP3      H1             26.9737768158      -36.1958967936      -39.8044382139  TIP3      6610            0.0000000000
     42150      6802  TIP3      H2             26.5450753912      -36.8255727975      -38.4894424737  TIP3      6610            0.0000000000
     42151      6803  TIP3      OH2            25.4948109685       22.9962342093      -39.6918355525  TIP3      6611            0.0000000000
     42152      6803  TIP3      H1             25.4435869049       23.9217950248      -39.3711916828  TIP3      6611            0.0000000000
     42153      6803  TIP3      H2             26.4165567077       22.7792765388      -39.4399607881  TIP3      6611            0.0000000000
     42154      6804  TIP3      OH2            35.6753006861       23.6733328547      -27.3869980365  TIP3      6612            0.0000000000
     42155      6804  TIP3      H1             34.7782234623       24.0743559240      -27.4433075926  TIP3      6612            0.0000000000
     42156      6804  TIP3      H2             36.0064396467       23.7908990542      -28.2798880845  TIP3      6612            0.0000000000
     42157      6805  TIP3      OH2            34.3498612893       27.5412074876      -33.2417599280  TIP3      6613            0.0000000000
     42158      6805  TIP3      H1             33.5254924388       27.1191814170      -33.5608786502  TIP3      6613            0.0000000000
     42159      6805  TIP3      H2             34.7402961014       26.7977120823      -32.7583509911  TIP3      6613            0.0000000000
     42160      6806  TIP3      OH2            23.7309913369       33.4377177275      -40.6917695067  TIP3      6614            0.0000000000
     42161      6806  TIP3      H1             24.3910261342       34.0777360310      -40.4091526461  TIP3      6614            0.0000000000
     42162      6806  TIP3      H2             24.2429836015       32.9894174757      -41.3908683603  TIP3      6614            0.0000000000
     42163      6807  TIP3      OH2            22.1389060129       26.1270799100      -41.5126245342  TIP3      6615            0.0000000000
     42164      6807  TIP3      H1             22.1410334996       27.0981901706      -41.3832147106  TIP3      6615            0.0000000000
     42165      6807  TIP3      H2             21.2572093780       25.9707638860      -41.8641825786  TIP3      6615            0.0000000000
     42166      6808  TIP3      OH2            22.8853932981       20.9138483401      -32.8093366043  TIP3      6616            0.0000000000
     42167      6808  TIP3      H1             22.6946000269       20.9333590819      -33.7736065032  TIP3      6616            0.0000000000
     42168      6808  TIP3      H2             22.4942124935       20.0515714025      -32.5709688446  TIP3      6616            0.0000000000
     42169      6809  TIP3      OH2            21.9385069256       34.8061721762      -36.5753462692  TIP3      6617            0.0000000000
     42170      6809  TIP3      H1             21.0437131886       35.1891845889      -36.6750195243  TIP3      6617            0.0000000000
     42171      6809  TIP3      H2             22.3047979083       35.2764306151      -37.3356716045  TIP3      6617            0.0000000000
     42172      6810  TIP3      OH2            30.1659755624       36.0978224643      -41.6969217525  TIP3      6618            0.0000000000
     42173      6810  TIP3      H1             29.3805979932       35.5442254381      -41.8686121193  TIP3      6618            0.0000000000
     42174      6810  TIP3      H2             30.7271853269       35.6673741399      -42.3670267615  TIP3      6618            0.0000000000
     42175      6811  TIP3      OH2            32.3766881603       34.5618046103      -25.1496946924  TIP3      6619            0.0000000000
     42176      6811  TIP3      H1             31.8475663919       33.8689190571      -24.7079517345  TIP3      6619            0.0000000000
     42177      6811  TIP3      H2             32.9477853390       34.8504499375      -24.4275879660  TIP3      6619            0.0000000000
     42178      6812  TIP3      OH2            34.3916457813       35.6653150130      -42.2062167933  TIP3      6620            0.0000000000
     42179      6812  TIP3      H1             34.6541748348       34.8896249703      -41.6907849435  TIP3      6620            0.0000000000
     42180      6812  TIP3      H2             35.1875451277       35.8812897705      -42.7191905325  TIP3      6620            0.0000000000
     42181      6813  TIP3      OH2            20.9784074944       31.2801058009      -24.3909247262  TIP3      6621            0.0000000000
     42182      6813  TIP3      H1             21.1108652460       30.3764375938      -24.7125205875  TIP3      6621            0.0000000000
     42183      6813  TIP3      H2             20.2330502376       31.5696975549      -24.9543133639  TIP3      6621            0.0000000000
     42184      6814  TIP3      OH2            25.5264147685       31.8691139266      -42.4400320769  TIP3      6622            0.0000000000
     42185      6814  TIP3      H1             25.3899230642       31.0662988351      -41.8883819630  TIP3      6622            0.0000000000
     42186      6814  TIP3      H2             26.0445775439       31.4296924793      -43.1418825515  TIP3      6622            0.0000000000
     42187      6815  TIP3      OH2            27.7787314641       31.2657118935      -25.0438554665  TIP3      6623            0.0000000000
     42188      6815  TIP3      H1             27.2963379740       31.5314798795      -25.8389747574  TIP3      6623            0.0000000000
     42189      6815  TIP3      H2             27.7174671860       30.2800030010      -25.0589583435  TIP3      6623            0.0000000000
     42190      6816  TIP3      OH2            33.3359845636       31.0804687367      -27.6597096829  TIP3      6624            0.0000000000
     42191      6816  TIP3      H1             34.1320975499       31.6656686748      -27.6982322302  TIP3      6624            0.0000000000
     42192      6816  TIP3      H2             32.6646716782       31.7644024258      -27.5631053954  TIP3      6624            0.0000000000
     42193      6817  TIP3      OH2            27.0299564803       29.3097010006      -39.6004153526  TIP3      6625            0.0000000000
     42194      6817  TIP3      H1             26.0960481342       29.1660327018      -39.3557700601  TIP3      6625            0.0000000000
     42195      6817  TIP3      H2             26.8885222500       28.9947121669      -40.5277578846  TIP3      6625            0.0000000000
     42196      6818  TIP3      OH2            25.7802082981       27.4046907621      -27.6560452577  TIP3      6626            0.0000000000
     42197      6818  TIP3      H1             25.2139242530       28.1284369325      -27.3477871084  TIP3      6626            0.0000000000
     42198      6818  TIP3      H2             26.1769608960       27.7934324570      -28.4561518258  TIP3      6626            0.0000000000
     42199      6819  TIP3      OH2            27.5806096049       27.8225293735      -41.7821966450  TIP3      6627            0.0000000000
     42200      6819  TIP3      H1             27.4805622014       27.6902852467      -42.7278144316  TIP3      6627            0.0000000000
     42201      6819  TIP3      H2             28.5461748509       27.9451972307      -41.6369481938  TIP3      6627            0.0000000000
     42202      6820  TIP3      OH2            30.8224755273       30.0002410077      -24.2925516350  TIP3      6628            0.0000000000
     42203      6820  TIP3      H1             31.7832834398       29.9967825079      -24.3907831834  TIP3      6628            0.0000000000
     42204      6820  TIP3      H2             30.6637589639       29.2375921067      -23.7224299701  TIP3      6628            0.0000000000
     42205      6821  TIP3      OH2            26.2262544401       24.7918706602      -26.6087272120  TIP3      6629            0.0000000000
     42206      6821  TIP3      H1             26.2705320079       24.0906316396      -27.2813669420  TIP3      6629            0.0000000000
     42207      6821  TIP3      H2             26.1360273044       25.6055321407      -27.1501969927  TIP3      6629            0.0000000000
     42208      6822  TIP3      OH2            26.6004679888       23.1902452251      -29.0286812000  TIP3      6630            0.0000000000
     42209      6822  TIP3      H1             27.1036920636       23.6484007749      -29.7385875194  TIP3      6630            0.0000000000
     42210      6822  TIP3      H2             25.7055645798       23.1119334723      -29.4205431966  TIP3      6630            0.0000000000
     42211      6823  TIP3      OH2            28.1266772805       28.6712678349      -28.8182288392  TIP3      6631            0.0000000000
     42212      6823  TIP3      H1             28.8917688586       28.5201843211      -29.3778019083  TIP3      6631            0.0000000000
     42213      6823  TIP3      H2             27.7753489989       29.5213946763      -29.1235933420  TIP3      6631            0.0000000000
     42214      6824  TIP3      OH2            32.4984136179       26.4423370203      -23.8500472838  TIP3      6632            0.0000000000
     42215      6824  TIP3      H1             32.7876479478       25.5240372002      -23.8603425219  TIP3      6632            0.0000000000
     42216      6824  TIP3      H2             33.3763126609       26.8584918474      -23.8353093447  TIP3      6632            0.0000000000
     42217      6825  TIP3      OH2            33.7961629639       29.2086471157      -25.7133329101  TIP3      6633            0.0000000000
     42218      6825  TIP3      H1             33.6038146028       29.9734368039      -26.2803892620  TIP3      6633            0.0000000000
     42219      6825  TIP3      H2             34.7689629886       29.2152421623      -25.7903715236  TIP3      6633            0.0000000000
     42220      6826  TIP3      OH2            24.6038918864       26.0739873172      -24.7428855932  TIP3      6634            0.0000000000
     42221      6826  TIP3      H1             23.8704374597       25.4489745782      -24.8578756097  TIP3      6634            0.0000000000
     42222      6826  TIP3      H2             25.3030596804       25.6840994023      -25.2870092390  TIP3      6634            0.0000000000
     42223      6827  TIP3      OH2            27.3768390920       20.6251051287      -28.6702527101  TIP3      6635            0.0000000000
     42224      6827  TIP3      H1             27.1898898268       21.5874146654      -28.7588955418  TIP3      6635            0.0000000000
     42225      6827  TIP3      H2             26.6227862384       20.2566058265      -29.1615760181  TIP3      6635            0.0000000000
     42226      6828  TIP3      OH2            28.6789894553       24.8404141452      -25.0534591382  TIP3      6636            0.0000000000
     42227      6828  TIP3      H1             28.3202321326       24.8587140139      -24.1679973157  TIP3      6636            0.0000000000
     42228      6828  TIP3      H2             27.8633504976       24.7834331935      -25.5941640245  TIP3      6636            0.0000000000
     42229      6829  TIP3      OH2            31.3335873538       24.0654828182      -25.9468467821  TIP3      6637            0.0000000000
     42230      6829  TIP3      H1             30.3784420731       24.1388628624      -25.7920617436  TIP3      6637            0.0000000000
     42231      6829  TIP3      H2             31.6575048831       23.4531385781      -25.2639484369  TIP3      6637            0.0000000000
     42232      6830  TIP3      OH2            32.9518683025       22.7206385980      -23.9872277800  TIP3      6638            0.0000000000
     42233      6830  TIP3      H1             32.8996928285       21.7394676363      -24.0006429529  TIP3      6638            0.0000000000
     42234      6830  TIP3      H2             32.7191164010       22.9847250477      -23.0873696311  TIP3      6638            0.0000000000
     42235      6831  TIP3      OH2            22.7325164870       23.9796488953      -24.9429339705  TIP3      6639            0.0000000000
     42236      6831  TIP3      H1             22.9545015556       23.2388531332      -25.5281012360  TIP3      6639            0.0000000000
     42237      6831  TIP3      H2             22.6958418795       23.5490191789      -24.0586228878  TIP3      6639            0.0000000000
     42238      6832  TIP3      OH2            27.6081522520       19.9904984968      -25.9171654361  TIP3      6640            0.0000000000
     42239      6832  TIP3      H1             28.2945877221       19.3110077757      -26.0226629755  TIP3      6640            0.0000000000
     42240      6832  TIP3      H2             27.4653424821       20.1915142003      -26.8660835565  TIP3      6640            0.0000000000
     42241      6833  TIP3      OH2            20.9958502398       33.1107173516      -41.1927425483  TIP3      6641            0.0000000000
     42242      6833  TIP3      H1             21.9473085901       33.2192141482      -40.9784185019  TIP3      6641            0.0000000000
     42243      6833  TIP3      H2             21.0669158689       32.5136083797      -41.9422903221  TIP3      6641            0.0000000000
     42244      6834  TIP3      OH2            20.4692882034       36.6234173584      -34.3610117907  TIP3      6642            0.0000000000
     42245      6834  TIP3      H1             20.1672902991       35.7319472075      -34.1311624322  TIP3      6642            0.0000000000
     42246      6834  TIP3      H2             20.7654886408       36.9657223764      -33.5090126744  TIP3      6642            0.0000000000
     42247      6835  TIP3      OH2            35.9203628442       32.9206373885      -23.9456560622  TIP3      6643            0.0000000000
     42248      6835  TIP3      H1             35.1698081049       32.6896456063      -23.3786503293  TIP3      6643            0.0000000000
     42249      6835  TIP3      H2             36.4667381579       33.4683148379      -23.3640859874  TIP3      6643            0.0000000000
     42250      6836  TIP3      OH2            36.0780115059       34.7244575180      -29.1516651301  TIP3      6644            0.0000000000
     42251      6836  TIP3      H1             35.4093298213       35.1251800582      -28.5845328418  TIP3      6644            0.0000000000
     42252      6836  TIP3      H2             35.5599832350       34.3437651896      -29.8963300846  TIP3      6644            0.0000000000
     42253      6837  TIP3      OH2            36.3734708756       26.2305797933      -41.5547323582  TIP3      6645            0.0000000000
     42254      6837  TIP3      H1             36.5872704005       26.8713569975      -42.2477168864  TIP3      6645            0.0000000000
     42255      6837  TIP3      H2             36.2103782311       25.3889993088      -42.0142466342  TIP3      6645            0.0000000000
     42256      6838  TIP3      OH2            35.2603465458       27.6898785825      -35.8938142901  TIP3      6646            0.0000000000
     42257      6838  TIP3      H1             35.4132111372       26.7363132197      -35.8588615548  TIP3      6646            0.0000000000
     42258      6838  TIP3      H2             35.2485854781       27.9036081882      -34.9449867078  TIP3      6646            0.0000000000
     42259      6839  TIP3      OH2            20.6375407753       29.7234206032      -31.8616900278  TIP3      6647            0.0000000000
     42260      6839  TIP3      H1             20.8131501797       29.6304831111      -32.8264761508  TIP3      6647            0.0000000000
     42261      6839  TIP3      H2             21.5292265565       29.5373641555      -31.5064536578  TIP3      6647            0.0000000000
     42262      6840  TIP3      OH2           -37.0369345257       29.6306426491      -25.9779098955  TIP3      6648            0.0000000000
     42263      6840  TIP3      H1            -36.4473088891       28.8579124667      -25.9456877516  TIP3      6648            0.0000000000
     42264      6840  TIP3      H2            -36.4708634064       30.3568016026      -26.2717654903  TIP3      6648            0.0000000000
     42265      6841  TIP3      OH2            35.6227951215       23.7029507996      -42.4054557960  TIP3      6649            0.0000000000
     42266      6841  TIP3      H1             36.2681482844       23.2370568454      -41.8495805955  TIP3      6649            0.0000000000
     42267      6841  TIP3      H2             34.8090906687       23.2155914732      -42.2525021054  TIP3      6649            0.0000000000
     42268      6842  TIP3      OH2            35.2759495857       25.1864566683      -37.5696030776  TIP3      6650            0.0000000000
     42269      6842  TIP3      H1             35.5613755418       24.3209542322      -37.2241949574  TIP3      6650            0.0000000000
     42270      6842  TIP3      H2             36.0751502608       25.5375544968      -37.9577219842  TIP3      6650            0.0000000000
     42271      6843  TIP3      OH2            35.5285290247       25.2411825448      -32.0726810364  TIP3      6651            0.0000000000
     42272      6843  TIP3      H1             36.4739582992       25.3651448740      -32.2465353672  TIP3      6651            0.0000000000
     42273      6843  TIP3      H2             35.5427793075       25.7452981919      -31.2376811592  TIP3      6651            0.0000000000
     42274      6844  TIP3      OH2            35.9747342364       26.4950284417      -29.1026948972  TIP3      6652            0.0000000000
     42275      6844  TIP3      H1             35.0778331919       26.8000273907      -28.8805681010  TIP3      6652            0.0000000000
     42276      6844  TIP3      H2             36.3856979884       27.2609826202      -29.5355319243  TIP3      6652            0.0000000000
     42277      6845  TIP3      OH2            20.2326989540       25.0120488966      -25.7197638044  TIP3      6653            0.0000000000
     42278      6845  TIP3      H1             21.1649625179       24.8047374356      -25.5091562171  TIP3      6653            0.0000000000
     42279      6845  TIP3      H2             19.7910387409       24.1873288252      -25.4189047080  TIP3      6653            0.0000000000
     42280      6846  TIP3      OH2            35.1641726365       22.3043032604      -36.8809640694  TIP3      6654            0.0000000000
     42281      6846  TIP3      H1             36.0386074940       22.0332032185      -36.5521304844  TIP3      6654            0.0000000000
     42282      6846  TIP3      H2             35.1252859199       21.7654762043      -37.7008553098  TIP3      6654            0.0000000000
     42283      6847  TIP3      OH2            21.4416408576       23.2976403651      -32.8334014789  TIP3      6655            0.0000000000
     42284      6847  TIP3      H1             21.9373234139       22.4811676138      -32.6177114377  TIP3      6655            0.0000000000
     42285      6847  TIP3      H2             22.0038276748       23.9961537146      -32.4716036107  TIP3      6655            0.0000000000
     42286      6848  TIP3      OH2            19.7346046937       26.3156203141      -31.8209293160  TIP3      6656            0.0000000000
     42287      6848  TIP3      H1             20.2976516764       26.0574939140      -32.5795914872  TIP3      6656            0.0000000000
     42288      6848  TIP3      H2             20.2085764561       27.1155306599      -31.5531840049  TIP3      6656            0.0000000000
     42289      6849  TIP3      OH2            20.0909587071       22.5648608875      -37.7698834680  TIP3      6657            0.0000000000
     42290      6849  TIP3      H1             19.1455776847       22.7576671549      -37.8774804373  TIP3      6657            0.0000000000
     42291      6849  TIP3      H2             20.5083969950       23.0699131272      -38.4861848049  TIP3      6657            0.0000000000
     42292      6850  TIP3      OH2            19.9654456435       21.1736279639      -29.5051519284  TIP3      6658            0.0000000000
     42293      6850  TIP3      H1             19.4705179786       21.1195355923      -28.6676120934  TIP3      6658            0.0000000000
     42294      6850  TIP3      H2             19.6528162303       21.9746303735      -29.9722460830  TIP3      6658            0.0000000000
     42295      6851  TIP3      OH2            22.2383284186       34.4617229960      -25.2768416564  TIP3      6659            0.0000000000
     42296      6851  TIP3      H1             21.3995822547       34.6504859344      -25.7497243479  TIP3      6659            0.0000000000
     42297      6851  TIP3      H2             21.9452106179       34.3562992782      -24.3705329180  TIP3      6659            0.0000000000
     42298      6852  TIP3      OH2            25.2208846418       35.4249511592      -28.9480231459  TIP3      6660            0.0000000000
     42299      6852  TIP3      H1             24.7777955187       36.1921217236      -29.3291472706  TIP3      6660            0.0000000000
     42300      6852  TIP3      H2             26.1003147104       35.4517663883      -29.3613958052  TIP3      6660            0.0000000000
     42301      6853  TIP3      OH2            24.0959741603       35.8943342935      -33.6194359362  TIP3      6661            0.0000000000
     42302      6853  TIP3      H1             23.9504045357       35.0242291115      -33.2166040590  TIP3      6661            0.0000000000
     42303      6853  TIP3      H2             24.8634725832       36.1431864054      -33.0412022705  TIP3      6661            0.0000000000
     42304      6854  TIP3      OH2            26.2852322862       35.9383623415      -32.3394788878  TIP3      6662            0.0000000000
     42305      6854  TIP3      H1             26.9098696557       35.3357884452      -32.7677923580  TIP3      6662            0.0000000000
     42306      6854  TIP3      H2             26.7416457137       36.3341638146      -31.5897882492  TIP3      6662            0.0000000000
     42307      6855  TIP3      OH2            30.2062961908       22.1600068476      -33.4147423955  TIP3      6663            0.0000000000
     42308      6855  TIP3      H1             29.5331588831       21.5200769411      -33.1263372489  TIP3      6663            0.0000000000
     42309      6855  TIP3      H2             30.7639830127       21.6246146008      -33.9901244408  TIP3      6663            0.0000000000
     42310      6856  TIP3      OH2            35.3595886175       20.1946016931      -33.3151341604  TIP3      6664            0.0000000000
     42311      6856  TIP3      H1             35.9027185394       20.8450935145      -33.7730089169  TIP3      6664            0.0000000000
     42312      6856  TIP3      H2             34.4620511440       20.5330090049      -33.5352963735  TIP3      6664            0.0000000000
     42313      6857  TIP3      OH2            22.5803199283       20.7831644817      -35.5562395327  TIP3      6665            0.0000000000
     42314      6857  TIP3      H1             21.7827328629       20.5941386055      -36.0864639702  TIP3      6665            0.0000000000
     42315      6857  TIP3      H2             23.0324562773       19.9199723005      -35.6161116260  TIP3      6665            0.0000000000
     42316      6858  TIP3      OH2            21.3162621354       20.5383710406      -39.8528207533  TIP3      6666            0.0000000000
     42317      6858  TIP3      H1             21.8306296928       21.1836960137      -40.3821767186  TIP3      6666            0.0000000000
     42318      6858  TIP3      H2             20.7855995450       21.1168970340      -39.2810735949  TIP3      6666            0.0000000000
     42319      6859  TIP3      OH2            27.0402327660       20.7074623335      -35.7711626921  TIP3      6667            0.0000000000
     42320      6859  TIP3      H1             27.9390974015       21.0672945983      -35.8518896713  TIP3      6667            0.0000000000
     42321      6859  TIP3      H2             27.0104515567       20.4946164914      -34.8404629079  TIP3      6667            0.0000000000
     42322      6860  TIP3      OH2            32.8116173155       20.6956859723      -34.1671673789  TIP3      6668            0.0000000000
     42323      6860  TIP3      H1             32.7248492218       20.8551511100      -35.1168666620  TIP3      6668            0.0000000000
     42324      6860  TIP3      H2             32.3746584685       19.8194425130      -34.0334425930  TIP3      6668            0.0000000000
     42325      6861  TIP3      OH2            33.9395240277       20.6973523110      -38.5747015177  TIP3      6669            0.0000000000
     42326      6861  TIP3      H1             33.2345402083       21.3554027078      -38.6215838937  TIP3      6669            0.0000000000
     42327      6861  TIP3      H2             33.5038743910       19.8694807468      -38.2622118404  TIP3      6669            0.0000000000
     42328      6862  TIP3      OH2            21.0348463623      -37.1406393310      -38.4538002701  TIP3      6670            0.0000000000
     42329      6862  TIP3      H1             20.6663741211      -37.1352473957      -39.3586428690  TIP3      6670            0.0000000000
     42330      6862  TIP3      H2             21.3425385726      -36.2352738881      -38.4072931787  TIP3      6670            0.0000000000
     42331      6863  TIP3      OH2            23.1596339349       22.4112935710      -41.3300491737  TIP3      6671            0.0000000000
     42332      6863  TIP3      H1             23.7242497865       21.8321376763      -41.8384422338  TIP3      6671            0.0000000000
     42333      6863  TIP3      H2             23.8094370151       22.8266346588      -40.7348651121  TIP3      6671            0.0000000000
     42334      6864  TIP3      OH2            28.2013797515       22.7273565540      -38.9189256760  TIP3      6672            0.0000000000
     42335      6864  TIP3      H1             28.4688775361       22.1582766807      -38.1797027932  TIP3      6672            0.0000000000
     42336      6864  TIP3      H2             28.2688845960       23.5992599640      -38.4612517929  TIP3      6672            0.0000000000
     42337      6865  TIP3      OH2            22.4493096040       21.3288136817      -26.0966740702  TIP3      6673            0.0000000000
     42338      6865  TIP3      H1             22.0893655119       20.5360602972      -25.6645649006  TIP3      6673            0.0000000000
     42339      6865  TIP3      H2             23.3670861654       21.2861369377      -25.7587194292  TIP3      6673            0.0000000000
     42340      6866  TIP3      OH2            24.4839868731       20.6972734422      -24.4516991212  TIP3      6674            0.0000000000
     42341      6866  TIP3      H1             25.3572895609       20.3816279128      -24.7442253372  TIP3      6674            0.0000000000
     42342      6866  TIP3      H2             24.1051571371       19.8839249410      -24.0745418612  TIP3      6674            0.0000000000
     42343      6867  TIP3      OH2            32.8840917330       20.0015956340      -24.3562281441  TIP3      6675            0.0000000000
     42344      6867  TIP3      H1             32.9844671912       19.5911865469      -23.4673377195  TIP3      6675            0.0000000000
     42345      6867  TIP3      H2             33.8058681519       19.9702556768      -24.6969853871  TIP3      6675            0.0000000000
     42346      6868  TIP3      OH2            36.0433861308       36.0315932538      -25.5344172339  TIP3      6676            0.0000000000
     42347      6868  TIP3      H1             35.3458204140       35.8457736944      -26.1970093422  TIP3      6676            0.0000000000
     42348      6868  TIP3      H2             36.0282726102       36.9938476367      -25.5143406843  TIP3      6676            0.0000000000
     42349      6869  TIP3      OH2           -30.0908503646      -32.5037458178      -23.2149420141  TIP3      6677            0.0000000000
     42350      6869  TIP3      H1            -30.4327990376      -33.1551084355      -22.5744044211  TIP3      6677            0.0000000000
     42351      6869  TIP3      H2            -30.7850564929      -32.3745648227      -23.8547887576  TIP3      6677            0.0000000000
     42352      6870  TIP3      OH2           -35.6033849930      -32.2996089164      -20.8519718716  TIP3      6678            0.0000000000
     42353      6870  TIP3      H1            -35.0263017427      -31.6336180833      -21.2682264343  TIP3      6678            0.0000000000
     42354      6870  TIP3      H2            -36.2245945757      -31.6986635566      -20.4241835215  TIP3      6678            0.0000000000
     42355      6871  TIP3      OH2           -31.4295195797      -29.8677856067      -21.9217239217  TIP3      6679            0.0000000000
     42356      6871  TIP3      H1            -31.8806334438      -30.3090266635      -22.6240736222  TIP3      6679            0.0000000000
     42357      6871  TIP3      H2            -30.5753472136      -29.7115248339      -22.3168498295  TIP3      6679            0.0000000000
     42358      6872  TIP3      OH2           -25.9741059299      -23.8265177873      -20.9802622198  TIP3      6680            0.0000000000
     42359      6872  TIP3      H1            -26.2536944036      -23.0157077737      -20.5385693757  TIP3      6680            0.0000000000
     42360      6872  TIP3      H2            -26.6345044709      -24.4583162624      -20.6913817962  TIP3      6680            0.0000000000
     42361      6873  TIP3      OH2           -34.8290659762      -27.6032682686      -22.3094970993  TIP3      6681            0.0000000000
     42362      6873  TIP3      H1            -34.2057558852      -27.0313569192      -21.7814874477  TIP3      6681            0.0000000000
     42363      6873  TIP3      H2            -35.6518146971      -27.3394170710      -21.8733267079  TIP3      6681            0.0000000000
     42364      6874  TIP3      OH2           -33.5160538209      -25.7565371516      -20.8281670253  TIP3      6682            0.0000000000
     42365      6874  TIP3      H1            -34.0646101220      -25.3980472797      -20.1229012139  TIP3      6682            0.0000000000
     42366      6874  TIP3      H2            -32.8713223754      -25.0294390035      -20.9169497490  TIP3      6682            0.0000000000
     42367      6875  TIP3      OH2           -32.8955254719      -23.0405281116      -22.0075117090  TIP3      6683            0.0000000000
     42368      6875  TIP3      H1            -32.2304383244      -22.5377291195      -21.5034273356  TIP3      6683            0.0000000000
     42369      6875  TIP3      H2            -32.2999167399      -23.6287461948      -22.4962358162  TIP3      6683            0.0000000000
     42370      6876  TIP3      OH2           -34.7374705039      -30.2682956933      -22.0990788576  TIP3      6684            0.0000000000
     42371      6876  TIP3      H1            -34.6231876960      -29.3039481697      -22.2484621098  TIP3      6684            0.0000000000
     42372      6876  TIP3      H2            -35.5224001221      -30.5167420495      -22.6405448914  TIP3      6684            0.0000000000
     42373      6877  TIP3      OH2           -26.6985216513      -20.6650819482      -23.5617212062  TIP3      6685            0.0000000000
     42374      6877  TIP3      H1            -27.3826776322      -21.2584891445      -23.2093958109  TIP3      6685            0.0000000000
     42375      6877  TIP3      H2            -25.9651013926      -21.2583178515      -23.7656736387  TIP3      6685            0.0000000000
     42376      6878  TIP3      OH2           -22.1206775415      -20.8531433728      -23.3392182480  TIP3      6686            0.0000000000
     42377      6878  TIP3      H1            -21.8643644705      -21.6469611605      -22.8722857067  TIP3      6686            0.0000000000
     42378      6878  TIP3      H2            -21.3754900848      -20.7101282375      -23.9418945838  TIP3      6686            0.0000000000
     42379      6879  TIP3      OH2           -25.7961108125      -23.8485876247      -23.7351269493  TIP3      6687            0.0000000000
     42380      6879  TIP3      H1            -26.0768032406      -23.7395661122      -22.8110861557  TIP3      6687            0.0000000000
     42381      6879  TIP3      H2            -26.0029519671      -24.7982277185      -23.8829902290  TIP3      6687            0.0000000000
     42382      6880  TIP3      OH2           -35.5484064030      -23.3374065184      -22.5009937691  TIP3      6688            0.0000000000
     42383      6880  TIP3      H1            -34.6423501207      -23.3162243727      -22.1175455636  TIP3      6688            0.0000000000
     42384      6880  TIP3      H2            -35.4612278038      -24.1301814232      -23.0465702481  TIP3      6688            0.0000000000
     42385      6881  TIP3      OH2           -20.8054804013      -32.9546812248      -23.6000891380  TIP3      6689            0.0000000000
     42386      6881  TIP3      H1            -20.2590338376      -33.3175216301      -22.9088594341  TIP3      6689            0.0000000000
     42387      6881  TIP3      H2            -21.7099642004      -33.2742207825      -23.4555880144  TIP3      6689            0.0000000000
     42388      6882  TIP3      OH2           -34.8232256664      -35.9510541206      -20.9273128240  TIP3      6690            0.0000000000
     42389      6882  TIP3      H1            -34.6920382328      -35.2606378902      -21.5628404005  TIP3      6690            0.0000000000
     42390      6882  TIP3      H2            -35.5593941435      -35.6133611882      -20.3838157272  TIP3      6690            0.0000000000
     42391      6883  TIP3      OH2           -33.2861192633      -33.9414751259      -22.5918202011  TIP3      6691            0.0000000000
     42392      6883  TIP3      H1            -32.8624100104      -34.7250544545      -23.0042289896  TIP3      6691            0.0000000000
     42393      6883  TIP3      H2            -32.7883153290      -33.8415594839      -21.7719814138  TIP3      6691            0.0000000000
     42394      6884  TIP3      OH2            -4.8625737768      -19.1604671281      -21.8531536043  TIP3      6692            0.0000000000
     42395      6884  TIP3      H1             -4.3427161409      -19.8467442689      -22.2877245840  TIP3      6692            0.0000000000
     42396      6884  TIP3      H2             -4.7550301149      -19.3857959116      -20.9211557698  TIP3      6692            0.0000000000
     42397      6885  TIP3      OH2            -3.7379140689      -26.8365254400      -23.0448218813  TIP3      6693            0.0000000000
     42398      6885  TIP3      H1             -3.6112182795      -27.1960044808      -23.9544567851  TIP3      6693            0.0000000000
     42399      6885  TIP3      H2             -2.8025794201      -26.6648488907      -22.8504949503  TIP3      6693            0.0000000000
     42400      6886  TIP3      OH2           -11.1846267265      -32.6921260519      -23.3169731940  TIP3      6694            0.0000000000
     42401      6886  TIP3      H1            -11.5676975970      -33.0544246140      -22.5163983698  TIP3      6694            0.0000000000
     42402      6886  TIP3      H2            -11.8839342502      -32.2008977895      -23.7532175080  TIP3      6694            0.0000000000
     42403      6887  TIP3      OH2           -16.0130634928      -27.7317193973      -22.0860974770  TIP3      6695            0.0000000000
     42404      6887  TIP3      H1            -15.3195384460      -27.1085818637      -21.8079299847  TIP3      6695            0.0000000000
     42405      6887  TIP3      H2            -16.8141899587      -27.2209290262      -21.9909254997  TIP3      6695            0.0000000000
     42406      6888  TIP3      OH2            -3.9996941337      -23.6433092702      -22.1384542494  TIP3      6696            0.0000000000
     42407      6888  TIP3      H1             -3.6308612987      -24.0558651016      -21.3489802925  TIP3      6696            0.0000000000
     42408      6888  TIP3      H2             -4.9495986971      -23.7822704517      -22.0434496125  TIP3      6696            0.0000000000
     42409      6889  TIP3      OH2           -10.9170724019      -20.2316438126      -20.5035213491  TIP3      6697            0.0000000000
     42410      6889  TIP3      H1            -10.7831939012      -19.4225614950      -20.9689711294  TIP3      6697            0.0000000000
     42411      6889  TIP3      H2            -11.0989322983      -19.9479089446      -19.5873772657  TIP3      6697            0.0000000000
     42412      6890  TIP3      OH2            -7.9298921304      -20.6652226144      -23.5939900458  TIP3      6698            0.0000000000
     42413      6890  TIP3      H1             -8.5070705586      -21.3102886898      -23.1405708495  TIP3      6698            0.0000000000
     42414      6890  TIP3      H2             -7.1476957311      -21.2094094532      -23.7354103308  TIP3      6698            0.0000000000
     42415      6891  TIP3      OH2           -12.4003629773      -25.0024245169      -23.5481648677  TIP3      6699            0.0000000000
     42416      6891  TIP3      H1            -12.2331143747      -25.7280812624      -22.9365959000  TIP3      6699            0.0000000000
     42417      6891  TIP3      H2            -11.6028118418      -25.0737698833      -24.1005401967  TIP3      6699            0.0000000000
     42418      6892  TIP3      OH2           -10.1116568509      -28.6811776212      -22.8920988492  TIP3      6700            0.0000000000
     42419      6892  TIP3      H1            -10.3460938940      -28.9025072990      -23.8062175125  TIP3      6700            0.0000000000
     42420      6892  TIP3      H2             -9.1719468876      -28.6838772244      -22.8891116643  TIP3      6700            0.0000000000
     42421      6893  TIP3      OH2           -16.3748582573      -35.9874870981      -20.9700640952  TIP3      6701            0.0000000000
     42422      6893  TIP3      H1            -15.8796440117      -35.3553382709      -21.4953784517  TIP3      6701            0.0000000000
     42423      6893  TIP3      H2            -17.0261886243      -35.4593996453      -20.5015283711  TIP3      6701            0.0000000000
     42424      6894  TIP3      OH2           -14.5158033677      -34.0406586562      -22.4547258386  TIP3      6702            0.0000000000
     42425      6894  TIP3      H1            -14.0152905707      -34.6671539396      -23.0190037468  TIP3      6702            0.0000000000
     42426      6894  TIP3      H2            -13.8416266964      -33.7780603473      -21.8099029785  TIP3      6702            0.0000000000
     42427      6895  TIP3      OH2           -14.6844446058      -19.1599880655      -23.0574400782  TIP3      6703            0.0000000000
     42428      6895  TIP3      H1            -14.8966961161      -18.8557477173      -22.1627663308  TIP3      6703            0.0000000000
     42429      6895  TIP3      H2            -13.8690382949      -19.6727553847      -22.8826124214  TIP3      6703            0.0000000000
     42430      6896  TIP3      OH2            17.1456879002      -36.3269718531      -21.2492791445  TIP3      6704            0.0000000000
     42431      6896  TIP3      H1             16.5349531059      -36.1627114609      -20.5380027345  TIP3      6704            0.0000000000
     42432      6896  TIP3      H2             17.7438360198      -35.5798417725      -21.2299980432  TIP3      6704            0.0000000000
     42433      6897  TIP3      OH2            18.6362085467      -21.7527275478      -22.6469818587  TIP3      6705            0.0000000000
     42434      6897  TIP3      H1             18.7803939416      -20.8845149340      -22.2626268497  TIP3      6705            0.0000000000
     42435      6897  TIP3      H2             19.5063612021      -22.1442555345      -22.4784819723  TIP3      6705            0.0000000000
     42436      6898  TIP3      OH2            10.8867809034      -33.0923965291      -22.4427684994  TIP3      6706            0.0000000000
     42437      6898  TIP3      H1             10.4557560142      -33.0178573639      -21.5725806658  TIP3      6706            0.0000000000
     42438      6898  TIP3      H2             10.4900458310      -33.9164758662      -22.7296459960  TIP3      6706            0.0000000000
     42439      6899  TIP3      OH2            14.8857305876      -23.6718893885      -22.1744984589  TIP3      6707            0.0000000000
     42440      6899  TIP3      H1             15.1727534047      -23.9925994848      -21.3172666758  TIP3      6707            0.0000000000
     42441      6899  TIP3      H2             13.9226816074      -23.6825864447      -22.0636892760  TIP3      6707            0.0000000000
     42442      6900  TIP3      OH2             8.9842673790      -22.5029627542      -23.6271106937  TIP3      6708            0.0000000000
     42443      6900  TIP3      H1              9.1037419819      -23.2294706313      -24.2660838252  TIP3      6708            0.0000000000
     42444      6900  TIP3      H2              8.6435282126      -23.0315105699      -22.9085660377  TIP3      6708            0.0000000000
     42445      6901  TIP3      OH2             3.2200840701      -30.4373305745      -22.8357281288  TIP3      6709            0.0000000000
     42446      6901  TIP3      H1              3.2701257932      -29.5802554760      -22.3837517944  TIP3      6709            0.0000000000
     42447      6901  TIP3      H2              2.2919038889      -30.5816865188      -22.9150342990  TIP3      6709            0.0000000000
     42448      6902  TIP3      OH2            15.6093273879      -20.8078763404      -23.3526541793  TIP3      6710            0.0000000000
     42449      6902  TIP3      H1             15.8093385026      -21.6209478198      -22.8556297827  TIP3      6710            0.0000000000
     42450      6902  TIP3      H2             16.3781193112      -20.7254828032      -23.9324434807  TIP3      6710            0.0000000000
     42451      6903  TIP3      OH2             6.5569567895      -24.9127003653      -23.4209561844  TIP3      6711            0.0000000000
     42452      6903  TIP3      H1              6.5047248378      -25.7676102030      -22.9690391472  TIP3      6711            0.0000000000
     42453      6903  TIP3      H2              7.1916349931      -25.0848904387      -24.1356616823  TIP3      6711            0.0000000000
     42454      6904  TIP3      OH2            11.9623688519      -23.9164404354      -23.6997011283  TIP3      6712            0.0000000000
     42455      6904  TIP3      H1             11.5926689938      -23.7008279908      -22.8462410946  TIP3      6712            0.0000000000
     42456      6904  TIP3      H2             11.6839224594      -24.8412311886      -23.8703765241  TIP3      6712            0.0000000000
     42457      6905  TIP3      OH2             2.1664536011      -23.5456272917      -22.3623465496  TIP3      6713            0.0000000000
     42458      6905  TIP3      H1              3.0802960500      -23.2852883655      -22.1714567357  TIP3      6713            0.0000000000
     42459      6905  TIP3      H2              2.2224175303      -24.0948804433      -23.1672887859  TIP3      6713            0.0000000000
     42460      6906  TIP3      OH2            30.3401090645      -28.9061340127      -22.3510716357  TIP3      6714            0.0000000000
     42461      6906  TIP3      H1             31.0443191536      -28.8460899265      -21.6738918660  TIP3      6714            0.0000000000
     42462      6906  TIP3      H2             30.7223257507      -29.5772948077      -22.9323675836  TIP3      6714            0.0000000000
     42463      6907  TIP3      OH2            32.6445932395      -28.0682751559      -20.6895353485  TIP3      6715            0.0000000000
     42464      6907  TIP3      H1             33.2268393965      -27.8541066642      -19.9513941255  TIP3      6715            0.0000000000
     42465      6907  TIP3      H2             33.0358111558      -27.5830434390      -21.4433019651  TIP3      6715            0.0000000000
     42466      6908  TIP3      OH2            36.0041324843      -36.2872178849      -21.1215450516  TIP3      6716            0.0000000000
     42467      6908  TIP3      H1             35.2958027267      -36.1133481492      -20.4720892740  TIP3      6716            0.0000000000
     42468      6908  TIP3      H2             36.4633975741      -35.4586730075      -21.2339145589  TIP3      6716            0.0000000000
     42469      6909  TIP3      OH2            34.0545763383      -26.9136317905      -23.0116409280  TIP3      6717            0.0000000000
     42470      6909  TIP3      H1             34.0808497496      -27.2426679506      -23.9433641287  TIP3      6717            0.0000000000
     42471      6909  TIP3      H2             34.9666026303      -26.6351789542      -22.9068575713  TIP3      6717            0.0000000000
     42472      6910  TIP3      OH2            29.5909035972      -33.0661736315      -22.5070212107  TIP3      6718            0.0000000000
     42473      6910  TIP3      H1             29.4299028428      -33.0336314920      -21.5638341922  TIP3      6718            0.0000000000
     42474      6910  TIP3      H2             29.3492432633      -33.9764261416      -22.7487244306  TIP3      6718            0.0000000000
     42475      6911  TIP3      OH2            26.5228322538      -32.6355734773      -23.2811828724  TIP3      6719            0.0000000000
     42476      6911  TIP3      H1             26.0757218741      -33.0864826044      -22.5668112551  TIP3      6719            0.0000000000
     42477      6911  TIP3      H2             25.8110603357      -32.2607297406      -23.8092792412  TIP3      6719            0.0000000000
     42478      6912  TIP3      OH2            25.1000549235      -29.9019672125      -21.8723086285  TIP3      6720            0.0000000000
     42479      6912  TIP3      H1             24.6905599634      -30.2659465435      -22.6642588596  TIP3      6720            0.0000000000
     42480      6912  TIP3      H2             25.9737802723      -29.6828741321      -22.2540932522  TIP3      6720            0.0000000000
     42481      6913  TIP3      OH2            32.4028300757      -32.4186865816      -21.8364694129  TIP3      6721            0.0000000000
     42482      6913  TIP3      H1             31.4381124590      -32.3429128812      -21.9426896991  TIP3      6721            0.0000000000
     42483      6913  TIP3      H2             32.6738167465      -31.5907770106      -21.4602781117  TIP3      6721            0.0000000000
     42484      6914  TIP3      OH2            30.6184616776      -23.8276303583      -21.0073266007  TIP3      6722            0.0000000000
     42485      6914  TIP3      H1             30.3465465574      -23.0484874943      -20.5151432509  TIP3      6722            0.0000000000
     42486      6914  TIP3      H2             29.9591706541      -24.4865423511      -20.7301463701  TIP3      6722            0.0000000000
     42487      6915  TIP3      OH2            34.3971063510      -20.9079377667      -23.3111592859  TIP3      6723            0.0000000000
     42488      6915  TIP3      H1             34.7937844589      -21.6081607623      -22.7922398003  TIP3      6723            0.0000000000
     42489      6915  TIP3      H2             35.1346570112      -20.6916633697      -23.9223377284  TIP3      6723            0.0000000000
     42490      6916  TIP3      OH2            25.3479365069      -24.9597786930      -23.5598820878  TIP3      6724            0.0000000000
     42491      6916  TIP3      H1             25.4594026108      -25.6656536399      -22.9050710195  TIP3      6724            0.0000000000
     42492      6916  TIP3      H2             26.1225351130      -25.0997883537      -24.1257080667  TIP3      6724            0.0000000000
     42493      6917  TIP3      OH2            30.8589561943      -23.8910294054      -23.7171796813  TIP3      6725            0.0000000000
     42494      6917  TIP3      H1             30.4054396797      -23.7950955315      -22.8646916071  TIP3      6725            0.0000000000
     42495      6917  TIP3      H2             30.5166366385      -24.8022401451      -23.9265992461  TIP3      6725            0.0000000000
     42496      6918  TIP3      OH2            26.5051522012      -26.9633401546      -21.1328834031  TIP3      6726            0.0000000000
     42497      6918  TIP3      H1             26.0535665710      -27.5185340966      -20.5025169320  TIP3      6726            0.0000000000
     42498      6918  TIP3      H2             26.8515611616      -27.6218369445      -21.7696737881  TIP3      6726            0.0000000000
     42499      6919  TIP3      OH2            27.5270492074      -28.7816566143      -22.8904589723  TIP3      6727            0.0000000000
     42500      6919  TIP3      H1             27.4123737606      -28.8365024009      -23.8589743955  TIP3      6727            0.0000000000
     42501      6919  TIP3      H2             28.5027296466      -28.6781988371      -22.8151351056  TIP3      6727            0.0000000000
     42502      6920  TIP3      OH2            36.1518044090      -30.3294574582      -22.7702377005  TIP3      6728            0.0000000000
     42503      6920  TIP3      H1             36.4540772353      -29.7084893240      -23.4294088318  TIP3      6728            0.0000000000
     42504      6920  TIP3      H2             36.1648208272      -31.1993551444      -23.2275628628  TIP3      6728            0.0000000000
     42505      6921  TIP3      OH2            35.7893134294      -32.9011323103      -23.5721969686  TIP3      6729            0.0000000000
     42506      6921  TIP3      H1             36.2488089615      -33.3638923078      -22.8656200290  TIP3      6729            0.0000000000
     42507      6921  TIP3      H2             34.8959633320      -33.3029588259      -23.4853539735  TIP3      6729            0.0000000000
     42508      6922  TIP3      OH2            23.2132848136      -34.1330019656      -22.6499429574  TIP3      6730            0.0000000000
     42509      6922  TIP3      H1             23.7938097801      -34.7281249802      -23.1381966138  TIP3      6730            0.0000000000
     42510      6922  TIP3      H2             23.7476224856      -33.8466292476      -21.8896864373  TIP3      6730            0.0000000000
     42511      6923  TIP3      OH2            23.1274106777      -19.1291697526      -23.0424737799  TIP3      6731            0.0000000000
     42512      6923  TIP3      H1             22.8083425081      -18.8073632958      -22.1806266842  TIP3      6731            0.0000000000
     42513      6923  TIP3      H2             23.8806576296      -19.6900038468      -22.8080672255  TIP3      6731            0.0000000000
     42514      6924  TIP3      OH2           -26.1685626059      -10.0614669524      -22.3351311794  TIP3      6732            0.0000000000
     42515      6924  TIP3      H1            -25.4412188788       -9.9885860764      -21.7006532932  TIP3      6732            0.0000000000
     42516      6924  TIP3      H2            -25.7789553576      -10.6585101846      -22.9893611309  TIP3      6732            0.0000000000
     42517      6925  TIP3      OH2           -18.9666505828       -3.0501418029      -22.7601980328  TIP3      6733            0.0000000000
     42518      6925  TIP3      H1            -19.0467393790       -2.1914339791      -22.2849594350  TIP3      6733            0.0000000000
     42519      6925  TIP3      H2            -18.1117942463       -3.3354897455      -22.4188241158  TIP3      6733            0.0000000000
     42520      6926  TIP3      OH2           -30.0202308642      -13.8537916699      -23.3333055173  TIP3      6734            0.0000000000
     42521      6926  TIP3      H1            -30.4694539930      -14.2024073106      -22.5392936291  TIP3      6734            0.0000000000
     42522      6926  TIP3      H2            -30.7425234311      -13.3699948750      -23.7573269362  TIP3      6734            0.0000000000
     42523      6927  TIP3      OH2           -22.9142944162       -4.8509527943      -22.2136317513  TIP3      6735            0.0000000000
     42524      6927  TIP3      H1            -22.5073675133       -5.0740102026      -21.3611838895  TIP3      6735            0.0000000000
     42525      6927  TIP3      H2            -23.8373267264       -4.8816071342      -21.9925830663  TIP3      6735            0.0000000000
     42526      6928  TIP3      OH2           -18.3894217641       -0.3474379991      -21.9344354335  TIP3      6736            0.0000000000
     42527      6928  TIP3      H1            -17.6439831998        0.2547615909      -22.0458624444  TIP3      6736            0.0000000000
     42528      6928  TIP3      H2            -19.0846072782        0.2048762365      -21.5691894419  TIP3      6736            0.0000000000
     42529      6929  TIP3      OH2           -28.7199264732       -3.6534155976      -23.6428470586  TIP3      6737            0.0000000000
     42530      6929  TIP3      H1            -28.6423100354       -4.3883733580      -24.2814523846  TIP3      6737            0.0000000000
     42531      6929  TIP3      H2            -29.1300798480       -4.1356618345      -22.9153953429  TIP3      6737            0.0000000000
     42532      6930  TIP3      OH2           -31.0658874599      -14.6629383746      -20.9004966593  TIP3      6738            0.0000000000
     42533      6930  TIP3      H1            -31.1489950344      -13.7606657091      -20.5556954892  TIP3      6738            0.0000000000
     42534      6930  TIP3      H2            -30.1880231682      -14.9530812921      -20.6195896862  TIP3      6738            0.0000000000
     42535      6931  TIP3      OH2           -32.8530944525       -4.2258772874      -21.9200791012  TIP3      6739            0.0000000000
     42536      6931  TIP3      H1            -32.2011789045       -3.6486010571      -21.5070084045  TIP3      6739            0.0000000000
     42537      6931  TIP3      H2            -32.2844896495       -4.7728512424      -22.4960865136  TIP3      6739            0.0000000000
     42538      6932  TIP3      OH2           -31.2595473091       -6.1192475499      -23.4696393615  TIP3      6740            0.0000000000
     42539      6932  TIP3      H1            -31.0716908865       -6.8899900530      -22.9076322430  TIP3      6740            0.0000000000
     42540      6932  TIP3      H2            -30.5281878168       -6.2246559674      -24.1167956728  TIP3      6740            0.0000000000
     42541      6933  TIP3      OH2           -28.9650402413       -9.8807810049      -22.8809225482  TIP3      6741            0.0000000000
     42542      6933  TIP3      H1            -29.1911102478       -9.9526029771      -23.8162496741  TIP3      6741            0.0000000000
     42543      6933  TIP3      H2            -28.0065016043       -9.8030010806      -22.8547284239  TIP3      6741            0.0000000000
     42544      6934  TIP3      OH2           -35.4701829056       -4.5247143183      -22.3286399644  TIP3      6742            0.0000000000
     42545      6934  TIP3      H1            -34.5202135230       -4.4568441882      -22.1121413062  TIP3      6742            0.0000000000
     42546      6934  TIP3      H2            -35.4834796947       -5.1988782967      -23.0303714114  TIP3      6742            0.0000000000
     42547      6935  TIP3      OH2           -33.3711077990      -15.1961893173      -22.4912545149  TIP3      6743            0.0000000000
     42548      6935  TIP3      H1            -32.7926162056      -15.7771268007      -23.0118784840  TIP3      6743            0.0000000000
     42549      6935  TIP3      H2            -32.7146305518      -14.8536203414      -21.8426543639  TIP3      6743            0.0000000000
     42550      6936  TIP3      OH2           -26.5211647094       -0.0873062571      -21.6456908534  TIP3      6744            0.0000000000
     42551      6936  TIP3      H1            -25.6627985463        0.3493025722      -21.7549971988  TIP3      6744            0.0000000000
     42552      6936  TIP3      H2            -26.7320761192       -0.3425848584      -22.5301825087  TIP3      6744            0.0000000000
     42553      6937  TIP3      OH2            -3.6560392916       -8.0617779545      -23.0489882999  TIP3      6745            0.0000000000
     42554      6937  TIP3      H1             -3.6037487111       -8.3445882107      -23.9793516081  TIP3      6745            0.0000000000
     42555      6937  TIP3      H2             -2.7552492437       -7.7545578039      -22.8614585076  TIP3      6745            0.0000000000
     42556      6938  TIP3      OH2             0.3576398611      -11.6044286539      -20.4402458991  TIP3      6746            0.0000000000
     42557      6938  TIP3      H1             -0.2863492037      -11.9138493222      -21.0987008238  TIP3      6746            0.0000000000
     42558      6938  TIP3      H2              0.3203947764      -10.6678134651      -20.6532068444  TIP3      6746            0.0000000000
     42559      6939  TIP3      OH2           -15.9942511447       -8.7906346611      -22.1716301396  TIP3      6747            0.0000000000
     42560      6939  TIP3      H1            -15.3369672780       -8.1808375984      -21.7995155276  TIP3      6747            0.0000000000
     42561      6939  TIP3      H2            -16.8460901090       -8.4139466194      -21.9304486688  TIP3      6747            0.0000000000
     42562      6940  TIP3      OH2            -3.9937066088       -4.7358652616      -22.1614268545  TIP3      6748            0.0000000000
     42563      6940  TIP3      H1             -3.6393763351       -5.2211268099      -21.4114750356  TIP3      6748            0.0000000000
     42564      6940  TIP3      H2             -4.9342624013       -4.9401356685      -22.1408508941  TIP3      6748            0.0000000000
     42565      6941  TIP3      OH2            -9.7887314338       -3.6682374678      -23.6312962174  TIP3      6749            0.0000000000
     42566      6941  TIP3      H1             -9.7644235833       -4.4178789094      -24.2534068534  TIP3      6749            0.0000000000
     42567      6941  TIP3      H2            -10.2723008623       -4.0777485901      -22.8782534736  TIP3      6749            0.0000000000
     42568      6942  TIP3      OH2           -10.9732135901       -4.1094557374      -21.1990359740  TIP3      6750            0.0000000000
     42569      6942  TIP3      H1            -10.8371370439       -4.6542229583      -20.4130936489  TIP3      6750            0.0000000000
     42570      6942  TIP3      H2            -10.9724189568       -3.1936015336      -20.8431284779  TIP3      6750            0.0000000000
     42571      6943  TIP3      OH2           -10.8757514298       -1.4390050474      -20.4999791144  TIP3      6751            0.0000000000
     42572      6943  TIP3      H1            -10.7525157873       -0.6110654545      -20.9968493562  TIP3      6751            0.0000000000
     42573      6943  TIP3      H2            -11.0919272794       -1.0701240186      -19.6293126256  TIP3      6751            0.0000000000
     42574      6944  TIP3      OH2           -13.9933784827       -4.1904255900      -21.9430032922  TIP3      6752            0.0000000000
     42575      6944  TIP3      H1            -13.3155366073       -3.6487702159      -21.5164202180  TIP3      6752            0.0000000000
     42576      6944  TIP3      H2            -13.4313117671       -4.7510494856      -22.4844161485  TIP3      6752            0.0000000000
     42577      6945  TIP3      OH2           -15.6450284683      -11.6053166047      -22.7835093226  TIP3      6753            0.0000000000
     42578      6945  TIP3      H1            -15.6989246956      -10.6774830810      -22.4941323815  TIP3      6753            0.0000000000
     42579      6945  TIP3      H2            -16.5552946676      -11.8112430118      -22.9795215064  TIP3      6753            0.0000000000
     42580      6946  TIP3      OH2            -7.8449533100       -1.8176256389      -23.5429152952  TIP3      6754            0.0000000000
     42581      6946  TIP3      H1             -8.5269573588       -2.4718426974      -23.2934245234  TIP3      6754            0.0000000000
     42582      6946  TIP3      H2             -7.1019512848       -2.3835024545      -23.7866011692  TIP3      6754            0.0000000000
     42583      6947  TIP3      OH2            -3.3063837538       -2.0758203863      -23.3382189405  TIP3      6755            0.0000000000
     42584      6947  TIP3      H1             -2.9849397113       -2.8093603076      -22.8012578156  TIP3      6755            0.0000000000
     42585      6947  TIP3      H2             -2.5574024974       -1.8166056107      -23.8941690704  TIP3      6755            0.0000000000
     42586      6948  TIP3      OH2            -6.9081440173       -5.0320199959      -23.6534487561  TIP3      6756            0.0000000000
     42587      6948  TIP3      H1             -7.3808828859       -4.9138706902      -22.8343278255  TIP3      6756            0.0000000000
     42588      6948  TIP3      H2             -7.1610768534       -5.9589846459      -23.8756683029  TIP3      6756            0.0000000000
     42589      6949  TIP3      OH2           -10.1120741914      -10.0676174862      -22.9044598012  TIP3      6757            0.0000000000
     42590      6949  TIP3      H1            -10.3662418421       -9.9295662069      -23.8392737924  TIP3      6757            0.0000000000
     42591      6949  TIP3      H2             -9.2173214198       -9.7350373690      -22.8943969778  TIP3      6757            0.0000000000
     42592      6950  TIP3      OH2            -0.7736299417       -7.5844677243      -23.4758180434  TIP3      6758            0.0000000000
     42593      6950  TIP3      H1             -0.9801407984       -7.9301173997      -24.3501674306  TIP3      6758            0.0000000000
     42594      6950  TIP3      H2             -0.6920799249       -6.6149193890      -23.6132242850  TIP3      6758            0.0000000000
     42595      6951  TIP3      OH2           -16.7361426573       -4.5903946204      -22.4201544552  TIP3      6759            0.0000000000
     42596      6951  TIP3      H1            -15.7972766002       -4.4575758903      -22.1363741787  TIP3      6759            0.0000000000
     42597      6951  TIP3      H2            -16.6459376163       -5.2731628618      -23.1009799775  TIP3      6759            0.0000000000
     42598      6952  TIP3      OH2            -1.0734627890      -11.5082524945      -22.7672356907  TIP3      6760            0.0000000000
     42599      6952  TIP3      H1             -1.1797483461      -10.7987869980      -23.4121636753  TIP3      6760            0.0000000000
     42600      6952  TIP3      H2             -1.4423889678      -12.2887869633      -23.2211354862  TIP3      6760            0.0000000000
     42601      6953  TIP3      OH2            -2.0037419500      -14.0190407834      -23.5614117032  TIP3      6761            0.0000000000
     42602      6953  TIP3      H1             -1.3861404031      -14.4743095965      -22.9487672994  TIP3      6761            0.0000000000
     42603      6953  TIP3      H2             -2.8238175736      -14.4962206872      -23.4289247711  TIP3      6761            0.0000000000
     42604      6954  TIP3      OH2             0.0518045572      -15.1263889499      -22.0776469931  TIP3      6762            0.0000000000
     42605      6954  TIP3      H1              0.4393601765      -15.9343230453      -22.4871698097  TIP3      6762            0.0000000000
     42606      6954  TIP3      H2              0.8119271463      -14.5553971461      -21.9677076341  TIP3      6762            0.0000000000
     42607      6955  TIP3      OH2            -7.5376451335       -0.0192396743      -21.6116357920  TIP3      6763            0.0000000000
     42608      6955  TIP3      H1             -6.7333477756        0.4736753066      -21.8369355227  TIP3      6763            0.0000000000
     42609      6955  TIP3      H2             -7.8064506121       -0.4061089132      -22.4601008937  TIP3      6763            0.0000000000
     42610      6956  TIP3      OH2           -14.6781622275       -0.2378101027      -23.0517387814  TIP3      6764            0.0000000000
     42611      6956  TIP3      H1            -14.9132400904       -0.0098642324      -22.1422717909  TIP3      6764            0.0000000000
     42612      6956  TIP3      H2            -13.8773581299       -0.7793017553      -22.8894426821  TIP3      6764            0.0000000000
     42613      6957  TIP3      OH2            15.2381641469       -8.1518506317      -23.0418425731  TIP3      6765            0.0000000000
     42614      6957  TIP3      H1             15.2351546060       -8.3459012920      -23.9975578278  TIP3      6765            0.0000000000
     42615      6957  TIP3      H2             16.0430300593       -7.6906868929      -22.8922948538  TIP3      6765            0.0000000000
     42616      6958  TIP3      OH2             6.3050045557      -11.0001243390      -21.8917131429  TIP3      6766            0.0000000000
     42617      6958  TIP3      H1              5.7231607791      -11.3898127479      -22.5723863458  TIP3      6766            0.0000000000
     42618      6958  TIP3      H2              7.0864800217      -10.7834330575      -22.3761535867  TIP3      6766            0.0000000000
     42619      6959  TIP3      OH2            14.2823451069      -11.8473787668      -20.2609204711  TIP3      6767            0.0000000000
     42620      6959  TIP3      H1             15.1074280733      -11.8865998177      -19.7546502063  TIP3      6767            0.0000000000
     42621      6959  TIP3      H2             14.3115403977      -10.9500834927      -20.6128392423  TIP3      6767            0.0000000000
     42622      6960  TIP3      OH2            11.6766190171       -4.9721495478      -21.0826452519  TIP3      6768            0.0000000000
     42623      6960  TIP3      H1             11.4559219123       -4.1557891310      -20.6049334474  TIP3      6768            0.0000000000
     42624      6960  TIP3      H2             11.1450047295       -5.6295732429      -20.6317451671  TIP3      6768            0.0000000000
     42625      6961  TIP3      OH2             2.8912986799       -8.8185986675      -22.1300622260  TIP3      6769            0.0000000000
     42626      6961  TIP3      H1              3.4923504124       -8.1393321416      -21.8028180107  TIP3      6769            0.0000000000
     42627      6961  TIP3      H2              2.0071355346       -8.4457323755      -21.9969025470  TIP3      6769            0.0000000000
     42628      6962  TIP3      OH2            14.9148553820       -4.7795214835      -22.1256897568  TIP3      6770            0.0000000000
     42629      6962  TIP3      H1             15.1374276109       -5.2169705840      -21.2981335009  TIP3      6770            0.0000000000
     42630      6962  TIP3      H2             13.9384629359       -4.8915352241      -22.0723272925  TIP3      6770            0.0000000000
     42631      6963  TIP3      OH2             6.6453464727      -14.6645417281      -20.9426040233  TIP3      6771            0.0000000000
     42632      6963  TIP3      H1              6.5159746756      -13.8192019863      -20.4932426998  TIP3      6771            0.0000000000
     42633      6963  TIP3      H2              7.4865816356      -14.9706284534      -20.5783481902  TIP3      6771            0.0000000000
     42634      6964  TIP3      OH2             4.9308041707       -4.2545602886      -21.8225723587  TIP3      6772            0.0000000000
     42635      6964  TIP3      H1              5.5395224364       -3.5699507465      -21.5376670021  TIP3      6772            0.0000000000
     42636      6964  TIP3      H2              5.3838776436       -4.6741492375      -22.5580290788  TIP3      6772            0.0000000000
     42637      6965  TIP3      OH2             3.2613182044      -11.5641826826      -22.7272622198  TIP3      6773            0.0000000000
     42638      6965  TIP3      H1              3.1945454342      -10.6310351752      -22.4592132753  TIP3      6773            0.0000000000
     42639      6965  TIP3      H2              2.3550412656      -11.8157361776      -22.9250084528  TIP3      6773            0.0000000000
     42640      6966  TIP3      OH2            15.5718795437       -2.0344333645      -23.3445801346  TIP3      6774            0.0000000000
     42641      6966  TIP3      H1             15.8276565733       -2.8257678433      -22.8578285724  TIP3      6774            0.0000000000
     42642      6966  TIP3      H2             16.3162054365       -1.8142966307      -23.9149881157  TIP3      6774            0.0000000000
     42643      6967  TIP3      OH2            11.8934948550       -5.0171095314      -23.7603327193  TIP3      6775            0.0000000000
     42644      6967  TIP3      H1             11.6562493488       -4.8945796130      -22.8147375355  TIP3      6775            0.0000000000
     42645      6967  TIP3      H2             11.6847975141       -5.9641683380      -23.8912280041  TIP3      6775            0.0000000000
     42646      6968  TIP3      OH2             8.5738933314        0.8758309171      -21.8053046597  TIP3      6776            0.0000000000
     42647      6968  TIP3      H1              9.5499295043        0.9002530224      -21.7631876001  TIP3      6776            0.0000000000
     42648      6968  TIP3      H2              8.4372322929        1.4190857018      -22.5899076028  TIP3      6776            0.0000000000
     42649      6969  TIP3      OH2            17.6886642568      -11.4468580932      -22.7276683828  TIP3      6777            0.0000000000
     42650      6969  TIP3      H1             17.6597267003      -10.8275234924      -23.4418924996  TIP3      6777            0.0000000000
     42651      6969  TIP3      H2             17.4532025534      -12.2980900471      -23.1592383589  TIP3      6777            0.0000000000
     42652      6970  TIP3      OH2            16.7105249740      -13.8803821815      -23.3906174279  TIP3      6778            0.0000000000
     42653      6970  TIP3      H1             17.4655627962      -14.3917995199      -23.0452889444  TIP3      6778            0.0000000000
     42654      6970  TIP3      H2             15.9857622072      -14.5107172047      -23.4180493651  TIP3      6778            0.0000000000
     42655      6971  TIP3      OH2             2.4964535528      -17.1018623788      -20.9582100460  TIP3      6779            0.0000000000
     42656      6971  TIP3      H1              2.9591876294      -16.4859011211      -21.5213563556  TIP3      6779            0.0000000000
     42657      6971  TIP3      H2              1.8419541431      -16.6001241047      -20.4837265152  TIP3      6779            0.0000000000
     42658      6972  TIP3      OH2             4.3446611318      -15.2408051367      -22.4447485163  TIP3      6780            0.0000000000
     42659      6972  TIP3      H1              4.8732148401      -15.8097945361      -23.0269935027  TIP3      6780            0.0000000000
     42660      6972  TIP3      H2              5.0182789301      -14.8852008002      -21.8313943130  TIP3      6780            0.0000000000
     42661      6973  TIP3      OH2             4.2098948758       -0.2251742132      -23.0485488659  TIP3      6781            0.0000000000
     42662      6973  TIP3      H1              3.8939591121       -0.0085480183      -22.1756916941  TIP3      6781            0.0000000000
     42663      6973  TIP3      H2              4.9730988258       -0.8196297621      -22.9203675368  TIP3      6781            0.0000000000
     42664      6974  TIP3      OH2            30.3472916561      -10.0440802911      -22.3958927060  TIP3      6782            0.0000000000
     42665      6974  TIP3      H1             30.9725872902      -10.0090240949      -21.6526607211  TIP3      6782            0.0000000000
     42666      6974  TIP3      H2             30.7990472914      -10.6939987383      -22.9468268316  TIP3      6782            0.0000000000
     42667      6975  TIP3      OH2            32.8192914328       -0.3511592428      -21.8244343488  TIP3      6783            0.0000000000
     42668      6975  TIP3      H1             33.3574694206       -1.0151429080      -22.3018503202  TIP3      6783            0.0000000000
     42669      6975  TIP3      H2             33.0015143793       -0.5356809663      -20.8930795961  TIP3      6783            0.0000000000
     42670      6976  TIP3      OH2            34.1033954939       -8.1189373009      -22.9942728371  TIP3      6784            0.0000000000
     42671      6976  TIP3      H1             34.1012099450       -8.3512118559      -23.9503214988  TIP3      6784            0.0000000000
     42672      6976  TIP3      H2             34.9399764332       -7.6811163975      -22.9069349407  TIP3      6784            0.0000000000
     42673      6977  TIP3      OH2            29.6493707184      -14.2160413535      -22.4334521318  TIP3      6785            0.0000000000
     42674      6977  TIP3      H1             29.3978800576      -14.2386759353      -21.4923234206  TIP3      6785            0.0000000000
     42675      6977  TIP3      H2             29.4393542859      -15.1202448157      -22.6960620709  TIP3      6785            0.0000000000
     42676      6978  TIP3      OH2            20.9942462284      -13.3556638659      -20.8601697631  TIP3      6786            0.0000000000
     42677      6978  TIP3      H1             21.5592029700      -12.7401297768      -21.3322189240  TIP3      6786            0.0000000000
     42678      6978  TIP3      H2             20.3255708578      -12.8288654894      -20.4096292028  TIP3      6786            0.0000000000
     42679      6979  TIP3      OH2            25.1361268162      -10.9543312445      -21.9244284601  TIP3      6787            0.0000000000
     42680      6979  TIP3      H1             24.6214684289      -11.4264732627      -22.5911515426  TIP3      6787            0.0000000000
     42681      6979  TIP3      H2             25.9755938163      -10.7334741809      -22.3372157562  TIP3      6787            0.0000000000
     42682      6980  TIP3      OH2            32.3621429386      -13.7434383012      -21.8350847615  TIP3      6788            0.0000000000
     42683      6980  TIP3      H1             31.4230757677      -13.5283046601      -21.8861416343  TIP3      6788            0.0000000000
     42684      6980  TIP3      H2             32.6866123692      -12.9198412909      -21.3782654432  TIP3      6788            0.0000000000
     42685      6981  TIP3      OH2            33.0910152373      -11.8122812377      -20.3380729734  TIP3      6789            0.0000000000
     42686      6981  TIP3      H1             33.8795851924      -11.8206532716      -19.7630514931  TIP3      6789            0.0000000000
     42687      6981  TIP3      H2             33.2033655475      -10.8985287313      -20.5973442569  TIP3      6789            0.0000000000
     42688      6982  TIP3      OH2            33.7482203147       -4.8293036928      -22.1280214426  TIP3      6790            0.0000000000
     42689      6982  TIP3      H1             34.0308812515       -5.1436859377      -21.2630307152  TIP3      6790            0.0000000000
     42690      6982  TIP3      H2             32.7913085160       -4.8762013868      -22.0325514072  TIP3      6790            0.0000000000
     42691      6983  TIP3      OH2            23.7034152513       -4.2857449719      -21.8596289205  TIP3      6791            0.0000000000
     42692      6983  TIP3      H1             24.3016173149       -3.5847850027      -21.5418421622  TIP3      6791            0.0000000000
     42693      6983  TIP3      H2             24.2701090873       -4.7205612111      -22.5259679590  TIP3      6791            0.0000000000
     42694      6984  TIP3      OH2            22.1037097940      -11.5333100280      -22.8571456886  TIP3      6792            0.0000000000
     42695      6984  TIP3      H1             22.0464948531      -10.6770310202      -22.4210323426  TIP3      6792            0.0000000000
     42696      6984  TIP3      H2             21.1847567940      -11.8173467859      -22.9553732043  TIP3      6792            0.0000000000
     42697      6985  TIP3      OH2            34.3677913010       -2.0420324963      -23.3598472334  TIP3      6793            0.0000000000
     42698      6985  TIP3      H1             34.7141368259       -2.7544311862      -22.8082873060  TIP3      6793            0.0000000000
     42699      6985  TIP3      H2             35.1599722514       -1.8288328946      -23.8872735310  TIP3      6793            0.0000000000
     42700      6986  TIP3      OH2            25.3467134974       -6.0780091929      -23.4782764284  TIP3      6794            0.0000000000
     42701      6986  TIP3      H1             25.4276389840       -6.8792602225      -22.9472593789  TIP3      6794            0.0000000000
     42702      6986  TIP3      H2             26.0684320329       -6.2249352431      -24.1289939487  TIP3      6794            0.0000000000
     42703      6987  TIP3      OH2            30.7930208378       -5.0459706386      -23.6761489873  TIP3      6795            0.0000000000
     42704      6987  TIP3      H1             30.4285740747       -4.9405434320      -22.8132341111  TIP3      6795            0.0000000000
     42705      6987  TIP3      H2             30.5369073405       -5.9739830954      -23.8890491558  TIP3      6795            0.0000000000
     42706      6988  TIP3      OH2            27.5599299052      -10.0558357419      -22.9117548620  TIP3      6796            0.0000000000
     42707      6988  TIP3      H1             27.4086038874       -9.8942243998      -23.8620467908  TIP3      6796            0.0000000000
     42708      6988  TIP3      H2             28.4977738234       -9.8016442840      -22.7847020874  TIP3      6796            0.0000000000
     42709      6989  TIP3      OH2            27.4547387892        0.7844694537      -21.9138750388  TIP3      6797            0.0000000000
     42710      6989  TIP3      H1             28.3578828522        0.9915280476      -21.6575389675  TIP3      6797            0.0000000000
     42711      6989  TIP3      H2             27.2798648285        1.4728671718      -22.5537560356  TIP3      6797            0.0000000000
     42712      6990  TIP3      OH2            20.9491764569       -4.6328341403      -22.3410577151  TIP3      6798            0.0000000000
     42713      6990  TIP3      H1             21.8949471056       -4.4248591075      -22.1538789476  TIP3      6798            0.0000000000
     42714      6990  TIP3      H2             21.0852236325       -5.2192684421      -23.1115830884  TIP3      6798            0.0000000000
     42715      6991  TIP3      OH2            36.3372831669      -11.4667050954      -22.7288893340  TIP3      6799            0.0000000000
     42716      6991  TIP3      H1             36.5481668192      -10.8739604747      -23.4386190339  TIP3      6799            0.0000000000
     42717      6991  TIP3      H2             36.3018094921      -12.3189505484      -23.1877252879  TIP3      6799            0.0000000000
     42718      6992  TIP3      OH2            35.7472169719      -14.1246016985      -23.6572664878  TIP3      6800            0.0000000000
     42719      6992  TIP3      H1             36.2831976625      -14.4401189988      -22.9358661070  TIP3      6800            0.0000000000
     42720      6992  TIP3      H2             34.8604208322      -14.4363546457      -23.4247420669  TIP3      6800            0.0000000000
     42721      6993  TIP3      OH2           -23.7003818484       18.6013686173      -21.8219370061  TIP3      6801            0.0000000000
     42722      6993  TIP3      H1            -23.2613072121       17.8940408554      -22.3293738865  TIP3      6801            0.0000000000
     42723      6993  TIP3      H2            -23.6842855837       18.2796135365      -20.9151382980  TIP3      6801            0.0000000000
     42724      6994  TIP3      OH2           -30.0440291390        5.0178202968      -23.2609953984  TIP3      6802            0.0000000000
     42725      6994  TIP3      H1            -30.5002237272        4.6222452444      -22.5167455838  TIP3      6802            0.0000000000
     42726      6994  TIP3      H2            -30.7423039146        5.4843794927      -23.7514402586  TIP3      6802            0.0000000000
     42727      6995  TIP3      OH2           -35.3302443380        5.7940558224      -20.6131988153  TIP3      6803            0.0000000000
     42728      6995  TIP3      H1            -35.1115326582        6.1420245794      -21.4858611218  TIP3      6803            0.0000000000
     42729      6995  TIP3      H2            -36.2756331642        6.0243243112      -20.5693122261  TIP3      6803            0.0000000000
     42730      6996  TIP3      OH2           -25.9845116797       13.8079801174      -20.9569758480  TIP3      6804            0.0000000000
     42731      6996  TIP3      H1            -26.2176632770       14.6719094065      -20.5750085114  TIP3      6804            0.0000000000
     42732      6996  TIP3      H2            -26.7340080619       13.2628655823      -20.7192197824  TIP3      6804            0.0000000000
     42733      6997  TIP3      OH2           -18.4591360181       18.5035593701      -21.9851154629  TIP3      6805            0.0000000000
     42734      6997  TIP3      H1            -17.6288486822       18.9844307807      -22.0380725706  TIP3      6805            0.0000000000
     42735      6997  TIP3      H2            -19.1284060677       19.0741265277      -21.6114307818  TIP3      6805            0.0000000000
     42736      6998  TIP3      OH2           -28.6742821094       15.1955325810      -23.6537045341  TIP3      6806            0.0000000000
     42737      6998  TIP3      H1            -28.6280216454       14.4446703184      -24.2546842476  TIP3      6806            0.0000000000
     42738      6998  TIP3      H2            -29.1464354382       14.7864249977      -22.8955478705  TIP3      6806            0.0000000000
     42739      6999  TIP3      OH2           -29.6842963548       14.7365984097      -21.2075164031  TIP3      6807            0.0000000000
     42740      6999  TIP3      H1            -29.7497565484       14.2196536230      -20.4069552892  TIP3      6807            0.0000000000
     42741      6999  TIP3      H2            -29.9639093527       15.6126733871      -20.9105149416  TIP3      6807            0.0000000000
     42742      7000  TIP3      OH2           -26.7150266109       17.0606502068      -23.5462212913  TIP3      6808            0.0000000000
     42743      7000  TIP3      H1            -27.4089151240       16.4209962643      -23.2749186861  TIP3      6808            0.0000000000
     42744      7000  TIP3      H2            -25.9732193750       16.4944440615      -23.7775603013  TIP3      6808            0.0000000000
     42745      7001  TIP3      OH2           -22.1742297870       16.7691095002      -23.3534674182  TIP3      6809            0.0000000000
     42746      7001  TIP3      H1            -21.7731797112       16.0730662669      -22.8208280497  TIP3      6809            0.0000000000
     42747      7001  TIP3      H2            -21.4113080250       17.0628651534      -23.8859241112  TIP3      6809            0.0000000000
     42748      7002  TIP3      OH2           -31.1989226428       12.7796653397      -23.5027796190  TIP3      6810            0.0000000000
     42749      7002  TIP3      H1            -31.1738352837       11.9887166605      -22.9389347168  TIP3      6810            0.0000000000
     42750      7002  TIP3      H2            -30.4856667527       12.6096991651      -24.1301651538  TIP3      6810            0.0000000000
     42751      7003  TIP3      OH2           -25.7132176244       13.8073247244      -23.7178667559  TIP3      6811            0.0000000000
     42752      7003  TIP3      H1            -26.1262498653       14.0071062384      -22.8578897670  TIP3      6811            0.0000000000
     42753      7003  TIP3      H2            -26.1100944192       12.9508949242      -23.9137510767  TIP3      6811            0.0000000000
     42754      7004  TIP3      OH2           -29.9683483488       10.7277512171      -21.1008375650  TIP3      6812            0.0000000000
     42755      7004  TIP3      H1            -30.5541636037       10.2603182073      -20.5018748781  TIP3      6812            0.0000000000
     42756      7004  TIP3      H2            -29.8285906255       10.0566253634      -21.7997322361  TIP3      6812            0.0000000000
     42757      7005  TIP3      OH2           -28.9729604261        8.9804771012      -22.8715966770  TIP3      6813            0.0000000000
     42758      7005  TIP3      H1            -29.2017905465        8.8390813375      -23.8095753684  TIP3      6813            0.0000000000
     42759      7005  TIP3      H2            -28.0309447453        9.0400336993      -22.9073039413  TIP3      6813            0.0000000000
     42760      7006  TIP3      OH2           -29.1297572999       19.6398199292      -21.8869357013  TIP3      6814            0.0000000000
     42761      7006  TIP3      H1            -28.1767235508       19.7494422609      -21.7077359107  TIP3      6814            0.0000000000
     42762      7006  TIP3      H2            -29.2614074825       20.3274641753      -22.5379846735  TIP3      6814            0.0000000000
     42763      7007  TIP3      OH2           -20.7853908832        4.7730118463      -23.6045201826  TIP3      6815            0.0000000000
     42764      7007  TIP3      H1            -20.1966216190        4.4745185493      -22.9010640107  TIP3      6815            0.0000000000
     42765      7007  TIP3      H2            -21.6059193575        4.3559390668      -23.3877104524  TIP3      6815            0.0000000000
     42766      7008  TIP3      OH2           -18.7139713791        3.6014912883      -21.9861352267  TIP3      6816            0.0000000000
     42767      7008  TIP3      H1            -18.3449795975        2.9340140925      -22.5895507912  TIP3      6816            0.0000000000
     42768      7008  TIP3      H2            -18.1749845266        4.3907009765      -22.0482994779  TIP3      6816            0.0000000000
     42769      7009  TIP3      OH2           -34.9130870377        1.7255385678      -22.0417222729  TIP3      6817            0.0000000000
     42770      7009  TIP3      H1            -34.5716002514        2.5659415514      -21.7194907001  TIP3      6817            0.0000000000
     42771      7009  TIP3      H2            -35.4879757881        1.6643856794      -21.2107027099  TIP3      6817            0.0000000000
     42772      7010  TIP3      OH2           -33.2483791785        3.8965591492      -22.6169220983  TIP3      6818            0.0000000000
     42773      7010  TIP3      H1            -32.9264933142        3.0655160456      -22.9750355980  TIP3      6818            0.0000000000
     42774      7010  TIP3      H2            -32.7855469577        3.9631197890      -21.7779161552  TIP3      6818            0.0000000000
     42775      7011  TIP3      OH2           -26.4459329808       19.0571279332      -21.7021351224  TIP3      6819            0.0000000000
     42776      7011  TIP3      H1            -25.5010746491       19.1739496044      -21.8545162595  TIP3      6819            0.0000000000
     42777      7011  TIP3      H2            -26.6716915703       18.3997697492      -22.3880650924  TIP3      6819            0.0000000000
     42778      7012  TIP3      OH2            -7.2642948388        8.9210978049      -22.3892710566  TIP3      6820            0.0000000000
     42779      7012  TIP3      H1             -6.6076517745        8.8289176460      -21.6840988940  TIP3      6820            0.0000000000
     42780      7012  TIP3      H2             -6.9554455767        8.1909497406      -22.9558693477  TIP3      6820            0.0000000000
     42781      7013  TIP3      OH2            -0.2352467989       15.8262925833      -22.5625990899  TIP3      6821            0.0000000000
     42782      7013  TIP3      H1             -0.1059679931       16.7466367236      -22.3471018548  TIP3      6821            0.0000000000
     42783      7013  TIP3      H2              0.6769381117       15.4799957116      -22.5334919578  TIP3      6821            0.0000000000
     42784      7014  TIP3      OH2            -3.6257405546       10.7704091100      -23.0010704581  TIP3      6822            0.0000000000
     42785      7014  TIP3      H1             -3.6334936776       10.5522126394      -23.9554096147  TIP3      6822            0.0000000000
     42786      7014  TIP3      H2             -2.7476449439       11.1538186343      -22.8859331649  TIP3      6822            0.0000000000
     42787      7015  TIP3      OH2           -11.2430278284        4.9846105099      -23.4036895563  TIP3      6823            0.0000000000
     42788      7015  TIP3      H1            -11.5872986558        4.5867156606      -22.5810339790  TIP3      6823            0.0000000000
     42789      7015  TIP3      H2            -11.9618102099        5.4520361877      -23.8281194614  TIP3      6823            0.0000000000
     42790      7016  TIP3      OH2           -12.4793129677        7.8040410039      -21.8823220937  TIP3      6824            0.0000000000
     42791      7016  TIP3      H1            -12.9884502212        7.4845748477      -22.6363483435  TIP3      6824            0.0000000000
     42792      7016  TIP3      H2            -11.6810509923        8.0865635133      -22.3525469552  TIP3      6824            0.0000000000
     42793      7017  TIP3      OH2             0.3332190788        7.2592665661      -20.4398598563  TIP3      6825            0.0000000000
     42794      7017  TIP3      H1             -0.2526348897        7.0185034205      -21.1653771671  TIP3      6825            0.0000000000
     42795      7017  TIP3      H2              0.4117366153        8.2161980037      -20.6397979904  TIP3      6825            0.0000000000
     42796      7018  TIP3      OH2            -3.9507843393       14.0861791012      -22.1278920523  TIP3      6826            0.0000000000
     42797      7018  TIP3      H1             -3.6642611352       13.6576028828      -21.3178293642  TIP3      6826            0.0000000000
     42798      7018  TIP3      H2             -4.9083597665       13.9347446121      -22.0842164761  TIP3      6826            0.0000000000
     42799      7019  TIP3      OH2            -9.8141667100       15.1661122078      -23.6538693809  TIP3      6827            0.0000000000
     42800      7019  TIP3      H1             -9.7722044877       14.3961508129      -24.2378620706  TIP3      6827            0.0000000000
     42801      7019  TIP3      H2            -10.2888508211       14.7945262127      -22.8716220525  TIP3      6827            0.0000000000
     42802      7020  TIP3      OH2           -10.9885371065       14.7047831239      -21.2271149217  TIP3      6828            0.0000000000
     42803      7020  TIP3      H1            -10.8943484430       14.2099727247      -20.4058124311  TIP3      6828            0.0000000000
     42804      7020  TIP3      H2            -10.9795239780       15.6275133052      -20.8944533264  TIP3      6828            0.0000000000
     42805      7021  TIP3      OH2           -14.5409143281       11.9720496032      -20.6600776873  TIP3      6829            0.0000000000
     42806      7021  TIP3      H1            -15.2588595876       12.3852331752      -20.1779267474  TIP3      6829            0.0000000000
     42807      7021  TIP3      H2            -14.0597746569       12.7553778126      -20.9895394188  TIP3      6829            0.0000000000
     42808      7022  TIP3      OH2            -8.2353008548       16.3674976203      -20.4737855649  TIP3      6830            0.0000000000
     42809      7022  TIP3      H1             -9.0654294260       16.8810362353      -20.3926888760  TIP3      6830            0.0000000000
     42810      7022  TIP3      H2             -7.7443276263       16.9269504290      -21.0883186182  TIP3      6830            0.0000000000
     42811      7023  TIP3      OH2           -10.8198164319       17.4425474865      -20.4870231473  TIP3      6831            0.0000000000
     42812      7023  TIP3      H1            -10.9130435013       18.2491832975      -21.0402605764  TIP3      6831            0.0000000000
     42813      7023  TIP3      H2            -11.1342966608       17.8046728240      -19.6461813364  TIP3      6831            0.0000000000
     42814      7024  TIP3      OH2           -13.9322934364       14.5808217132      -21.8371310825  TIP3      6832            0.0000000000
     42815      7024  TIP3      H1            -13.2905900994       15.2411213795      -21.5560364259  TIP3      6832            0.0000000000
     42816      7024  TIP3      H2            -13.4424070600       14.1373513210      -22.5476372121  TIP3      6832            0.0000000000
     42817      7025  TIP3      OH2            -7.8223498776       17.0462350332      -23.5054556081  TIP3      6833            0.0000000000
     42818      7025  TIP3      H1             -8.5439399372       16.4130233817      -23.2868253036  TIP3      6833            0.0000000000
     42819      7025  TIP3      H2             -7.1128596407       16.4568625241      -23.7865511856  TIP3      6833            0.0000000000
     42820      7026  TIP3      OH2            -3.2763534386       16.8270486513      -23.2994620227  TIP3      6834            0.0000000000
     42821      7026  TIP3      H1             -2.9916314581       16.0279893597      -22.8389297849  TIP3      6834            0.0000000000
     42822      7026  TIP3      H2             -2.5405721839       17.0206552028      -23.9034490046  TIP3      6834            0.0000000000
     42823      7027  TIP3      OH2           -12.3761616926       12.7620317383      -23.5162002216  TIP3      6835            0.0000000000
     42824      7027  TIP3      H1            -12.2986751518       11.9820418911      -22.9571578843  TIP3      6835            0.0000000000
     42825      7027  TIP3      H2            -11.6376026052       12.6285602565      -24.1348297065  TIP3      6835            0.0000000000
     42826      7028  TIP3      OH2            -6.8877798305       13.8472087562      -23.6721538126  TIP3      6836            0.0000000000
     42827      7028  TIP3      H1             -7.3241991654       13.9965872795      -22.8360197449  TIP3      6836            0.0000000000
     42828      7028  TIP3      H2             -7.1402652035       12.9142739213      -23.8793013630  TIP3      6836            0.0000000000
     42829      7029  TIP3      OH2           -10.1339239066        8.9333779390      -22.8839781566  TIP3      6837            0.0000000000
     42830      7029  TIP3      H1            -10.2918256498        8.8935214402      -23.8511168264  TIP3      6837            0.0000000000
     42831      7029  TIP3      H2             -9.1665177280        9.0537696366      -22.8645204088  TIP3      6837            0.0000000000
     42832      7030  TIP3      OH2            -0.7822551837       11.3148994141      -23.4375470956  TIP3      6838            0.0000000000
     42833      7030  TIP3      H1             -0.9852166118       10.9261326408      -24.3053202636  TIP3      6838            0.0000000000
     42834      7030  TIP3      H2             -0.6990198152       12.2697738557      -23.6586351587  TIP3      6838            0.0000000000
     42835      7031  TIP3      OH2             0.3807902660       10.0600985170      -21.2482561193  TIP3      6839            0.0000000000
     42836      7031  TIP3      H1             -0.1163304077       10.4875315610      -21.9779493254  TIP3      6839            0.0000000000
     42837      7031  TIP3      H2              0.3813275518       10.7620764831      -20.5823736749  TIP3      6839            0.0000000000
     42838      7032  TIP3      OH2            -1.2374350233        7.3499883599      -22.7134743440  TIP3      6840            0.0000000000
     42839      7032  TIP3      H1             -1.1452387396        8.0437713300      -23.3776833666  TIP3      6840            0.0000000000
     42840      7032  TIP3      H2             -1.4090659427        6.5830517408      -23.2557502833  TIP3      6840            0.0000000000
     42841      7033  TIP3      OH2           -16.3624771034        1.6889976365      -21.0001753290  TIP3      6841            0.0000000000
     42842      7033  TIP3      H1            -15.8600524589        2.3002850144      -21.5442638421  TIP3      6841            0.0000000000
     42843      7033  TIP3      H2            -16.9429519592        2.2362898017      -20.4626996181  TIP3      6841            0.0000000000
     42844      7034  TIP3      OH2            15.2377640329       10.7160244442      -22.9787097514  TIP3      6842            0.0000000000
     42845      7034  TIP3      H1             15.2343608774       10.5110515251      -23.9364932856  TIP3      6842            0.0000000000
     42846      7034  TIP3      H2             16.0929642438       11.1541608473      -22.8690546742  TIP3      6842            0.0000000000
     42847      7035  TIP3      OH2             7.6980654536        5.0371876609      -23.3269522259  TIP3      6843            0.0000000000
     42848      7035  TIP3      H1              7.2449796045        4.6772861022      -22.5543993259  TIP3      6843            0.0000000000
     42849      7035  TIP3      H2              6.9799254021        5.4894727640      -23.8058862781  TIP3      6843            0.0000000000
     42850      7036  TIP3      OH2             6.3978710604        7.6811692834      -21.8744536074  TIP3      6844            0.0000000000
     42851      7036  TIP3      H1              5.7707553588        7.5110941352      -22.5899203420  TIP3      6844            0.0000000000
     42852      7036  TIP3      H2              7.1578655087        8.0607071445      -22.3425281436  TIP3      6844            0.0000000000
     42853      7037  TIP3      OH2            13.4723151064        5.1726205561      -21.7023954463  TIP3      6845            0.0000000000
     42854      7037  TIP3      H1             12.5739263894        5.3747351948      -21.9526735997  TIP3      6845            0.0000000000
     42855      7037  TIP3      H2             13.8831729829        6.0239638063      -21.4919141011  TIP3      6845            0.0000000000
     42856      7038  TIP3      OH2             9.0234951573       15.1990956583      -23.6007727693  TIP3      6846            0.0000000000
     42857      7038  TIP3      H1              9.1054322646       14.4661935284      -24.2377451593  TIP3      6846            0.0000000000
     42858      7038  TIP3      H2              8.6224194320       14.7340008461      -22.8543949246  TIP3      6846            0.0000000000
     42859      7039  TIP3      OH2             4.2441540792       12.0192896215      -20.7377037074  TIP3      6847            0.0000000000
     42860      7039  TIP3      H1              3.6314545007       12.3752925494      -20.1125575562  TIP3      6847            0.0000000000
     42861      7039  TIP3      H2              4.8517039613       12.7323919605      -20.9785505732  TIP3      6847            0.0000000000
     42862      7040  TIP3      OH2             4.8939600626       14.5764883034      -21.8359305335  TIP3      6848            0.0000000000
     42863      7040  TIP3      H1              5.5206714342       15.2628345735      -21.5809811614  TIP3      6848            0.0000000000
     42864      7040  TIP3      H2              5.3986126215       14.1074419444      -22.5377822308  TIP3      6848            0.0000000000
     42865      7041  TIP3      OH2            11.0526515316       17.0552147196      -23.5631248337  TIP3      6849            0.0000000000
     42866      7041  TIP3      H1             10.3080507157       16.4691969316      -23.2581171408  TIP3      6849            0.0000000000
     42867      7041  TIP3      H2             11.6807127882       16.3698785955      -23.7583162620  TIP3      6849            0.0000000000
     42868      7042  TIP3      OH2             6.4688524851       12.8043674584      -23.5213436463  TIP3      6850            0.0000000000
     42869      7042  TIP3      H1              6.5567534954       12.0171452028      -22.9485833439  TIP3      6850            0.0000000000
     42870      7042  TIP3      H2              7.2021000945       12.6290525924      -24.1494364013  TIP3      6850            0.0000000000
     42871      7043  TIP3      OH2            11.9334116495       13.8667493946      -23.6959878169  TIP3      6851            0.0000000000
     42872      7043  TIP3      H1             11.5587873005       13.9413041471      -22.8146373755  TIP3      6851            0.0000000000
     42873      7043  TIP3      H2             11.7111970289       12.9173791511      -23.8774087699  TIP3      6851            0.0000000000
     42874      7044  TIP3      OH2             7.5381750186       10.7443410705      -21.2002971189  TIP3      6852            0.0000000000
     42875      7044  TIP3      H1              7.2334806095       10.1991630186      -20.4670882603  TIP3      6852            0.0000000000
     42876      7044  TIP3      H2              7.9666692759       10.0606457612      -21.7425225407  TIP3      6852            0.0000000000
     42877      7045  TIP3      OH2             8.7168792890        8.8664062123      -22.9210302161  TIP3      6853            0.0000000000
     42878      7045  TIP3      H1              8.5417398842        8.9004164074      -23.8786209969  TIP3      6853            0.0000000000
     42879      7045  TIP3      H2              9.6582627909        9.0769132800      -22.8417240335  TIP3      6853            0.0000000000
     42880      7046  TIP3      OH2            18.1040105595       11.2933724413      -23.4491853454  TIP3      6854            0.0000000000
     42881      7046  TIP3      H1             17.8719213082       10.9209205810      -24.3106138454  TIP3      6854            0.0000000000
     42882      7046  TIP3      H2             18.1735608933       12.2485964412      -23.6389025045  TIP3      6854            0.0000000000
     42883      7047  TIP3      OH2             8.6024698189       19.6344469706      -21.8655308423  TIP3      6855            0.0000000000
     42884      7047  TIP3      H1              9.5432150969       19.7756561221      -21.6764243884  TIP3      6855            0.0000000000
     42885      7047  TIP3      H2              8.4255660658       20.3028734552      -22.5323272391  TIP3      6855            0.0000000000
     42886      7048  TIP3      OH2             2.1360760754       14.2901741594      -22.3837587111  TIP3      6856            0.0000000000
     42887      7048  TIP3      H1              3.0917279641       14.3406249197      -22.1635258785  TIP3      6856            0.0000000000
     42888      7048  TIP3      H2              2.1714496317       13.5850346911      -23.0784090855  TIP3      6856            0.0000000000
     42889      7049  TIP3      OH2            16.8486130521        4.8007621614      -23.6057931428  TIP3      6857            0.0000000000
     42890      7049  TIP3      H1             17.4431907994        4.4247943546      -22.9281008068  TIP3      6857            0.0000000000
     42891      7049  TIP3      H2             16.0106306360        4.3761542261      -23.3858093657  TIP3      6857            0.0000000000
     42892      7050  TIP3      OH2            18.9468490885        3.6781899072      -22.0306532116  TIP3      6858            0.0000000000
     42893      7050  TIP3      H1             19.3115968330        2.9149921708      -22.5271406119  TIP3      6858            0.0000000000
     42894      7050  TIP3      H2             19.6233449533        4.3411480755      -21.9705675846  TIP3      6858            0.0000000000
     42895      7051  TIP3      OH2             4.3515666403        3.6168385712      -22.4599634926  TIP3      6859            0.0000000000
     42896      7051  TIP3      H1              4.8500704307        3.0274482361      -23.0583755170  TIP3      6859            0.0000000000
     42897      7051  TIP3      H2              4.9927714640        3.9820360087      -21.8534785583  TIP3      6859            0.0000000000
     42898      7052  TIP3      OH2            11.2910866371       18.9084899147      -21.6054242841  TIP3      6860            0.0000000000
     42899      7052  TIP3      H1             12.1143538806       19.2918308564      -21.8794430015  TIP3      6860            0.0000000000
     42900      7052  TIP3      H2             10.9878456107       18.4151850052      -22.3924540348  TIP3      6860            0.0000000000
     42901      7053  TIP3      OH2             4.1946832387       18.5948087878      -23.0225526236  TIP3      6861            0.0000000000
     42902      7053  TIP3      H1              3.9764423843       18.8913809534      -22.1344386138  TIP3      6861            0.0000000000
     42903      7053  TIP3      H2              4.9883560053       18.0398859321      -22.8873286204  TIP3      6861            0.0000000000
     42904      7054  TIP3      OH2            30.3829921365        8.8215419019      -22.3612820142  TIP3      6862            0.0000000000
     42905      7054  TIP3      H1             31.0554104319        8.8440534189      -21.6696205970  TIP3      6862            0.0000000000
     42906      7054  TIP3      H2             30.7338366883        8.1270674810      -22.9338307601  TIP3      6862            0.0000000000
     42907      7055  TIP3      OH2            32.9478955360       18.5841521041      -21.8637351952  TIP3      6863            0.0000000000
     42908      7055  TIP3      H1             33.3569193687       17.8178833012      -22.3236275335  TIP3      6863            0.0000000000
     42909      7055  TIP3      H2             32.9191673125       18.3258429337      -20.9263409363  TIP3      6863            0.0000000000
     42910      7056  TIP3      OH2            34.1294031373       10.7413076972      -22.9828175189  TIP3      6864            0.0000000000
     42911      7056  TIP3      H1             34.0746403135       10.5149037326      -23.9444461053  TIP3      6864            0.0000000000
     42912      7056  TIP3      H2             34.9982266820       11.1096904305      -22.9283629296  TIP3      6864            0.0000000000
     42913      7057  TIP3      OH2            29.6854902902        4.6227249598      -22.4335083957  TIP3      6865            0.0000000000
     42914      7057  TIP3      H1             29.3494150316        4.6649649279      -21.5120009904  TIP3      6865            0.0000000000
     42915      7057  TIP3      H2             29.3515257639        3.7496210981      -22.7014898894  TIP3      6865            0.0000000000
     42916      7058  TIP3      OH2            24.9871618511        7.9328796735      -22.0414612429  TIP3      6866            0.0000000000
     42917      7058  TIP3      H1             24.6422880830        7.4217747041      -22.7745341062  TIP3      6866            0.0000000000
     42918      7058  TIP3      H2             25.9219481072        8.0473869879      -22.3245790152  TIP3      6866            0.0000000000
     42919      7059  TIP3      OH2            30.5172131776       13.8839661187      -21.0723522513  TIP3      6867            0.0000000000
     42920      7059  TIP3      H1             30.3693426182       14.6095781887      -20.4532092119  TIP3      6867            0.0000000000
     42921      7059  TIP3      H2             29.9321367069       13.2164183385      -20.6777200753  TIP3      6867            0.0000000000
     42922      7060  TIP3      OH2            21.7219405890        9.9950678157      -22.0985099311  TIP3      6868            0.0000000000
     42923      7060  TIP3      H1             22.3393942428       10.6928570899      -21.8421280811  TIP3      6868            0.0000000000
     42924      7060  TIP3      H2             20.8635071523       10.4181152935      -21.9622279761  TIP3      6868            0.0000000000
     42925      7061  TIP3      OH2            33.0092597416       14.2763074620      -22.1697981861  TIP3      6869            0.0000000000
     42926      7061  TIP3      H1             33.6088411099       13.9046380721      -21.5125246571  TIP3      6869            0.0000000000
     42927      7061  TIP3      H2             32.1756402190       13.8346702467      -21.9503792311  TIP3      6869            0.0000000000
     42928      7062  TIP3      OH2            26.8569926822       14.7816551641      -21.2028350460  TIP3      6870            0.0000000000
     42929      7062  TIP3      H1             26.8330097147       14.1972775220      -20.4384141899  TIP3      6870            0.0000000000
     42930      7062  TIP3      H2             26.6354117149       15.6291036299      -20.8170208916  TIP3      6870            0.0000000000
     42931      7063  TIP3      OH2            22.0685746133        7.2079575009      -22.6713307536  TIP3      6871            0.0000000000
     42932      7063  TIP3      H1             22.1017928814        8.1816919925      -22.5012937486  TIP3      6871            0.0000000000
     42933      7063  TIP3      H2             21.1675376645        7.0946069312      -22.9757046380  TIP3      6871            0.0000000000
     42934      7064  TIP3      OH2            34.4133230643       16.8228410904      -23.3110347674  TIP3      6872            0.0000000000
     42935      7064  TIP3      H1             34.7214063766       16.0650813982      -22.8272331301  TIP3      6872            0.0000000000
     42936      7064  TIP3      H2             35.1570284348       17.0422307639      -23.9106739656  TIP3      6872            0.0000000000
     42937      7065  TIP3      OH2            25.2885635955       12.7129486618      -23.5171904077  TIP3      6873            0.0000000000
     42938      7065  TIP3      H1             25.4611354520       11.9730985972      -22.9271098654  TIP3      6873            0.0000000000
     42939      7065  TIP3      H2             26.0642140150       12.6444510296      -24.1061941847  TIP3      6873            0.0000000000
     42940      7066  TIP3      OH2            30.7186498724       13.8715835084      -23.7513622957  TIP3      6874            0.0000000000
     42941      7066  TIP3      H1             30.4501111635       13.9556567184      -22.8189164345  TIP3      6874            0.0000000000
     42942      7066  TIP3      H2             30.5329513963       12.9122610305      -23.8878985694  TIP3      6874            0.0000000000
     42943      7067  TIP3      OH2            27.5755074969        8.9451999837      -22.8999576599  TIP3      6875            0.0000000000
     42944      7067  TIP3      H1             27.4347100612        8.9103781212      -23.8626498252  TIP3      6875            0.0000000000
     42945      7067  TIP3      H2             28.5390891260        9.0778753060      -22.8367550199  TIP3      6875            0.0000000000
     42946      7068  TIP3      OH2            21.0174740608       14.2637444144      -22.3835837281  TIP3      6876            0.0000000000
     42947      7068  TIP3      H1             21.9485789039       14.3758921643      -22.1513387757  TIP3      6876            0.0000000000
     42948      7068  TIP3      H2             21.0431298449       13.6034467644      -23.1020473018  TIP3      6876            0.0000000000
     42949      7069  TIP3      OH2            36.3126442105        7.4066857018      -22.7287742590  TIP3      6877            0.0000000000
     42950      7069  TIP3      H1             36.5883497358        7.9913702289      -23.4396349376  TIP3      6877            0.0000000000
     42951      7069  TIP3      H2             36.3412408724        6.5317112409      -23.1482689768  TIP3      6877            0.0000000000
     42952      7070  TIP3      OH2            23.0875216073       18.6056799082      -23.0434741329  TIP3      6878            0.0000000000
     42953      7070  TIP3      H1             22.8094230296       18.8839180933      -22.1578226059  TIP3      6878            0.0000000000
     42954      7070  TIP3      H2             23.8399602628       18.0202204675      -22.8493546472  TIP3      6878            0.0000000000
     42955      7071  TIP3      OH2           -26.0932875143       27.7533903602      -22.4150150447  TIP3      6879            0.0000000000
     42956      7071  TIP3      H1            -25.5076446214       27.7071459330      -21.6287153404  TIP3      6879            0.0000000000
     42957      7071  TIP3      H2            -25.8880507145       26.9272255364      -22.8551666763  TIP3      6879            0.0000000000
     42958      7072  TIP3      OH2           -23.9597772379       28.5512549671      -20.7239526144  TIP3      6880            0.0000000000
     42959      7072  TIP3      H1            -23.4023213090       28.6587954070      -19.9414669535  TIP3      6880            0.0000000000
     42960      7072  TIP3      H2            -23.5461433664       29.0373435988      -21.4327737903  TIP3      6880            0.0000000000
     42961      7073  TIP3      OH2           -19.0483554276       34.7041626427      -22.5483754133  TIP3      6881            0.0000000000
     42962      7073  TIP3      H1            -18.8959199031       35.6403344318      -22.3535860068  TIP3      6881            0.0000000000
     42963      7073  TIP3      H2            -18.1438540718       34.3404833882      -22.4476213305  TIP3      6881            0.0000000000
     42964      7074  TIP3      OH2           -30.0757515823       23.8190525001      -23.3306654285  TIP3      6882            0.0000000000
     42965      7074  TIP3      H1            -30.4727629061       23.5089097675      -22.5119357560  TIP3      6882            0.0000000000
     42966      7074  TIP3      H2            -30.7759393954       24.3151509218      -23.7698160102  TIP3      6882            0.0000000000
     42967      7075  TIP3      OH2           -35.4828484425       24.4018866181      -20.8056479007  TIP3      6883            0.0000000000
     42968      7075  TIP3      H1            -35.0213229428       25.0273232847      -21.3856461619  TIP3      6883            0.0000000000
     42969      7075  TIP3      H2            -36.2473291204       24.9194971777      -20.5097226870  TIP3      6883            0.0000000000
     42970      7076  TIP3      OH2           -31.4005042383       26.6415255811      -21.8935205125  TIP3      6884            0.0000000000
     42971      7076  TIP3      H1            -31.9479415014       26.3246366762      -22.6253910386  TIP3      6884            0.0000000000
     42972      7076  TIP3      H2            -30.5788122577       26.9148910910      -22.3270458947  TIP3      6884            0.0000000000
     42973      7077  TIP3      OH2           -25.9919266435       32.5444434670      -21.1510996617  TIP3      6885            0.0000000000
     42974      7077  TIP3      H1            -26.0618753060       33.4559855585      -20.7734435606  TIP3      6885            0.0000000000
     42975      7077  TIP3      H2            -26.6673483158       32.0377384361      -20.7066553714  TIP3      6885            0.0000000000
     42976      7078  TIP3      OH2           -22.8270834476       32.8505733353      -22.1592703212  TIP3      6886            0.0000000000
     42977      7078  TIP3      H1            -22.5286170831       32.5851037838      -21.2820815723  TIP3      6886            0.0000000000
     42978      7078  TIP3      H2            -23.7972113021       32.8532598319      -22.0562656837  TIP3      6886            0.0000000000
     42979      7079  TIP3      OH2           -28.7623904675       33.9860674364      -23.6613556714  TIP3      6887            0.0000000000
     42980      7079  TIP3      H1            -28.6461345725       33.2236903648      -24.2337433961  TIP3      6887            0.0000000000
     42981      7079  TIP3      H2            -29.1565755305       33.6045195827      -22.8716007373  TIP3      6887            0.0000000000
     42982      7080  TIP3      OH2           -29.9432812890       33.4943107544      -21.1867674838  TIP3      6888            0.0000000000
     42983      7080  TIP3      H1            -29.7220833859       33.0350302135      -20.3805534390  TIP3      6888            0.0000000000
     42984      7080  TIP3      H2            -29.9421671184       34.4464406431      -20.9727859278  TIP3      6888            0.0000000000
     42985      7081  TIP3      OH2           -26.3856633931       35.2376597106      -21.3148165237  TIP3      6889            0.0000000000
     42986      7081  TIP3      H1            -27.2275260007       35.4944020579      -20.8974498629  TIP3      6889            0.0000000000
     42987      7081  TIP3      H2            -26.2388266297       36.1558533248      -21.6007044402  TIP3      6889            0.0000000000
     42988      7082  TIP3      OH2           -30.7972854417      -36.7943097015      -20.4444156462  TIP3      6890            0.0000000000
     42989      7082  TIP3      H1            -30.1042643715      -36.4407605401      -21.0522214923  TIP3      6890            0.0000000000
     42990      7082  TIP3      H2            -30.2779349588      -36.6805986740      -19.6194374262  TIP3      6890            0.0000000000
     42991      7083  TIP3      OH2           -32.8640801289       33.4514844573      -21.8226352616  TIP3      6891            0.0000000000
     42992      7083  TIP3      H1            -32.2628285374       34.1567744903      -21.5275676254  TIP3      6891            0.0000000000
     42993      7083  TIP3      H2            -32.3106267832       33.0239011910      -22.4895618321  TIP3      6891            0.0000000000
     42994      7084  TIP3      OH2           -34.4061076246       26.1038607891      -22.8155079855  TIP3      6892            0.0000000000
     42995      7084  TIP3      H1            -34.4026950071       26.9959483408      -22.4452954040  TIP3      6892            0.0000000000
     42996      7084  TIP3      H2            -35.3579538919       25.9145667070      -22.9187414354  TIP3      6892            0.0000000000
     42997      7085  TIP3      OH2           -26.6663851725       35.4362077900      -24.1038116016  TIP3      6893            0.0000000000
     42998      7085  TIP3      H1            -27.2611652405       35.2172813622      -23.3601602303  TIP3      6893            0.0000000000
     42999      7085  TIP3      H2            -25.8170057496       35.2243746760      -23.7242724065  TIP3      6893            0.0000000000
     43000      7086  TIP3      OH2           -22.0663292902       35.6274162681      -23.2761327757  TIP3      6894            0.0000000000
     43001      7086  TIP3      H1            -21.7833034676       34.8453197004      -22.7955044136  TIP3      6894            0.0000000000
     43002      7086  TIP3      H2            -21.3084010195       35.8461906609      -23.8520669999  TIP3      6894            0.0000000000
     43003      7087  TIP3      OH2           -25.7296654913       32.6615659903      -23.7736515401  TIP3      6895            0.0000000000
     43004      7087  TIP3      H1            -26.0642292974       32.8453000945      -22.8714263647  TIP3      6895            0.0000000000
     43005      7087  TIP3      H2            -26.0406192975       31.7478115833      -23.8602144608  TIP3      6895            0.0000000000
     43006      7088  TIP3      OH2           -28.9991378059       27.8170602201      -22.8781678197  TIP3      6896            0.0000000000
     43007      7088  TIP3      H1            -29.1885055618       27.7708662286      -23.8303160987  TIP3      6896            0.0000000000
     43008      7088  TIP3      H2            -28.0316239204       27.8967027430      -22.8207580582  TIP3      6896            0.0000000000
     43009      7089  TIP3      OH2           -35.5202769088       33.1354759729      -22.2777846149  TIP3      6897            0.0000000000
     43010      7089  TIP3      H1            -34.5593889754       33.2595939882      -22.1145176950  TIP3      6897            0.0000000000
     43011      7089  TIP3      H2            -35.4848306815       32.5175430785      -23.0316162836  TIP3      6897            0.0000000000
     43012      7090  TIP3      OH2           -33.3373623562       22.5359163002      -22.5254341662  TIP3      6898            0.0000000000
     43013      7090  TIP3      H1            -32.8214962226       21.8707796561      -23.0138030005  TIP3      6898            0.0000000000
     43014      7090  TIP3      H2            -32.7382523285       22.8116883063      -21.8280326619  TIP3      6898            0.0000000000
     43015      7091  TIP3      OH2            -7.3246087537       27.7052939333      -22.3264904069  TIP3      6899            0.0000000000
     43016      7091  TIP3      H1             -6.6167874788       27.7299700379      -21.6471096679  TIP3      6899            0.0000000000
     43017      7091  TIP3      H2             -7.0402316781       27.0008924999      -22.8984375802  TIP3      6899            0.0000000000
     43018      7092  TIP3      OH2            -5.0746631251       28.4665978364      -20.7319643732  TIP3      6900            0.0000000000
     43019      7092  TIP3      H1             -4.5243015022       28.7062464880      -19.9734141856  TIP3      6900            0.0000000000
     43020      7092  TIP3      H2             -4.6972435015       29.0407260862      -21.4317667488  TIP3      6900            0.0000000000
     43021      7093  TIP3      OH2            -1.3752794039       20.2682697642      -20.8358125724  TIP3      6901            0.0000000000
     43022      7093  TIP3      H1             -2.2853138560       20.4346092562      -20.5868726987  TIP3      6901            0.0000000000
     43023      7093  TIP3      H2             -1.0998689629       21.0729139023      -21.2813817416  TIP3      6901            0.0000000000
     43024      7094  TIP3      OH2            -0.2145577378       34.6714486702      -22.4437421353  TIP3      6902            0.0000000000
     43025      7094  TIP3      H1             -0.1292945710       35.6151695317      -22.3604700621  TIP3      6902            0.0000000000
     43026      7094  TIP3      H2              0.6994241064       34.3712423457      -22.5290494367  TIP3      6902            0.0000000000
     43027      7095  TIP3      OH2            -3.6210711808       29.5644517933      -22.9707805513  TIP3      6903            0.0000000000
     43028      7095  TIP3      H1             -3.6144190420       29.3803957690      -23.9301332761  TIP3      6903            0.0000000000
     43029      7095  TIP3      H2             -2.7625164415       30.0007770326      -22.8774042565  TIP3      6903            0.0000000000
     43030      7096  TIP3      OH2            -8.0254453286       23.4895433379      -22.4713861668  TIP3      6904            0.0000000000
     43031      7096  TIP3      H1             -8.2724837240       23.4768635733      -21.5375312697  TIP3      6904            0.0000000000
     43032      7096  TIP3      H2             -8.3411316383       22.6084249368      -22.7056408213  TIP3      6904            0.0000000000
     43033      7097  TIP3      OH2           -12.5257123211       26.6520620680      -21.8763794563  TIP3      6905            0.0000000000
     43034      7097  TIP3      H1            -13.0821554146       26.3334102124      -22.5949620707  TIP3      6905            0.0000000000
     43035      7097  TIP3      H2            -11.7242252102       26.9111453288      -22.3433806891  TIP3      6905            0.0000000000
     43036      7098  TIP3      OH2           -13.9539052474       33.4321022395      -21.8628694578  TIP3      6906            0.0000000000
     43037      7098  TIP3      H1            -13.4382917195       34.1888584836      -21.5152080664  TIP3      6906            0.0000000000
     43038      7098  TIP3      H2            -13.4690365448       33.0685220581      -22.5977278585  TIP3      6906            0.0000000000
     43039      7099  TIP3      OH2           -15.6098181480       26.1271666504      -22.7871721710  TIP3      6907            0.0000000000
     43040      7099  TIP3      H1            -15.5668767374       27.0339591402      -22.4259811518  TIP3      6907            0.0000000000
     43041      7099  TIP3      H2            -16.5183214506       25.8931605912      -22.9219494551  TIP3      6907            0.0000000000
     43042      7100  TIP3      OH2            -7.8910088654       35.8613740585      -23.5319241243  TIP3      6908            0.0000000000
     43043      7100  TIP3      H1             -8.4721385369       35.2124837579      -23.1607647163  TIP3      6908            0.0000000000
     43044      7100  TIP3      H2             -7.0784503074       35.3872159606      -23.7270352923  TIP3      6908            0.0000000000
     43045      7101  TIP3      OH2           -11.1483264112       29.6283097924      -21.0629855513  TIP3      6909            0.0000000000
     43046      7101  TIP3      H1            -11.7270211419       29.0482291174      -20.5405455114  TIP3      6909            0.0000000000
     43047      7101  TIP3      H2            -10.9129221703       28.9729400414      -21.7578017332  TIP3      6909            0.0000000000
     43048      7102  TIP3      OH2           -10.1476377696       27.7601095983      -22.9059975758  TIP3      6910            0.0000000000
     43049      7102  TIP3      H1            -10.3190025915       27.7756793383      -23.8682089066  TIP3      6910            0.0000000000
     43050      7102  TIP3      H2             -9.1903093991       27.9351603391      -22.8355857064  TIP3      6910            0.0000000000
     43051      7103  TIP3      OH2            -0.7811676747       30.1219890165      -23.4604770144  TIP3      6911            0.0000000000
     43052      7103  TIP3      H1             -0.9868778488       29.7655369433      -24.3363698948  TIP3      6911            0.0000000000
     43053      7103  TIP3      H2             -0.6622542244       31.0817353432      -23.6218601505  TIP3      6911            0.0000000000
     43054      7104  TIP3      OH2           -16.7236753546       33.1214915588      -22.4072912949  TIP3      6912            0.0000000000
     43055      7104  TIP3      H1            -15.7864411361       33.1900056480      -22.1326300634  TIP3      6912            0.0000000000
     43056      7104  TIP3      H2            -16.6717839794       32.4325389078      -23.0935864333  TIP3      6912            0.0000000000
     43057      7105  TIP3      OH2            18.6697285270       34.6458987246      -22.5726459780  TIP3      6913            0.0000000000
     43058      7105  TIP3      H1             18.7046376641       35.5901253878      -22.3421549834  TIP3      6913            0.0000000000
     43059      7105  TIP3      H2             19.5916985835       34.3553541017      -22.4580297521  TIP3      6913            0.0000000000
     43060      7106  TIP3      OH2            15.1866425456       29.7048298245      -23.0281286196  TIP3      6914            0.0000000000
     43061      7106  TIP3      H1             15.2353012115       29.3732791953      -23.9409221381  TIP3      6914            0.0000000000
     43062      7106  TIP3      H2             16.0980203175       29.9763569320      -22.8623935510  TIP3      6914            0.0000000000
     43063      7107  TIP3      OH2            10.8236171101       23.4760402443      -22.4174135915  TIP3      6915            0.0000000000
     43064      7107  TIP3      H1             10.5415412418       23.4667178288      -21.5028934520  TIP3      6915            0.0000000000
     43065      7107  TIP3      H2             10.5128806012       22.6033421857      -22.7271294756  TIP3      6915            0.0000000000
     43066      7108  TIP3      OH2             7.6697804518       23.8821855286      -23.3198526668  TIP3      6916            0.0000000000
     43067      7108  TIP3      H1              7.2536621776       23.4981570679      -22.5370618988  TIP3      6916            0.0000000000
     43068      7108  TIP3      H2              6.9336642220       24.3119577465      -23.7691191888  TIP3      6916            0.0000000000
     43069      7109  TIP3      OH2             6.3074639624       26.6630488810      -21.8824289355  TIP3      6917            0.0000000000
     43070      7109  TIP3      H1              5.7833390822       26.2906793396      -22.6053391097  TIP3      6917            0.0000000000
     43071      7109  TIP3      H2              7.1213406322       26.8765738086      -22.3452200847  TIP3      6917            0.0000000000
     43072      7110  TIP3      OH2            13.4892892860       24.0501163432      -21.7012441769  TIP3      6918            0.0000000000
     43073      7110  TIP3      H1             12.5630579135       24.2110546132      -21.9381508174  TIP3      6918            0.0000000000
     43074      7110  TIP3      H2             13.8613331434       24.9206585245      -21.4741294088  TIP3      6918            0.0000000000
     43075      7111  TIP3      OH2            11.7741197823       32.7043344691      -20.9519978927  TIP3      6919            0.0000000000
     43076      7111  TIP3      H1             11.4536671927       33.5471603201      -20.5712910804  TIP3      6919            0.0000000000
     43077      7111  TIP3      H2             11.0527438755       32.1050325938      -20.7184598088  TIP3      6919            0.0000000000
     43078      7112  TIP3      OH2            14.9052872261       32.9352378622      -22.1430394286  TIP3      6920            0.0000000000
     43079      7112  TIP3      H1             15.1709606501       32.5067635081      -21.3260512377  TIP3      6920            0.0000000000
     43080      7112  TIP3      H2             13.9377497730       32.8659191808      -22.0640413810  TIP3      6920            0.0000000000
     43081      7113  TIP3      OH2             9.0036185827       34.0464183093      -23.6616454780  TIP3      6921            0.0000000000
     43082      7113  TIP3      H1              9.0949738189       33.2618069095      -24.2404002878  TIP3      6921            0.0000000000
     43083      7113  TIP3      H2              8.5719094532       33.5787406995      -22.9265862585  TIP3      6921            0.0000000000
     43084      7114  TIP3      OH2            10.5342595278       35.1151819472      -20.9349566900  TIP3      6922            0.0000000000
     43085      7114  TIP3      H1              9.9345514274       35.5873379963      -20.3032121056  TIP3      6922            0.0000000000
     43086      7114  TIP3      H2             11.1916383296       35.8069011283      -21.1022335424  TIP3      6922            0.0000000000
     43087      7115  TIP3      OH2             7.1150524608      -37.6500207786      -20.5368654083  TIP3      6923            0.0000000000
     43088      7115  TIP3      H1              7.4984533102      -36.8451346553      -20.8909935330  TIP3      6923            0.0000000000
     43089      7115  TIP3      H2              7.5615646013      -37.4548199021      -19.6774409572  TIP3      6923            0.0000000000
     43090      7116  TIP3      OH2             3.2377982047       26.1378966954      -22.7739590774  TIP3      6924            0.0000000000
     43091      7116  TIP3      H1              3.1899483616       27.0469357194      -22.4708823344  TIP3      6924            0.0000000000
     43092      7116  TIP3      H2              2.3249055583       25.8893773721      -22.9277642178  TIP3      6924            0.0000000000
     43093      7117  TIP3      OH2            11.0234702790       35.8803180207      -23.4659731169  TIP3      6925            0.0000000000
     43094      7117  TIP3      H1             10.3731050631       35.1605228807      -23.3196435505  TIP3      6925            0.0000000000
     43095      7117  TIP3      H2             11.7634046891       35.3469963615      -23.7928725860  TIP3      6925            0.0000000000
     43096      7118  TIP3      OH2            15.6217532513       35.6357837169      -23.2894324169  TIP3      6926            0.0000000000
     43097      7118  TIP3      H1             15.9254554104       34.8538222583      -22.8109334387  TIP3      6926            0.0000000000
     43098      7118  TIP3      H2             16.3953109079       35.8239107845      -23.8569569153  TIP3      6926            0.0000000000
     43099      7119  TIP3      OH2            11.8810808955       32.6902494923      -23.7088323554  TIP3      6927            0.0000000000
     43100      7119  TIP3      H1             11.6069042259       32.7907293091      -22.7827100849  TIP3      6927            0.0000000000
     43101      7119  TIP3      H2             11.7021471531       31.7341264066      -23.8624555834  TIP3      6927            0.0000000000
     43102      7120  TIP3      OH2            18.1372238687       30.2050161113      -23.5017328992  TIP3      6928            0.0000000000
     43103      7120  TIP3      H1             17.8293118585       29.7843712286      -24.3157859879  TIP3      6928            0.0000000000
     43104      7120  TIP3      H2             18.1039593951       31.1638812385      -23.6978392045  TIP3      6928            0.0000000000
     43105      7121  TIP3      OH2            18.9466175751       22.4898789112      -22.0111580943  TIP3      6929            0.0000000000
     43106      7121  TIP3      H1             19.3658890795       21.7592732092      -22.4826483581  TIP3      6929            0.0000000000
     43107      7121  TIP3      H2             19.6051554647       23.1876600551      -21.9358067015  TIP3      6929            0.0000000000
     43108      7122  TIP3      OH2             4.3673775233       22.5465431735      -22.4951239616  TIP3      6930            0.0000000000
     43109      7122  TIP3      H1              4.8380580262       21.8705586203      -23.0122698535  TIP3      6930            0.0000000000
     43110      7122  TIP3      H2              4.9862806028       22.7919064223      -21.8059197452  TIP3      6930            0.0000000000
     43111      7123  TIP3      OH2            30.4258488397       27.5998797802      -22.3498432167  TIP3      6931            0.0000000000
     43112      7123  TIP3      H1             31.0878025787       27.6477517993      -21.6635510088  TIP3      6931            0.0000000000
     43113      7123  TIP3      H2             30.7979776044       26.9812306924      -22.9799992946  TIP3      6931            0.0000000000
     43114      7124  TIP3      OH2            21.1015747632       24.3487946241      -20.7698001533  TIP3      6932            0.0000000000
     43115      7124  TIP3      H1             21.5386161308       24.9565290275      -21.3874274301  TIP3      6932            0.0000000000
     43116      7124  TIP3      H2             20.2982179313       24.8216854889      -20.5023020365  TIP3      6932            0.0000000000
     43117      7125  TIP3      OH2            30.6570619140       32.7183661851      -20.9230601027  TIP3      6933            0.0000000000
     43118      7125  TIP3      H1             30.2901581853       33.5587392668      -20.5922467025  TIP3      6933            0.0000000000
     43119      7125  TIP3      H2             29.9303883227       32.1117795498      -20.7309109725  TIP3      6933            0.0000000000
     43120      7126  TIP3      OH2            33.7785617930       32.8699325307      -22.1311791097  TIP3      6934            0.0000000000
     43121      7126  TIP3      H1             33.9936074996       32.5569191746      -21.2617327520  TIP3      6934            0.0000000000
     43122      7126  TIP3      H2             32.8052323423       32.8264132428      -22.0756589078  TIP3      6934            0.0000000000
     43123      7127  TIP3      OH2            27.6622474627       33.9926520495      -23.6462202218  TIP3      6935            0.0000000000
     43124      7127  TIP3      H1             27.9557757620       33.2653586333      -24.2189990426  TIP3      6935            0.0000000000
     43125      7127  TIP3      H2             27.5040847768       33.5238626079      -22.8307324687  TIP3      6935            0.0000000000
     43126      7128  TIP3      OH2            29.2456581713       34.9668551079      -20.4287305465  TIP3      6936            0.0000000000
     43127      7128  TIP3      H1             28.5797114486       35.6476109424      -20.3791848893  TIP3      6936            0.0000000000
     43128      7128  TIP3      H2             29.8776715200       35.4507289452      -21.0293613152  TIP3      6936            0.0000000000
     43129      7129  TIP3      OH2            22.0711331141       26.0649593949      -22.7114462507  TIP3      6937            0.0000000000
     43130      7129  TIP3      H1             22.1291237165       27.0079501529      -22.5096880099  TIP3      6937            0.0000000000
     43131      7129  TIP3      H2             21.1682247888       25.9126986597      -23.0009301480  TIP3      6937            0.0000000000
     43132      7130  TIP3      OH2            29.7032038839       35.4749991931      -24.2943373663  TIP3      6938            0.0000000000
     43133      7130  TIP3      H1             29.1614358453       35.3529905702      -23.4817921906  TIP3      6938            0.0000000000
     43134      7130  TIP3      H2             30.5588791517       35.4620975059      -23.8354255250  TIP3      6938            0.0000000000
     43135      7131  TIP3      OH2            34.5053314028       35.6274660895      -23.2496218666  TIP3      6939            0.0000000000
     43136      7131  TIP3      H1             34.7548546909       34.8009965891      -22.8341248106  TIP3      6939            0.0000000000
     43137      7131  TIP3      H2             35.2312736399       35.8180542637      -23.8667156899  TIP3      6939            0.0000000000
     43138      7132  TIP3      OH2            30.7807608945       32.6633293623      -23.7362554478  TIP3      6940            0.0000000000
     43139      7132  TIP3      H1             30.4745514277       32.7963413150      -22.8264219784  TIP3      6940            0.0000000000
     43140      7132  TIP3      H2             30.5518292610       31.7183071127      -23.8491385705  TIP3      6940            0.0000000000
     43141      7133  TIP3      OH2            20.9847788004       33.2280206369      -22.5071008871  TIP3      6941            0.0000000000
     43142      7133  TIP3      H1             21.8644800826       33.2040910401      -22.1309314687  TIP3      6941            0.0000000000
     43143      7133  TIP3      H2             21.0027237601       32.4632884804      -23.1226595257  TIP3      6941            0.0000000000
     43144      7134  TIP3      OH2            36.4171361404       26.2720975469      -22.7387652767  TIP3      6942            0.0000000000
     43145      7134  TIP3      H1             36.4702323653       26.8406814087      -23.4985732502  TIP3      6942            0.0000000000
     43146      7134  TIP3      H2             36.1859173023       25.4003214626      -23.1248944889  TIP3      6942            0.0000000000
     43147      7135  TIP3      OH2            35.7809274757       23.6112353281      -23.6773233961  TIP3      6943            0.0000000000
     43148      7135  TIP3      H1             36.2656300599       23.2824687839      -22.9202874498  TIP3      6943            0.0000000000
     43149      7135  TIP3      H2             34.8892515546       23.3143349827      -23.4237238303  TIP3      6943            0.0000000000
     43150      7136  TIP3      OH2            23.2207322939       22.5011191703      -22.5185704221  TIP3      6944            0.0000000000
     43151      7136  TIP3      H1             23.7152813285       21.8582906845      -23.0416443491  TIP3      6944            0.0000000000
     43152      7136  TIP3      H2             23.8094057862       22.7548628351      -21.8133150027  TIP3      6944            0.0000000000
     43153      7137  SOD       SOD           -20.2595453475      -13.1376301973       32.8787018728  IONS      1               1.0000000000
     43154      7138  SOD       SOD           -17.3752790723       11.7055463335       41.8977488023  IONS      2               1.0000000000
     43155      7139  SOD       SOD            16.9794998293       -6.9503175988       40.7641491072  IONS      3               1.0000000000
     43156      7140  SOD       SOD            12.5973006142       12.5933944946       36.7753180261  IONS      4               1.0000000000
     43157      7141  SOD       SOD             2.1252146220       11.9573719006      -36.6548955509  IONS      5               1.0000000000
     43158      7142  SOD       SOD           -16.1943719712       -2.2895804925      -27.5613589849  IONS      6               1.0000000000
     43159      7143  SOD       SOD           -12.2332375702      -32.3633164655      -36.2951564838  IONS      7               1.0000000000
     43160      7144  SOD       SOD           -22.0037539822      -14.9765190802      -25.6022417398  IONS      8               1.0000000000
     43161      7145  SOD       SOD           -19.1456092480      -19.1894948407      -33.4241057892  IONS      9               1.0000000000
     43162      7146  SOD       SOD           -22.1594815228      -13.7656571642      -39.4481310355  IONS      10              1.0000000000
     43163      7147  SOD       SOD            29.5747697730        0.1579054263       33.7809740951  IONS      11              1.0000000000
     43164      7148  SOD       SOD            24.9590672403      -25.6871868827       34.9145421991  IONS      12              1.0000000000
     43165      7149  SOD       SOD            -1.2446895094        0.7839002953       27.4382759694  IONS      13              1.0000000000
     43166      7150  SOD       SOD            17.7262305826      -10.1232110040      -33.6633405601  IONS      14              1.0000000000
     43167      7151  SOD       SOD           -11.7156205694      -10.2979520846       22.9683002399  IONS      15              1.0000000000
     43168      7152  SOD       SOD            17.7220626948       20.5172392396      -29.9821969419  IONS      16              1.0000000000
     43169      7153  SOD       SOD           -29.9362350574        7.4067469491       37.6365485661  IONS      17              1.0000000000
     43170      7154  SOD       SOD           -12.8876035140      -12.4394424495       33.6769110314  IONS      18              1.0000000000
     43171      7155  SOD       SOD           -25.5637901081      -34.3018976545       42.0184237093  IONS      19              1.0000000000
     43172      7156  SOD       SOD            10.3576004912      -28.7815843533       41.6865833305  IONS      20              1.0000000000
     43173      7157  SOD       SOD           -16.0415616053       14.1237042081       36.6003629584  IONS      21              1.0000000000
     43174      7158  SOD       SOD            -6.3316587637      -30.5253160227       35.3853913854  IONS      22              1.0000000000
     43175      7159  SOD       SOD            -3.7638852556      -21.7872675654       36.4174839904  IONS      23              1.0000000000
     43176      7160  SOD       SOD            -1.6967135594       -9.0394307354       34.1723358653  IONS      24              1.0000000000
     43177      7161  SOD       SOD           -25.2329097878       30.0223402838      -27.7912810358  IONS      25              1.0000000000
     43178      7162  SOD       SOD           -31.5160398538       -2.1344480156       42.4190174876  IONS      26              1.0000000000
     43179      7163  SOD       SOD             8.3711830896       25.6601659398      -28.4161817988  IONS      27              1.0000000000
     43180      7164  SOD       SOD            26.5807501451       -9.3877486251      -36.4922971387  IONS      28              1.0000000000
     43181      7165  SOD       SOD            15.2828644816        8.7031184835      -38.3325944734  IONS      29              1.0000000000
     43182      7166  SOD       SOD           -19.2694820054       28.2667964113       28.6861647554  IONS      30              1.0000000000
     43183      7167  SOD       SOD           -13.5163551385       36.6746984200       34.8058101403  IONS      31              1.0000000000
     43184      7168  SOD       SOD           -33.7397503271      -30.7631326931      -23.8159606598  IONS      32              1.0000000000
     43185      7169  SOD       SOD           -30.7974505561       24.7032179805       30.8391489230  IONS      33              1.0000000000
     43186      7170  SOD       SOD             1.7305884473       15.5039577676      -42.8062377986  IONS      34              1.0000000000
     43187      7171  SOD       SOD           -25.3023562131        5.7121832061       29.9191128394  IONS      35              1.0000000000
     43188      7172  SOD       SOD            16.9346173894      -31.1006884262      -39.6481934702  IONS      36              1.0000000000
     43189      7173  SOD       SOD            22.5132807197       21.8885630661       38.2895175857  IONS      37              1.0000000000
     43190      7174  CLA       CLA           -13.8284917781      -32.2032148512       39.9455005230  IONS      38             -1.0000000000
     43191      7175  CLA       CLA            15.5549999310      -34.1787683986       36.5242424142  IONS      39             -1.0000000000
     43192      7176  CLA       CLA            24.6058280602       29.5096201541      -41.0907558500  IONS      40             -1.0000000000
     43193      7177  CLA       CLA             6.2003557506       13.1371057708      -38.2866471334  IONS      41             -1.0000000000
     43194      7178  CLA       CLA            24.7569761230        6.1096219081       39.6742593894  IONS      42             -1.0000000000
     43195      7179  CLA       CLA            11.5750150422       24.8170366198      -39.6325479491  IONS      43             -1.0000000000
     43196      7180  CLA       CLA             5.7655034650      -23.3202479319       36.0604911705  IONS      44             -1.0000000000
     43197      7181  CLA       CLA           -21.2643086258        3.3179551173      -26.4134136844  IONS      45             -1.0000000000
     43198      7182  CLA       CLA            20.3640079956      -15.5716978481      -27.0187524011  IONS      46             -1.0000000000
     43199      7183  CLA       CLA           -10.2302277431       28.1744451039       25.2111800686  IONS      47             -1.0000000000
     43200      7184  CLA       CLA           -22.0454926198        2.5636026771       42.9540175116  IONS      48             -1.0000000000
     43201      7185  CLA       CLA            13.0523172104       -3.1470415373       39.9599292498  IONS      49             -1.0000000000
     43202      7186  CLA       CLA           -17.2639745700      -28.7725037813       41.3724167793  IONS      50             -1.0000000000
     43203      7187  CLA       CLA            13.1045183918      -26.0706093644      -39.3429074941  IONS      51             -1.0000000000
     43204      7188  CLA       CLA            31.5738026607       -0.8156908730       41.9339464164  IONS      52             -1.0000000000
     43205      7189  CLA       CLA           -22.5301213838      -20.3184381992       32.0317059251  IONS      53             -1.0000000000
     43206      7190  CLA       CLA             8.3680771266       14.4726089747      -29.3630540130  IONS      54             -1.0000000000
