;;
;; Generated by CHARMM-GUI (http://www.charmm-gui.org) v1.7
;;
;; psf2itp_mol.py
;;
;; Correspondance:
;; jul316@lehigh.edu or wonpil@lehigh.edu
;;
;; GROMACS topology file for LIG
;;


[ moleculetype ]
; name	nrexcl
LIG	     3

[ atoms ]
; nr	type	resnr	residu	atom	cgnr	charge	mass
     1      OG302      1      LIG     O1      1     -0.428    15.9994   ; qtot -0.428
     2      OG301      1      LIG     O2      2     -0.356    15.9994   ; qtot -0.784
     3      OG2D1      1      LIG     O3      3     -0.618    15.9994   ; qtot -1.402
     4     OG2R50      1      LIG     O4      4     -0.267    15.9994   ; qtot -1.669
     5      OG311      1      LIG     O5      5     -0.650    15.9994   ; qtot -2.319
     6      NG3P0      1      LIG      N      6     -0.280    14.0070   ; qtot -2.599
     7     CG3C54      1      LIG     C1      7     -0.351    12.0110   ; qtot -2.950
     8     CG3C54      1      LIG     C2      8     -0.363    12.0110   ; qtot -3.313
     9     CG3C51      1      LIG     C3      9      0.308    12.0110   ; qtot -3.005
    10     CG3C52      1      LIG     C4     10     -0.175    12.0110   ; qtot -3.180
    11      CG334      1      LIG     C5     11     -0.350    12.0110   ; qtot -3.530
    12      CG334      1      LIG     C6     12     -0.350    12.0110   ; qtot -3.880
    13      CG2O2      1      LIG     C7     13      0.956    12.0110   ; qtot -2.924
    14      CG301      1      LIG     C8     14     -0.098    12.0110   ; qtot -3.022
    15     CG2R61      1      LIG     C9     15      0.021    12.0110   ; qtot -3.001
    16     CG2R51      1      LIG    C10     16      0.469    12.0110   ; qtot -2.532
    17      CG321      1      LIG    C11     17      0.025    12.0110   ; qtot -2.507
    18     CG2R61      1      LIG    C12     18     -0.120    12.0110   ; qtot -2.627
    19     CG2R61      1      LIG    C13     19     -0.120    12.0110   ; qtot -2.747
    20     CG2R51      1      LIG    C14     20     -0.367    12.0110   ; qtot -3.114
    21      CG321      1      LIG    C15     21     -0.180    12.0110   ; qtot -3.294
    22      CG321      1      LIG    C16     22     -0.179    12.0110   ; qtot -3.473
    23     CG2R51      1      LIG    C17     23     -0.275    12.0110   ; qtot -3.748
    24     CG2R61      1      LIG    C18     24     -0.115    12.0110   ; qtot -3.863
    25     CG2R61      1      LIG    C19     25     -0.115    12.0110   ; qtot -3.978
    26     CG2R51      1      LIG    C20     26      0.062    12.0110   ; qtot -3.916
    27     CG2R61      1      LIG    C21     27     -0.115    12.0110   ; qtot -4.031
    28      CG321      1      LIG    C22     28      0.050    12.0110   ; qtot -3.981
    29       HGP5      1      LIG     H1     29      0.250     1.0080   ; qtot -3.731
    30       HGP5      1      LIG     H2     30      0.250     1.0080   ; qtot -3.481
    31       HGP5      1      LIG     H3     31      0.250     1.0080   ; qtot -3.231
    32       HGP5      1      LIG     H4     32      0.250     1.0080   ; qtot -2.981
    33       HGA1      1      LIG     H5     33      0.090     1.0080   ; qtot -2.891
    34       HGA2      1      LIG     H6     34      0.090     1.0080   ; qtot -2.801
    35       HGA2      1      LIG     H7     35      0.090     1.0080   ; qtot -2.711
    36       HGP5      1      LIG     H8     36      0.250     1.0080   ; qtot -2.461
    37       HGP5      1      LIG     H9     37      0.250     1.0080   ; qtot -2.211
    38       HGP5      1      LIG    H10     38      0.250     1.0080   ; qtot -1.961
    39       HGP5      1      LIG    H11     39      0.250     1.0080   ; qtot -1.711
    40       HGP5      1      LIG    H12     40      0.250     1.0080   ; qtot -1.461
    41       HGP5      1      LIG    H13     41      0.250     1.0080   ; qtot -1.211
    42       HGA2      1      LIG    H14     42      0.090     1.0080   ; qtot -1.121
    43       HGA2      1      LIG    H15     43      0.090     1.0080   ; qtot -1.031
    44      HGR61      1      LIG    H16     44      0.115     1.0080   ; qtot -0.916
    45      HGR61      1      LIG    H17     45      0.115     1.0080   ; qtot -0.801
    46      HGR51      1      LIG    H18     46      0.170     1.0080   ; qtot -0.631
    47       HGA2      1      LIG    H19     47      0.090     1.0080   ; qtot -0.541
    48       HGA2      1      LIG    H20     48      0.090     1.0080   ; qtot -0.451
    49       HGA2      1      LIG    H21     49      0.090     1.0080   ; qtot -0.361
    50       HGA2      1      LIG    H22     50      0.090     1.0080   ; qtot -0.271
    51      HGR51      1      LIG    H23     51      0.189     1.0080   ; qtot -0.082
    52      HGR61      1      LIG    H24     52      0.115     1.0080   ; qtot  0.033
    53      HGR61      1      LIG    H25     53      0.115     1.0080   ; qtot  0.148
    54      HGR52      1      LIG    H26     54      0.138     1.0080   ; qtot  0.286
    55      HGR61      1      LIG    H27     55      0.115     1.0080   ; qtot  0.401
    56       HGA2      1      LIG    H28     56      0.090     1.0080   ; qtot  0.491
    57       HGA2      1      LIG    H29     57      0.090     1.0080   ; qtot  0.581
    58       HGP1      1      LIG    H30     58      0.419     1.0080   ; qtot  1.000

[ bonds ]
; ai	aj	funct	b0	Kb
    1     9     1
    1    13     1
    2    14     1
    2    17     1
    3    13     1
    4    16     1
    4    26     1
    5    28     1
    5    58     1
    6     7     1
    6     8     1
    6    11     1
    6    12     1
    7     9     1
    7    29     1
    7    30     1
    8    10     1
    8    31     1
    8    32     1
    9    10     1
    9    33     1
   10    34     1
   10    35     1
   11    36     1
   11    37     1
   11    38     1
   12    39     1
   12    40     1
   12    41     1
   13    14     1
   14    15     1
   14    16     1
   15    18     1
   15    19     1
   16    20     1
   17    21     1
   17    42     1
   17    43     1
   18    24     1
   18    44     1
   19    25     1
   19    45     1
   20    23     1
   20    46     1
   21    22     1
   21    47     1
   21    48     1
   22    28     1
   22    49     1
   22    50     1
   23    26     1
   23    51     1
   24    27     1
   24    52     1
   25    27     1
   25    53     1
   26    54     1
   27    55     1
   28    56     1
   28    57     1

[ pairs ]
; ai	aj	funct	c6	c12
    1     2     1 
    1     6     1 
    1     8     1 
    1    15     1 
    1    16     1 
    1    29     1 
    1    30     1 
    1    34     1 
    1    35     1 
    2     3     1 
    2     4     1 
    2    18     1 
    2    19     1 
    2    20     1 
    2    22     1 
    2    47     1 
    2    48     1 
    3     9     1 
    3    15     1 
    3    16     1 
    4    13     1 
    4    15     1 
    4    46     1 
    4    51     1 
    5    21     1 
    5    49     1 
    5    50     1 
    6    33     1 
    6    34     1 
    6    35     1 
    7    13     1 
    7    31     1 
    7    32     1 
    7    34     1 
    7    35     1 
    7    36     1 
    7    37     1 
    7    38     1 
    7    39     1 
    7    40     1 
    7    41     1 
    8    29     1 
    8    30     1 
    8    33     1 
    8    36     1 
    8    37     1 
    8    38     1 
    8    39     1 
    8    40     1 
    8    41     1 
    9    11     1 
    9    12     1 
    9    14     1 
    9    31     1 
    9    32     1 
   10    11     1 
   10    12     1 
   10    13     1 
   10    29     1 
   10    30     1 
   11    29     1 
   11    30     1 
   11    31     1 
   11    32     1 
   11    39     1 
   11    40     1 
   11    41     1 
   12    29     1 
   12    30     1 
   12    31     1 
   12    32     1 
   12    36     1 
   12    37     1 
   12    38     1 
   13    17     1 
   13    18     1 
   13    19     1 
   13    20     1 
   13    33     1 
   14    21     1 
   14    23     1 
   14    24     1 
   14    25     1 
   14    26     1 
   14    42     1 
   14    43     1 
   14    44     1 
   14    45     1 
   14    46     1 
   15    17     1 
   15    20     1 
   15    27     1 
   15    52     1 
   15    53     1 
   16    17     1 
   16    18     1 
   16    19     1 
   16    51     1 
   16    54     1 
   17    28     1 
   17    49     1 
   17    50     1 
   18    25     1 
   18    45     1 
   18    55     1 
   19    24     1 
   19    44     1 
   19    55     1 
   20    54     1 
   21    56     1 
   21    57     1 
   22    42     1 
   22    43     1 
   22    58     1 
   24    53     1 
   25    52     1 
   26    46     1 
   27    44     1 
   27    45     1 
   28    47     1 
   28    48     1 
   29    33     1 
   30    33     1 
   31    34     1 
   31    35     1 
   32    34     1 
   32    35     1 
   33    34     1 
   33    35     1 
   42    47     1 
   42    48     1 
   43    47     1 
   43    48     1 
   44    52     1 
   45    53     1 
   46    51     1 
   47    49     1 
   47    50     1 
   48    49     1 
   48    50     1 
   49    56     1 
   49    57     1 
   50    56     1 
   50    57     1 
   51    54     1 
   52    55     1 
   53    55     1 
   56    58     1 
   57    58     1 

[ angles ] 
; ai	aj	ak	funct	th0	cth	S0	Kub
    9     1    13     5
   14     2    17     5
   16     4    26     5
   28     5    58     5
    7     6     8     5
    7     6    11     5
    7     6    12     5
    8     6    11     5
    8     6    12     5
   11     6    12     5
    6     7     9     5
    6     7    29     5
    6     7    30     5
    9     7    29     5
    9     7    30     5
   29     7    30     5
    6     8    10     5
    6     8    31     5
    6     8    32     5
   10     8    31     5
   10     8    32     5
   31     8    32     5
    1     9     7     5
    1     9    10     5
    1     9    33     5
    7     9    10     5
    7     9    33     5
   10     9    33     5
    8    10     9     5
    8    10    34     5
    8    10    35     5
    9    10    34     5
    9    10    35     5
   34    10    35     5
    6    11    36     5
    6    11    37     5
    6    11    38     5
   36    11    37     5
   36    11    38     5
   37    11    38     5
    6    12    39     5
    6    12    40     5
    6    12    41     5
   39    12    40     5
   39    12    41     5
   40    12    41     5
    1    13     3     5
    1    13    14     5
    3    13    14     5
    2    14    13     5
    2    14    15     5
    2    14    16     5
   13    14    15     5
   13    14    16     5
   15    14    16     5
   14    15    18     5
   14    15    19     5
   18    15    19     5
    4    16    14     5
    4    16    20     5
   14    16    20     5
    2    17    21     5
    2    17    42     5
    2    17    43     5
   21    17    42     5
   21    17    43     5
   42    17    43     5
   15    18    24     5
   15    18    44     5
   24    18    44     5
   15    19    25     5
   15    19    45     5
   25    19    45     5
   16    20    23     5
   16    20    46     5
   23    20    46     5
   17    21    22     5
   17    21    47     5
   17    21    48     5
   22    21    47     5
   22    21    48     5
   47    21    48     5
   21    22    28     5
   21    22    49     5
   21    22    50     5
   28    22    49     5
   28    22    50     5
   49    22    50     5
   20    23    26     5
   20    23    51     5
   26    23    51     5
   18    24    27     5
   18    24    52     5
   27    24    52     5
   19    25    27     5
   19    25    53     5
   27    25    53     5
    4    26    23     5
    4    26    54     5
   23    26    54     5
   24    27    25     5
   24    27    55     5
   25    27    55     5
    5    28    22     5
    5    28    56     5
    5    28    57     5
   22    28    56     5
   22    28    57     5
   56    28    57     5

[ dihedrals ]
; ai	aj	ak	al	funct	phi0	cp	mult
   13     1     9    33     9
    9     1    13    14     9
   14     2    17    21     9
   14     2    17    42     9
   14     2    17    43     9
   16     4    26    23     9
   16     4    26    54     9
    8     6     7     9     9
    8     6     7    29     9
    8     6     7    30     9
   11     6     7    29     9
   11     6     7    30     9
   12     6     7    29     9
   12     6     7    30     9
    7     6     8    10     9
    7     6     8    31     9
    7     6     8    32     9
   11     6     8    31     9
   11     6     8    32     9
   12     6     8    31     9
   12     6     8    32     9
    7     6    11    36     9
    7     6    11    37     9
    7     6    11    38     9
    8     6    11    36     9
    8     6    11    37     9
    8     6    11    38     9
   12     6    11    36     9
   12     6    11    37     9
   12     6    11    38     9
    7     6    12    39     9
    7     6    12    40     9
    7     6    12    41     9
    8     6    12    39     9
    8     6    12    40     9
    8     6    12    41     9
   11     6    12    39     9
   11     6    12    40     9
   11     6    12    41     9
    9     7     6    11     9
    9     7     6    12     9
    6     7     9    10     9
    6     7     9    33     9
   29     7     9    33     9
   30     7     9    33     9
   10     8     6    11     9
   10     8     6    12     9
    6     8    10     9     9
    6     8    10    34     9
    6     8    10    35     9
   31     8    10    34     9
   31     8    10    35     9
   32     8    10    34     9
   32     8    10    35     9
    7     9     1    13     9
   10     9     1    13     9
    1     9     7     6     9
    1     9     7    29     9
    1     9     7    30     9
   10     9     7    29     9
   10     9     7    30     9
    1     9    10     8     9
    1     9    10    34     9
    1     9    10    35     9
    7     9    10     8     9
    7     9    10    34     9
    7     9    10    35     9
   33     9    10    34     9
   33     9    10    35     9
    9    10     8    31     9
    9    10     8    32     9
    8    10     9    33     9
    3    13     1     9     9
    1    13    14     2     9
    1    13    14    15     9
    1    13    14    16     9
    3    13    14    15     9
    3    13    14    16     9
   13    14     2    17     9
   15    14     2    17     9
   16    14     2    17     9
    2    14    13     3     9
    2    14    15    18     9
    2    14    15    19     9
   13    14    15    18     9
   13    14    15    19     9
   16    14    15    18     9
   16    14    15    19     9
    2    14    16     4     9
    2    14    16    20     9
   13    14    16    20     9
   15    14    16    20     9
   14    15    18    24     9
   14    15    18    44     9
   19    15    18    24     9
   19    15    18    44     9
   14    15    19    25     9
   14    15    19    45     9
   18    15    19    25     9
   18    15    19    45     9
   14    16     4    26     9
   20    16     4    26     9
    4    16    14    13     9
    4    16    14    15     9
    4    16    20    23     9
    4    16    20    46     9
   14    16    20    23     9
   14    16    20    46     9
    2    17    21    22     9
    2    17    21    47     9
    2    17    21    48     9
   42    17    21    47     9
   42    17    21    48     9
   43    17    21    47     9
   43    17    21    48     9
   15    18    24    27     9
   15    18    24    52     9
   44    18    24    52     9
   15    19    25    27     9
   15    19    25    53     9
   45    19    25    53     9
   16    20    23    26     9
   16    20    23    51     9
   46    20    23    51     9
   22    21    17    42     9
   22    21    17    43     9
   17    21    22    28     9
   17    21    22    49     9
   17    21    22    50     9
   47    21    22    49     9
   47    21    22    50     9
   48    21    22    49     9
   48    21    22    50     9
   28    22    21    47     9
   28    22    21    48     9
   21    22    28    56     9
   21    22    28    57     9
   49    22    28    56     9
   49    22    28    57     9
   50    22    28    56     9
   50    22    28    57     9
   26    23    20    46     9
   20    23    26    54     9
   51    23    26    54     9
   27    24    18    44     9
   18    24    27    25     9
   18    24    27    55     9
   52    24    27    55     9
   27    25    19    45     9
   19    25    27    24     9
   19    25    27    55     9
   53    25    27    55     9
    4    26    23    20     9
    4    26    23    51     9
   25    27    24    52     9
   24    27    25    53     9
   22    28     5    58     9
   56    28     5    58     9
   57    28     5    58     9
    5    28    22    21     9
    5    28    22    49     9
    5    28    22    50     9

[ dihedrals ]
; ai	aj	ak	al	funct	q0	cq
   13    14     3     1     2
