Title
43206
    1CHL1    C3    1   3.787   3.982   5.980
    1CHL1    H3    2   3.695   3.924   5.958
    1CHL1    O3    3   3.789   4.011   6.119
    1CHL1   H3'    4   3.720   4.077   6.129
    1CHL1    C4    5   3.910   3.898   5.941
    1CHL1   H4A    6   4.003   3.955   5.966
    1CHL1   H4B    7   3.913   3.806   6.003
    1CHL1    C5    8   3.906   3.867   5.792
    1CHL1    C6    9   3.904   3.740   5.749
    1CHL1    H6   10   3.910   3.658   5.821
    1CHL1    C7   11   3.902   3.702   5.604
    1CHL1   H7A   12   3.975   3.621   5.585
    1CHL1   H7B   13   3.801   3.662   5.578
    1CHL1    C8   14   3.934   3.820   5.509
    1CHL1    H8   15   4.044   3.836   5.511
    1CHL1   C14   16   3.888   3.785   5.367
    1CHL1   H14   17   3.777   3.782   5.371
    1CHL1   C15   18   3.929   3.648   5.312
    1CHL1  H15A   19   4.036   3.627   5.335
    1CHL1  H15B   20   3.866   3.566   5.353
    1CHL1   C16   21   3.910   3.664   5.161
    1CHL1  H16A   22   4.008   3.646   5.112
    1CHL1  H16B   23   3.835   3.593   5.120
    1CHL1   C17   24   3.871   3.813   5.133
    1CHL1   H17   25   3.761   3.820   5.137
    1CHL1   C13   26   3.923   3.888   5.259
    1CHL1   C18   27   4.076   3.902   5.248
    1CHL1  H18A   28   4.128   3.805   5.232
    1CHL1  H18B   29   4.101   3.968   5.162
    1CHL1  H18C   30   4.120   3.949   5.339
    1CHL1   C12   31   3.855   4.020   5.299
    1CHL1  H12A   32   3.886   4.102   5.230
    1CHL1  H12B   33   3.745   4.007   5.291
    1CHL1   C11   34   3.890   4.062   5.444
    1CHL1  H11A   35   3.997   4.091   5.445
    1CHL1  H11B   36   3.831   4.152   5.471
    1CHL1    C9   37   3.866   3.950   5.551
    1CHL1    H9   38   3.757   3.928   5.547
    1CHL1   C10   39   3.897   3.990   5.698
    1CHL1   C19   40   4.033   4.063   5.704
    1CHL1  H19A   41   4.029   4.159   5.648
    1CHL1  H19B   42   4.064   4.088   5.807
    1CHL1  H19C   43   4.114   4.001   5.660
    1CHL1    C1   44   3.783   4.084   5.749
    1CHL1   H1A   45   3.788   4.180   5.693
    1CHL1   H1B   46   3.685   4.036   5.725
    1CHL1    C2   47   3.785   4.113   5.900
    1CHL1   H2A   48   3.696   4.173   5.928
    1CHL1   H2B   49   3.876   4.171   5.925
    1CHL1   C20   50   3.914   3.855   4.990
    1CHL1   H20   51   4.023   3.838   4.980
    1CHL1   C21   52   3.889   4.005   4.964
    1CHL1  H21A   53   3.954   4.067   5.029
    1CHL1  H21B   54   3.783   4.031   4.983
    1CHL1  H21C   55   3.914   4.030   4.858
    1CHL1   C22   56   3.842   3.767   4.882
    1CHL1  H22A   57   3.837   3.663   4.919
    1CHL1  H22B   58   3.738   3.802   4.870
    1CHL1   C23   59   3.909   3.755   4.742
    1CHL1  H23A   60   3.887   3.845   4.681
    1CHL1  H23B   61   4.019   3.751   4.757
    1CHL1   C24   62   3.862   3.626   4.668
    1CHL1  H24A   63   3.869   3.540   4.738
    1CHL1  H24B   64   3.755   3.639   4.643
    1CHL1   C25   65   3.939   3.586   4.539
    1CHL1   H25   66   4.002   3.671   4.507
    1CHL1   C26   67   4.028   3.461   4.558
    1CHL1  H26A   68   4.076   3.433   4.463
    1CHL1  H26B   69   4.109   3.479   4.632
    1CHL1  H26C   70   3.968   3.375   4.594
    1CHL1   C27   71   3.843   3.556   4.423
    1CHL1  H27A   72   3.779   3.644   4.400
    1CHL1  H27B   73   3.901   3.530   4.331
    1CHL1  H27C   74   3.778   3.469   4.448
    2CHL1    C3   75   3.395   3.330   6.004
    2CHL1    H3   76   3.319   3.411   5.998
    2CHL1    O3   77   3.423   3.302   6.141
    2CHL1   H3'   78   3.347   3.255   6.175
    2CHL1    C4   79   3.340   3.203   5.935
    2CHL1   H4A   80   3.411   3.121   5.955
    2CHL1   H4B   81   3.244   3.176   5.984
    2CHL1    C5   82   3.322   3.218   5.784
    2CHL1    C6   83   3.205   3.192   5.722
    2CHL1    H6   84   3.120   3.155   5.780
    2CHL1    C7   85   3.186   3.199   5.572
    2CHL1   H7A   86   3.133   3.109   5.535
    2CHL1   H7B   87   3.124   3.287   5.547
    2CHL1    C8   88   3.321   3.211   5.494
    2CHL1    H8   89   3.370   3.112   5.496
    2CHL1   C14   90   3.297   3.251   5.349
    2CHL1   H14   91   3.244   3.349   5.352
    2CHL1   C15   92   3.209   3.160   5.262
    2CHL1  H15A   93   3.236   3.054   5.280
    2CHL1  H15B   94   3.100   3.174   5.284
    2CHL1   C16   95   3.245   3.200   5.118
    2CHL1  H16A   96   3.275   3.110   5.060
    2CHL1  H16B   97   3.161   3.250   5.066
    2CHL1   C17   98   3.363   3.302   5.127
    2CHL1   H17   99   3.317   3.403   5.132
    2CHL1   C13  100   3.424   3.277   5.266
    2CHL1   C18  101   3.509   3.148   5.257
    2CHL1  H18A  102   3.604   3.169   5.203
    2CHL1  H18B  103   3.535   3.108   5.357
    2CHL1  H18C  104   3.456   3.068   5.200
    2CHL1   C12  105   3.499   3.393   5.333
    2CHL1  H12A  106   3.593   3.417   5.280
    2CHL1  H12B  107   3.434   3.483   5.332
    2CHL1   C11  108   3.534   3.357   5.479
    2CHL1  H11A  109   3.610   3.275   5.475
    2CHL1  H11B  110   3.583   3.446   5.525
    2CHL1    C9  111   3.411   3.314   5.564
    2CHL1    H9  112   3.349   3.406   5.571
    2CHL1   C10  113   3.445   3.274   5.710
    2CHL1   C19  114   3.553   3.161   5.708
    2CHL1  H19A  115   3.576   3.124   5.810
    2CHL1  H19B  116   3.520   3.075   5.647
    2CHL1  H19C  117   3.648   3.199   5.666
    2CHL1    C1  118   3.500   3.398   5.785
    2CHL1   H1A  119   3.597   3.429   5.739
    2CHL1   H1B  120   3.429   3.482   5.771
    2CHL1    C2  121   3.523   3.378   5.936
    2CHL1   H2A  122   3.557   3.473   5.982
    2CHL1   H2B  123   3.603   3.302   5.951
    2CHL1   C20  124   3.451   3.301   5.000
    2CHL1   H20  125   3.489   3.198   4.983
    2CHL1   C21  126   3.573   3.395   5.015
    2CHL1  H21A  127   3.540   3.497   5.044
    2CHL1  H21B  128   3.631   3.401   4.921
    2CHL1  H21C  129   3.643   3.356   5.092
    2CHL1   C22  130   3.370   3.341   4.874
    2CHL1  H22A  131   3.285   3.270   4.863
    2CHL1  H22B  132   3.327   3.443   4.888
    2CHL1   C23  133   3.447   3.338   4.740
    2CHL1  H23A  134   3.525   3.417   4.740
    2CHL1  H23B  135   3.496   3.240   4.729
    2CHL1   C24  136   3.355   3.363   4.619
    2CHL1  H24A  137   3.282   3.280   4.612
    2CHL1  H24B  138   3.299   3.458   4.636
    2CHL1   C25  139   3.429   3.372   4.483
    2CHL1   H25  140   3.518   3.437   4.498
    2CHL1   C26  141   3.474   3.233   4.437
    2CHL1  H26A  142   3.522   3.239   4.337
    2CHL1  H26B  143   3.546   3.189   4.509
    2CHL1  H26C  144   3.386   3.165   4.429
    2CHL1   C27  145   3.342   3.438   4.375
    2CHL1  H27A  146   3.284   3.524   4.416
    2CHL1  H27B  147   3.406   3.476   4.292
    2CHL1  H27C  148   3.271   3.365   4.331
    3CHL1    C3  149   3.057   4.013   6.021
    3CHL1    H3  150   3.168   4.013   6.025
    3CHL1    O3  151   3.006   4.036   6.152
    3CHL1   H3'  152   2.998   3.949   6.190
    3CHL1    C4  153   3.010   4.123   5.924
    3CHL1   H4A  154   2.900   4.134   5.934
    3CHL1   H4B  155   3.053   4.220   5.959
    3CHL1    C5  156   3.046   4.094   5.779
    3CHL1    C6  157   3.116   4.180   5.704
    3CHL1    H6  158   3.147   4.277   5.747
    3CHL1    C7  159   3.147   4.158   5.559
    3CHL1   H7A  160   3.127   4.250   5.501
    3CHL1   H7B  161   3.255   4.133   5.547
    3CHL1    C8  162   3.062   4.043   5.497
    3CHL1    H8  163   2.959   4.081   5.483
    3CHL1   C14  164   3.120   4.004   5.362
    3CHL1   H14  165   3.222   3.965   5.381
    3CHL1   C15  166   3.139   4.117   5.260
    3CHL1  H15A  167   3.046   4.178   5.255
    3CHL1  H15B  168   3.226   4.182   5.286
    3CHL1   C16  169   3.160   4.043   5.129
    3CHL1  H16A  170   3.094   4.088   5.052
    3CHL1  H16B  171   3.265   4.050   5.094
    3CHL1   C17  172   3.122   3.893   5.154
    3CHL1   H17  173   3.217   3.839   5.172
    3CHL1   C13  174   3.045   3.893   5.288
    3CHL1   C18  175   2.897   3.933   5.262
    3CHL1  H18A  176   2.891   4.023   5.197
    3CHL1  H18B  177   2.843   3.850   5.212
    3CHL1  H18C  178   2.844   3.955   5.357
    3CHL1   C12  179   3.056   3.767   5.376
    3CHL1  H12A  180   2.999   3.683   5.331
    3CHL1  H12B  181   3.162   3.737   5.383
    3CHL1   C11  182   3.001   3.794   5.518
    3CHL1  H11A  183   2.891   3.804   5.509
    3CHL1  H11B  184   3.023   3.705   5.581
    3CHL1    C9  185   3.061   3.921   5.588
    3CHL1    H9  186   3.168   3.897   5.604
    3CHL1   C10  187   3.002   3.955   5.728
    3CHL1   C19  188   2.847   3.954   5.718
    3CHL1  H19A  189   2.799   3.986   5.814
    3CHL1  H19B  190   2.812   4.023   5.639
    3CHL1  H19C  191   2.808   3.853   5.696
    3CHL1    C1  192   3.054   3.850   5.830
    3CHL1   H1A  193   3.021   3.748   5.800
    3CHL1   H1B  194   3.165   3.850   5.827
    3CHL1    C2  195   3.010   3.875   5.975
    3CHL1   H2A  196   3.051   3.796   6.041
    3CHL1   H2B  197   2.899   3.870   5.980
    3CHL1   C20  198   3.056   3.832   5.030
    3CHL1   H20  199   2.958   3.882   5.016
    3CHL1   C21  200   3.027   3.681   5.050
    3CHL1  H21A  201   2.988   3.637   4.956
    3CHL1  H21B  202   2.950   3.667   5.128
    3CHL1  H21C  203   3.119   3.627   5.079
    3CHL1   C22  204   3.139   3.854   4.901
    3CHL1  H22A  205   3.208   3.940   4.908
    3CHL1  H22B  206   3.202   3.764   4.885
    3CHL1   C23  207   3.051   3.879   4.777
    3CHL1  H23A  208   3.118   3.893   4.690
    3CHL1  H23B  209   2.994   3.784   4.764
    3CHL1   C24  210   2.955   3.999   4.789
    3CHL1  H24A  211   2.862   3.969   4.844
    3CHL1  H24B  212   3.007   4.075   4.851
    3CHL1   C25  213   2.915   4.069   4.658
    3CHL1   H25  214   3.008   4.076   4.597
    3CHL1   C26  215   2.810   3.997   4.573
    3CHL1  H26A  216   2.721   3.971   4.634
    3CHL1  H26B  217   2.776   4.061   4.489
    3CHL1  H26C  218   2.853   3.904   4.530
    3CHL1   C27  219   2.866   4.212   4.685
    3CHL1  H27A  220   2.944   4.271   4.738
    3CHL1  H27B  221   2.842   4.263   4.589
    3CHL1  H27C  222   2.774   4.210   4.748
    4CHL1    C3  223   3.353   4.699   5.996
    4CHL1    H3  224   3.285   4.787   5.986
    4CHL1    O3  225   3.387   4.682   6.132
    4CHL1   H3'  226   3.360   4.591   6.150
    4CHL1    C4  227   3.281   4.572   5.949
    4CHL1   H4A  228   3.344   4.484   5.973
    4CHL1   H4B  229   3.188   4.561   6.009
    4CHL1    C5  230   3.251   4.573   5.800
    4CHL1    C6  231   3.127   4.554   5.754
    4CHL1    H6  232   3.044   4.535   5.824
    4CHL1    C7  233   3.094   4.546   5.608
    4CHL1   H7A  234   3.029   4.458   5.587
    4CHL1   H7B  235   3.036   4.636   5.579
    4CHL1    C8  236   3.220   4.536   5.516
    4CHL1    H8  237   3.259   4.432   5.519
    4CHL1   C14  238   3.181   4.572   5.374
    4CHL1   H14  239   3.139   4.674   5.380
    4CHL1   C15  240   3.072   4.487   5.311
    4CHL1  H15A  241   3.101   4.379   5.313
    4CHL1  H15B  242   2.973   4.496   5.362
    4CHL1   C16  243   3.070   4.540   5.168
    4CHL1  H16A  244   3.054   4.456   5.097
    4CHL1  H16B  245   2.990   4.616   5.160
    4CHL1   C17  246   3.204   4.617   5.145
    4CHL1   H17  247   3.180   4.724   5.158
    4CHL1   C13  248   3.291   4.579   5.268
    4CHL1   C18  249   3.354   4.440   5.242
    4CHL1  H18A  250   3.442   4.451   5.176
    4CHL1  H18B  251   3.386   4.392   5.337
    4CHL1  H18C  252   3.282   4.372   5.191
    4CHL1   C12  253   3.396   4.679   5.318
    4CHL1  H12A  254   3.484   4.681   5.251
    4CHL1  H12B  255   3.351   4.781   5.320
    4CHL1   C11  256   3.445   4.644   5.460
    4CHL1  H11A  257   3.499   4.547   5.454
    4CHL1  H11B  258   3.517   4.722   5.493
    4CHL1    C9  259   3.329   4.632   5.564
    4CHL1    H9  260   3.281   4.732   5.565
    4CHL1   C10  261   3.373   4.603   5.710
    4CHL1   C19  262   3.465   4.479   5.711
    4CHL1  H19A  263   3.559   4.499   5.654
    4CHL1  H19B  264   3.496   4.452   5.814
    4CHL1  H19C  265   3.415   4.391   5.666
    4CHL1    C1  266   3.448   4.728   5.764
    4CHL1   H1A  267   3.543   4.741   5.708
    4CHL1   H1B  268   3.385   4.818   5.745
    4CHL1    C2  269   3.480   4.723   5.914
    4CHL1   H2A  270   3.527   4.818   5.946
    4CHL1   H2B  271   3.552   4.641   5.934
    4CHL1   C20  272   3.256   4.604   5.001
    4CHL1   H20  273   3.301   4.503   4.987
    4CHL1   C21  274   3.366   4.711   4.981
    4CHL1  H21A  275   3.322   4.813   4.993
    4CHL1  H21B  276   3.411   4.704   4.879
    4CHL1  H21C  277   3.449   4.698   5.053
    4CHL1   C22  278   3.144   4.621   4.893
    4CHL1  H22A  279   3.070   4.539   4.902
    4CHL1  H22B  280   3.091   4.717   4.910
    4CHL1   C23  281   3.197   4.618   4.748
    4CHL1  H23A  282   3.266   4.704   4.732
    4CHL1  H23B  283   3.256   4.524   4.736
    4CHL1   C24  284   3.092   4.626   4.637
    4CHL1  H24A  285   3.029   4.534   4.636
    4CHL1  H24B  286   3.025   4.713   4.656
    4CHL1   C25  287   3.156   4.646   4.497
    4CHL1   H25  288   3.218   4.738   4.501
    4CHL1   C26  289   3.249   4.529   4.461
    4CHL1  H26A  290   3.289   4.541   4.358
    4CHL1  H26B  291   3.335   4.523   4.531
    4CHL1  H26C  292   3.192   4.434   4.466
    4CHL1   C27  293   3.052   4.665   4.386
    4CHL1  H27A  294   3.002   4.764   4.396
    4CHL1  H27B  295   3.101   4.662   4.286
    4CHL1  H27C  296   2.975   4.585   4.389
    5CHL1    C3  297   4.228   4.631   5.999
    5CHL1    H3  298   4.126   4.586   5.995
    5CHL1    O3  299   4.284   4.607   6.127
    5CHL1   H3'  300   4.358   4.669   6.133
    5CHL1    C4  301   4.314   4.569   5.888
    5CHL1   H4A  302   4.420   4.598   5.906
    5CHL1   H4B  303   4.307   4.459   5.904
    5CHL1    C5  304   4.273   4.607   5.747
    5CHL1    C6  305   4.239   4.516   5.654
    5CHL1    H6  306   4.247   4.409   5.677
    5CHL1    C7  307   4.198   4.553   5.514
    5CHL1   H7A  308   4.238   4.482   5.438
    5CHL1   H7B  309   4.088   4.548   5.505
    5CHL1    C8  310   4.244   4.697   5.477
    5CHL1    H8  311   4.355   4.698   5.474
    5CHL1   C14  312   4.191   4.737   5.340
    5CHL1   H14  313   4.081   4.725   5.344
    5CHL1   C15  314   4.238   4.653   5.220
    5CHL1  H15A  315   4.349   4.643   5.229
    5CHL1  H15B  316   4.193   4.552   5.216
    5CHL1   C16  317   4.206   4.739   5.098
    5CHL1  H16A  318   4.297   4.744   5.034
    5CHL1  H16B  319   4.123   4.697   5.039
    5CHL1   C17  320   4.168   4.881   5.153
    5CHL1   H17  321   4.057   4.882   5.158
    5CHL1   C13  322   4.218   4.882   5.299
    5CHL1   C18  323   4.370   4.912   5.297
    5CHL1  H18A  324   4.417   4.886   5.394
    5CHL1  H18B  325   4.422   4.854   5.218
    5CHL1  H18C  326   4.387   5.020   5.278
    5CHL1   C12  327   4.144   4.970   5.402
    5CHL1  H12A  328   4.156   5.078   5.379
    5CHL1  H12B  329   4.035   4.945   5.398
    5CHL1   C11  330   4.197   4.943   5.544
    5CHL1  H11A  331   4.301   4.983   5.548
    5CHL1  H11B  332   4.137   5.002   5.617
    5CHL1    C9  333   4.195   4.793   5.586
    5CHL1    H9  334   4.087   4.769   5.596
    5CHL1   C10  335   4.261   4.758   5.723
    5CHL1   C19  336   4.400   4.825   5.729
    5CHL1  H19A  337   4.391   4.936   5.733
    5CHL1  H19B  338   4.457   4.796   5.820
    5CHL1  H19C  339   4.462   4.798   5.641
    5CHL1    C1  340   4.171   4.813   5.836
    5CHL1   H1A  341   4.167   4.923   5.822
    5CHL1   H1B  342   4.069   4.770   5.824
    5CHL1    C2  343   4.216   4.782   5.979
    5CHL1   H2A  344   4.143   4.823   6.052
    5CHL1   H2B  345   4.314   4.831   5.996
    5CHL1   C20  346   4.212   4.994   5.059
    5CHL1   H20  347   4.323   5.001   5.058
    5CHL1   C21  348   4.157   5.129   5.111
    5CHL1  H21A  349   4.215   5.162   5.200
    5CHL1  H21B  350   4.050   5.118   5.140
    5CHL1  H21C  351   4.165   5.209   5.035
    5CHL1   C22  352   4.171   4.967   4.911
    5CHL1  H22A  353   4.223   4.875   4.878
    5CHL1  H22B  354   4.062   4.946   4.904
    5CHL1   C23  355   4.208   5.080   4.814
    5CHL1  H23A  356   4.130   5.159   4.819
    5CHL1  H23B  357   4.303   5.128   4.848
    5CHL1   C24  358   4.224   5.034   4.668
    5CHL1  H24A  359   4.133   4.977   4.638
    5CHL1  H24B  360   4.231   5.123   4.602
    5CHL1   C25  361   4.349   4.947   4.643
    5CHL1   H25  362   4.344   4.858   4.710
    5CHL1   C26  363   4.354   4.896   4.499
    5CHL1  H26A  364   4.446   4.835   4.484
    5CHL1  H26B  365   4.266   4.832   4.479
    5CHL1  H26C  366   4.356   4.980   4.427
    5CHL1   C27  367   4.479   5.022   4.672
    5CHL1  H27A  368   4.564   4.956   4.647
    5CHL1  H27B  369   4.486   5.114   4.610
    5CHL1  H27C  370   4.486   5.049   4.779
    6CHL1    C3  371   3.017   2.649   6.041
    6CHL1    H3  372   3.076   2.743   6.031
    6CHL1    O3  373   3.006   2.614   6.178
    6CHL1   H3'  374   2.950   2.536   6.178
    6CHL1    C4  375   2.877   2.672   5.984
    6CHL1   H4A  376   2.816   2.580   5.998
    6CHL1   H4B  377   2.828   2.752   6.043
    6CHL1    C5  378   2.885   2.708   5.837
    6CHL1    C6  379   2.836   2.824   5.792
    6CHL1    H6  380   2.785   2.893   5.860
    6CHL1    C7  381   2.840   2.863   5.648
    6CHL1   H7A  382   2.742   2.906   5.617
    6CHL1   H7B  383   2.917   2.942   5.632
    6CHL1    C8  384   2.870   2.743   5.555
    6CHL1    H8  385   2.778   2.681   5.550
    6CHL1   C14  386   2.907   2.793   5.417
    6CHL1   H14  387   3.005   2.845   5.426
    6CHL1   C15  388   2.813   2.898   5.359
    6CHL1  H15A  389   2.709   2.869   5.385
    6CHL1  H15B  390   2.833   3.000   5.398
    6CHL1   C16  391   2.836   2.888   5.209
    6CHL1  H16A  392   2.739   2.857   5.163
    6CHL1  H16B  393   2.871   2.983   5.164
    6CHL1   C17  394   2.938   2.773   5.186
    6CHL1   H17  395   3.038   2.822   5.191
    6CHL1   C13  396   2.925   2.685   5.312
    6CHL1   C18  397   2.798   2.597   5.297
    6CHL1  H18A  398   2.772   2.545   5.391
    6CHL1  H18B  399   2.710   2.657   5.265
    6CHL1  H18C  400   2.815   2.518   5.221
    6CHL1   C12  401   3.046   2.601   5.356
    6CHL1  H12A  402   3.062   2.516   5.287
    6CHL1  H12B  403   3.137   2.665   5.352
    6CHL1   C11  404   3.027   2.548   5.500
    6CHL1  H11A  405   2.948   2.470   5.493
    6CHL1  H11B  406   3.121   2.497   5.532
    6CHL1    C9  407   2.986   2.657   5.605
    6CHL1    H9  408   3.073   2.727   5.611
    6CHL1   C10  409   2.962   2.607   5.749
    6CHL1   C19  410   2.876   2.479   5.741
    6CHL1  H19A  411   2.846   2.440   5.841
    6CHL1  H19B  412   2.785   2.495   5.680
    6CHL1  H19C  413   2.938   2.400   5.694
    6CHL1    C1  414   3.099   2.573   5.815
    6CHL1   H1A  415   3.146   2.489   5.759
    6CHL1   H1B  416   3.165   2.661   5.804
    6CHL1    C2  417   3.090   2.538   5.964
    6CHL1   H2A  418   3.193   2.524   6.005
    6CHL1   H2B  419   3.035   2.442   5.977
    6CHL1   C20  420   2.924   2.708   5.048
    6CHL1   H20  421   2.843   2.633   5.048
    6CHL1   C21  422   3.057   2.639   5.015
    6CHL1  H21A  423   3.058   2.600   4.911
    6CHL1  H21B  424   3.075   2.553   5.082
    6CHL1  H21C  425   3.141   2.711   5.024
    6CHL1   C22  426   2.884   2.810   4.937
    6CHL1  H22A  427   2.787   2.857   4.960
    6CHL1  H22B  428   2.960   2.891   4.933
    6CHL1   C23  429   2.867   2.746   4.798
    6CHL1  H23A  430   2.875   2.636   4.806
    6CHL1  H23B  431   2.765   2.767   4.759
    6CHL1   C24  432   2.970   2.804   4.701
    6CHL1  H24A  433   2.929   2.901   4.665
    6CHL1  H24B  434   3.064   2.826   4.755
    6CHL1   C25  435   3.007   2.718   4.579
    6CHL1   H25  436   2.916   2.700   4.519
    6CHL1   C26  437   3.108   2.798   4.496
    6CHL1  H26A  438   3.201   2.816   4.554
    6CHL1  H26B  439   3.134   2.747   4.401
    6CHL1  H26C  440   3.063   2.897   4.471
    6CHL1   C27  441   3.068   2.583   4.620
    6CHL1  H27A  442   3.102   2.527   4.530
    6CHL1  H27B  443   3.156   2.600   4.686
    6CHL1  H27C  444   2.994   2.521   4.673
    7CHL1    C3  445   4.545   2.651   6.025
    7CHL1    H3  446   4.500   2.752   6.036
    7CHL1    O3  447   4.589   2.604   6.152
    7CHL1   H3'  448   4.676   2.642   6.163
    7CHL1    C4  449   4.441   2.553   5.968
    7CHL1   H4A  450   4.484   2.450   5.969
    7CHL1   H4B  451   4.354   2.550   6.037
    7CHL1    C5  452   4.401   2.591   5.827
    7CHL1    C6  453   4.274   2.618   5.796
    7CHL1    H6  454   4.196   2.607   5.874
    7CHL1    C7  455   4.228   2.652   5.658
    7CHL1   H7A  456   4.135   2.595   5.635
    7CHL1   H7B  457   4.204   2.761   5.651
    7CHL1    C8  458   4.332   2.616   5.550
    7CHL1    H8  459   4.332   2.505   5.543
    7CHL1   C14  460   4.295   2.678   5.418
    7CHL1   H14  461   4.309   2.788   5.429
    7CHL1   C15  462   4.151   2.660   5.373
    7CHL1  H15A  463   4.127   2.553   5.387
    7CHL1  H15B  464   4.079   2.723   5.430
    7CHL1   C16  465   4.155   2.696   5.225
    7CHL1  H16A  466   4.094   2.623   5.167
    7CHL1  H16B  467   4.113   2.797   5.209
    7CHL1   C17  468   4.305   2.694   5.181
    7CHL1   H17  469   4.334   2.801   5.175
    7CHL1   C13  470   4.383   2.636   5.301
    7CHL1   C18  471   4.388   2.481   5.286
    7CHL1  H18A  472   4.286   2.440   5.268
    7CHL1  H18B  473   4.453   2.453   5.201
    7CHL1  H18C  474   4.431   2.432   5.376
    7CHL1   C12  475   4.522   2.695   5.331
    7CHL1  H12A  476   4.595   2.666   5.253
    7CHL1  H12B  477   4.514   2.806   5.331
    7CHL1   C11  478   4.574   2.649   5.470
    7CHL1  H11A  479   4.601   2.542   5.457
    7CHL1  H11B  480   4.666   2.705   5.495
    7CHL1    C9  481   4.472   2.664   5.588
    7CHL1    H9  482   4.461   2.773   5.604
    7CHL1   C10  483   4.516   2.604   5.725
    7CHL1   C19  484   4.572   2.461   5.701
    7CHL1  H19A  485   4.600   2.410   5.796
    7CHL1  H19B  486   4.497   2.398   5.649
    7CHL1  H19C  487   4.665   2.464   5.640
    7CHL1    C1  488   4.624   2.697   5.787
    7CHL1   H1A  489   4.712   2.696   5.720
    7CHL1   H1B  490   4.584   2.801   5.789
    7CHL1    C2  491   4.664   2.659   5.930
    7CHL1   H2A  492   4.742   2.729   5.968
    7CHL1   H2B  493   4.707   2.556   5.927
    7CHL1   C20  494   4.325   2.633   5.041
    7CHL1   H20  495   4.309   2.524   5.048
    7CHL1   C21  496   4.469   2.659   4.991
    7CHL1  H21A  497   4.491   2.768   4.992
    7CHL1  H21B  498   4.479   2.622   4.887
    7CHL1  H21C  499   4.543   2.606   5.054
    7CHL1   C22  500   4.224   2.685   4.937
    7CHL1  H22A  501   4.138   2.737   4.984
    7CHL1  H22B  502   4.273   2.762   4.873
    7CHL1   C23  503   4.165   2.574   4.847
    7CHL1  H23A  504   4.234   2.564   4.761
    7CHL1  H23B  505   4.163   2.477   4.901
    7CHL1   C24  506   4.021   2.609   4.806
    7CHL1  H24A  507   3.952   2.580   4.888
    7CHL1  H24B  508   4.015   2.719   4.799
    7CHL1   C25  509   3.967   2.553   4.672
    7CHL1   H25  510   3.890   2.476   4.697
    7CHL1   C26  511   3.898   2.667   4.597
    7CHL1  H26A  512   3.971   2.748   4.577
    7CHL1  H26B  513   3.860   2.633   4.498
    7CHL1  H26C  514   3.816   2.711   4.657
    7CHL1   C27  515   4.071   2.488   4.581
    7CHL1  H27A  516   4.025   2.458   4.484
    7CHL1  H27B  517   4.154   2.559   4.559
    7CHL1  H27C  518   4.112   2.397   4.629
    8CHL1    C3  519   2.264   2.739   6.029
    8CHL1    H3  520   2.371   2.708   6.024
    8CHL1    O3  521   2.213   2.710   6.157
    8CHL1   H3'  522   2.118   2.725   6.148
    8CHL1    C4  523   2.252   2.890   6.002
    8CHL1   H4A  524   2.146   2.921   6.012
    8CHL1   H4B  525   2.309   2.943   6.081
    8CHL1    C5  526   2.303   2.921   5.863
    8CHL1    C6  527   2.407   3.003   5.845
    8CHL1    H6  528   2.454   3.052   5.931
    8CHL1    C7  529   2.461   3.039   5.711
    8CHL1   H7A  530   2.481   3.148   5.705
    8CHL1   H7B  531   2.558   2.987   5.696
    8CHL1    C8  532   2.366   3.000   5.594
    8CHL1    H8  533   2.284   3.075   5.588
    8CHL1   C14  534   2.446   2.998   5.466
    8CHL1   H14  535   2.521   2.917   5.479
    8CHL1   C15  536   2.528   3.123   5.433
    8CHL1  H15A  537   2.467   3.215   5.449
    8CHL1  H15B  538   2.621   3.131   5.493
    8CHL1   C16  539   2.556   3.107   5.283
    8CHL1  H16A  540   2.516   3.197   5.230
    8CHL1  H16B  541   2.664   3.098   5.263
    8CHL1   C17  542   2.482   2.979   5.236
    8CHL1   H17  543   2.550   2.894   5.255
    8CHL1   C13  544   2.369   2.961   5.339
    8CHL1   C18  545   2.259   3.065   5.310
    8CHL1  H18A  546   2.184   3.071   5.392
    8CHL1  H18B  547   2.301   3.167   5.295
    8CHL1  H18C  548   2.205   3.037   5.217
    8CHL1   C12  549   2.309   2.821   5.357
    8CHL1  H12A  550   2.243   2.797   5.271
    8CHL1  H12B  551   2.392   2.747   5.360
    8CHL1   C11  552   2.227   2.812   5.488
    8CHL1  H11A  553   2.137   2.876   5.475
    8CHL1  H11B  554   2.193   2.708   5.501
    8CHL1    C9  555   2.307   2.860   5.613
    8CHL1    H9  556   2.395   2.793   5.619
    8CHL1   C10  557   2.233   2.844   5.749
    8CHL1   C19  558   2.090   2.902   5.734
    8CHL1  H19A  559   2.031   2.844   5.659
    8CHL1  H19B  560   2.033   2.897   5.829
    8CHL1  H19C  561   2.093   3.008   5.701
    8CHL1    C1  562   2.229   2.693   5.783
    8CHL1   H1A  563   2.161   2.642   5.711
    8CHL1   H1B  564   2.330   2.650   5.769
    8CHL1    C2  565   2.184   2.661   5.927
    8CHL1   H2A  566   2.199   2.553   5.949
    8CHL1   H2B  567   2.075   2.683   5.936
    8CHL1   C20  568   2.456   2.977   5.086
    8CHL1   H20  569   2.363   3.033   5.062
    8CHL1   C21  570   2.440   2.831   5.039
    8CHL1  H21A  571   2.414   2.827   4.931
    8CHL1  H21B  572   2.358   2.780   5.094
    8CHL1  H21C  573   2.535   2.775   5.054
    8CHL1   C22  574   2.573   3.045   5.009
    8CHL1  H22A  575   2.572   3.155   5.029
    8CHL1  H22B  576   2.672   3.011   5.046
    8CHL1   C23  577   2.569   3.023   4.857
    8CHL1  H23A  578   2.611   2.923   4.835
    8CHL1  H23B  579   2.464   3.026   4.823
    8CHL1   C24  580   2.648   3.130   4.781
    8CHL1  H24A  581   2.603   3.231   4.791
    8CHL1  H24B  582   2.749   3.139   4.828
    8CHL1   C25  583   2.666   3.101   4.632
    8CHL1   H25  584   2.767   3.054   4.625
    8CHL1   C26  585   2.568   2.997   4.575
    8CHL1  H26A  586   2.573   2.996   4.464
    8CHL1  H26B  587   2.594   2.895   4.611
    8CHL1  H26C  588   2.463   3.018   4.605
    8CHL1   C27  589   2.667   3.229   4.547
    8CHL1  H27A  590   2.603   3.217   4.457
    8CHL1  H27B  591   2.632   3.318   4.604
    8CHL1  H27C  592   2.769   3.251   4.510
    9CHL1    C3  593   5.375   4.061   5.969
    9CHL1    H3  594   5.310   4.150   5.954
    9CHL1    O3  595   5.400   4.044   6.108
    9CHL1   H3'  596   5.316   4.021   6.147
    9CHL1    C4  597   5.304   3.936   5.913
    9CHL1   H4A  598   5.357   3.847   5.953
    9CHL1   H4B  599   5.202   3.934   5.956
    9CHL1    C5  600   5.298   3.925   5.761
    9CHL1    C6  601   5.186   3.894   5.694
    9CHL1    H6  602   5.094   3.875   5.750
    9CHL1    C7  603   5.181   3.869   5.545
    9CHL1   H7A  604   5.126   3.775   5.524
    9CHL1   H7B  605   5.127   3.952   5.495
    9CHL1    C8  606   5.320   3.855   5.478
    9CHL1    H8  607   5.362   3.755   5.501
    9CHL1   C14  608   5.309   3.870   5.326
    9CHL1   H14  609   5.268   3.972   5.311
    9CHL1   C15  610   5.212   3.776   5.253
    9CHL1  H15A  611   5.220   3.673   5.295
    9CHL1  H15B  612   5.107   3.812   5.262
    9CHL1   C16  613   5.261   3.775   5.107
    9CHL1  H16A  614   5.297   3.673   5.082
    9CHL1  H16B  615   5.181   3.803   5.035
    9CHL1   C17  616   5.379   3.876   5.103
    9CHL1   H17  617   5.335   3.979   5.098
    9CHL1   C13  618   5.439   3.865   5.246
    9CHL1   C18  619   5.506   3.725   5.261
    9CHL1  H18A  620   5.533   3.682   5.162
    9CHL1  H18B  621   5.599   3.732   5.320
    9CHL1  H18C  622   5.439   3.653   5.312
    9CHL1   C12  623   5.528   3.979   5.299
    9CHL1  H12A  624   5.629   3.975   5.254
    9CHL1  H12B  625   5.481   4.076   5.274
    9CHL1   C11  626   5.545   3.970   5.453
    9CHL1  H11A  627   5.605   3.879   5.473
    9CHL1  H11B  628   5.602   4.060   5.485
    9CHL1    C9  629   5.413   3.963   5.534
    9CHL1    H9  630   5.362   4.059   5.516
    9CHL1   C10  631   5.431   3.952   5.689
    9CHL1   C19  632   5.519   3.830   5.723
    9CHL1  H19A  633   5.618   3.835   5.673
    9CHL1  H19B  634   5.539   3.821   5.832
    9CHL1  H19C  635   5.467   3.737   5.692
    9CHL1    C1  636   5.495   4.083   5.745
    9CHL1   H1A  637   5.596   4.095   5.701
    9CHL1   H1B  638   5.433   4.169   5.713
    9CHL1    C2  639   5.509   4.085   5.898
    9CHL1   H2A  640   5.552   4.182   5.932
    9CHL1   H2B  641   5.580   4.005   5.929
    9CHL1   C20  642   5.463   3.862   4.974
    9CHL1   H20  643   5.485   3.755   4.958
    9CHL1   C21  644   5.596   3.937   4.991
    9CHL1  H21A  645   5.661   3.885   5.065
    9CHL1  H21B  646   5.578   4.041   5.025
    9CHL1  H21C  647   5.651   3.941   4.895
    9CHL1   C22  648   5.389   3.916   4.847
    9CHL1  H22A  649   5.280   3.925   4.866
    9CHL1  H22B  650   5.426   4.018   4.828
    9CHL1   C23  651   5.407   3.831   4.719
    9CHL1  H23A  652   5.510   3.790   4.718
    9CHL1  H23B  653   5.336   3.746   4.720
    9CHL1   C24  654   5.384   3.908   4.586
    9CHL1  H24A  655   5.278   3.941   4.581
    9CHL1  H24B  656   5.447   3.999   4.586
    9CHL1   C25  657   5.417   3.825   4.459
    9CHL1   H25  658   5.460   3.728   4.493
    9CHL1   C26  659   5.294   3.796   4.372
    9CHL1  H26A  660   5.213   3.752   4.434
    9CHL1  H26B  661   5.256   3.890   4.326
    9CHL1  H26C  662   5.320   3.725   4.291
    9CHL1   C27  663   5.522   3.893   4.370
    9CHL1  H27A  664   5.485   3.991   4.334
    9CHL1  H27B  665   5.616   3.910   4.427
    9CHL1  H27C  666   5.545   3.829   4.282
   10CHL1    C3  667   4.565   5.374   5.990
   10CHL1    H3  668   4.613   5.283   5.950
   10CHL1    O3  669   4.500   5.343   6.112
   10CHL1   H3'  670   4.570   5.317   6.172
   10CHL1    C4  671   4.671   5.483   6.013
   10CHL1   H4A  672   4.624   5.570   6.062
   10CHL1   H4B  673   4.746   5.442   6.085
   10CHL1    C5  674   4.737   5.527   5.883
   10CHL1    C6  675   4.871   5.522   5.867
   10CHL1    H6  676   4.934   5.489   5.950
   10CHL1    C7  677   4.942   5.565   5.742
   10CHL1   H7A  678   5.027   5.632   5.766
   10CHL1   H7B  679   4.984   5.476   5.690
   10CHL1    C8  680   4.852   5.638   5.639
   10CHL1    H8  681   4.847   5.745   5.669
   10CHL1   C14  682   4.911   5.624   5.499
   10CHL1   H14  683   4.898   5.517   5.472
   10CHL1   C15  684   5.060   5.653   5.478
   10CHL1  H15A  685   5.085   5.749   5.527
   10CHL1  H15B  686   5.128   5.576   5.521
   10CHL1   C16  687   5.070   5.662   5.324
   10CHL1  H16A  688   5.123   5.756   5.296
   10CHL1  H16B  689   5.126   5.576   5.281
   10CHL1   C17  690   4.924   5.667   5.269
   10CHL1   H17  691   4.896   5.562   5.245
   10CHL1   C13  692   4.839   5.704   5.391
   10CHL1   C18  693   4.856   5.855   5.420
   10CHL1  H18A  694   4.816   5.916   5.336
   10CHL1  H18B  695   4.801   5.884   5.512
   10CHL1  H18C  696   4.962   5.886   5.431
   10CHL1   C12  697   4.692   5.657   5.387
   10CHL1  H12A  698   4.632   5.722   5.319
   10CHL1  H12B  699   4.690   5.553   5.346
   10CHL1   C11  700   4.627   5.656   5.526
   10CHL1  H11A  701   4.616   5.763   5.556
   10CHL1  H11B  702   4.527   5.610   5.518
   10CHL1    C9  703   4.711   5.582   5.634
   10CHL1    H9  704   4.722   5.478   5.596
   10CHL1   C10  705   4.640   5.569   5.771
   10CHL1   C19  706   4.581   5.706   5.811
   10CHL1  H19A  707   4.661   5.784   5.810
   10CHL1  H19B  708   4.501   5.737   5.741
   10CHL1  H19C  709   4.537   5.705   5.913
   10CHL1    C1  710   4.527   5.462   5.757
   10CHL1   H1A  711   4.450   5.500   5.687
   10CHL1   H1B  712   4.571   5.371   5.712
   10CHL1    C2  713   4.460   5.422   5.889
   10CHL1   H2A  714   4.387   5.340   5.870
   10CHL1   H2B  715   4.405   5.509   5.931
   10CHL1   C20  716   4.912   5.746   5.137
   10CHL1   H20  717   4.968   5.841   5.150
   10CHL1   C21  718   4.767   5.784   5.099
   10CHL1  H21A  719   4.701   5.695   5.098
   10CHL1  H21B  720   4.766   5.830   4.997
   10CHL1  H21C  721   4.723   5.859   5.168
   10CHL1   C22  722   4.976   5.670   5.018
   10CHL1  H22A  723   4.996   5.744   4.938
   10CHL1  H22B  724   5.075   5.628   5.049
   10CHL1   C23  725   4.888   5.556   4.961
   10CHL1  H23A  726   4.861   5.487   5.043
   10CHL1  H23B  727   4.794   5.598   4.920
   10CHL1   C24  728   4.953   5.473   4.849
   10CHL1  H24A  729   5.039   5.417   4.891
   10CHL1  H24B  730   4.879   5.399   4.813
   10CHL1   C25  731   5.003   5.554   4.728
   10CHL1   H25  732   5.088   5.616   4.765
   10CHL1   C26  733   5.056   5.459   4.620
   10CHL1  H26A  734   5.139   5.397   4.661
   10CHL1  H26B  735   4.976   5.392   4.584
   10CHL1  H26C  736   5.095   5.517   4.534
   10CHL1   C27  737   4.899   5.650   4.668
   10CHL1  H27A  738   4.866   5.725   4.743
   10CHL1  H27B  739   4.944   5.705   4.582
   10CHL1  H27C  740   4.811   5.594   4.631
   11CHL1    C3  741   2.657   1.992   5.974
   11CHL1    H3  742   2.561   1.941   5.951
   11CHL1    O3  743   2.681   1.988   6.114
   11CHL1   H3'  744   2.594   1.999   6.154
   11CHL1    C4  745   2.772   1.920   5.902
   11CHL1   H4A  746   2.867   1.969   5.931
   11CHL1   H4B  747   2.777   1.816   5.940
   11CHL1    C5  748   2.757   1.924   5.751
   11CHL1    C6  749   2.761   1.812   5.676
   11CHL1    H6  750   2.777   1.715   5.725
   11CHL1    C7  751   2.758   1.813   5.526
   11CHL1   H7A  752   2.838   1.748   5.485
   11CHL1   H7B  753   2.661   1.771   5.493
   11CHL1    C8  754   2.773   1.956   5.464
   11CHL1    H8  755   2.880   1.986   5.469
   11CHL1   C14  756   2.736   1.952   5.318
   11CHL1   H14  757   2.634   1.906   5.316
   11CHL1   C15  758   2.823   1.863   5.228
   11CHL1  H15A  759   2.931   1.878   5.252
   11CHL1  H15B  760   2.799   1.756   5.243
   11CHL1   C16  761   2.793   1.913   5.086
   11CHL1  H16A  762   2.886   1.952   5.039
   11CHL1  H16B  763   2.754   1.832   5.021
   11CHL1   C17  764   2.691   2.030   5.104
   11CHL1   H17  765   2.592   1.981   5.115
   11CHL1   C13  766   2.721   2.086   5.245
   11CHL1   C18  767   2.856   2.163   5.239
   11CHL1  H18A  768   2.935   2.105   5.186
   11CHL1  H18B  769   2.841   2.259   5.185
   11CHL1  H18C  770   2.893   2.185   5.341
   11CHL1   C12  771   2.614   2.167   5.321
   11CHL1  H12A  772   2.599   2.267   5.275
   11CHL1  H12B  773   2.518   2.111   5.318
   11CHL1   C11  774   2.654   2.187   5.469
   11CHL1  H11A  775   2.741   2.255   5.473
   11CHL1  H11B  776   2.570   2.238   5.521
   11CHL1    C9  777   2.685   2.053   5.543
   11CHL1    H9  778   2.586   2.002   5.544
   11CHL1   C10  779   2.732   2.064   5.691
   11CHL1   C19  780   2.868   2.136   5.691
   11CHL1  H19A  781   2.904   2.156   5.794
   11CHL1  H19B  782   2.944   2.077   5.637
   11CHL1  H19C  783   2.858   2.233   5.638
   11CHL1    C1  784   2.635   2.150   5.776
   11CHL1   H1A  785   2.643   2.256   5.746
   11CHL1   H1B  786   2.531   2.118   5.752
   11CHL1    C2  787   2.651   2.138   5.929
   11CHL1   H2A  788   2.566   2.189   5.979
   11CHL1   H2B  789   2.745   2.189   5.960
   11CHL1   C20  790   2.673   2.115   4.977
   11CHL1   H20  791   2.771   2.157   4.946
   11CHL1   C21  792   2.574   2.231   5.001
   11CHL1  H21A  793   2.478   2.193   5.041
   11CHL1  H21B  794   2.553   2.284   4.905
   11CHL1  H21C  795   2.617   2.306   5.071
   11CHL1   C22  796   2.618   2.026   4.862
   11CHL1  H22A  797   2.677   1.932   4.857
   11CHL1  H22B  798   2.513   1.997   4.884
   11CHL1   C23  799   2.623   2.084   4.720
   11CHL1  H23A  800   2.552   2.169   4.709
   11CHL1  H23B  801   2.726   2.122   4.702
   11CHL1   C24  802   2.589   1.975   4.616
   11CHL1  H24A  803   2.653   1.886   4.635
   11CHL1  H24B  804   2.484   1.944   4.631
   11CHL1   C25  805   2.609   2.015   4.468
   11CHL1   H25  806   2.547   2.105   4.448
   11CHL1   C26  807   2.756   2.048   4.437
   11CHL1  H26A  808   2.821   1.962   4.462
   11CHL1  H26B  809   2.767   2.071   4.329
   11CHL1  H26C  810   2.790   2.136   4.495
   11CHL1   C27  811   2.561   1.901   4.377
   11CHL1  H27A  812   2.624   1.811   4.392
   11CHL1  H27B  813   2.456   1.874   4.401
   11CHL1  H27C  814   2.567   1.931   4.270
   12CHL1    C3  815   4.948   1.952   6.000
   12CHL1    H3  816   4.910   2.055   5.984
   12CHL1    O3  817   4.934   1.919   6.137
   12CHL1   H3'  818   5.003   1.854   6.154
   12CHL1    C4  819   4.865   1.854   5.914
   12CHL1   H4A  820   4.894   1.751   5.941
   12CHL1   H4B  821   4.759   1.865   5.943
   12CHL1    C5  822   4.884   1.875   5.764
   12CHL1    C6  823   4.782   1.894   5.679
   12CHL1    H6  824   4.679   1.891   5.717
   12CHL1    C7  825   4.799   1.907   5.529
   12CHL1   H7A  826   4.723   1.845   5.476
   12CHL1   H7B  827   4.785   2.013   5.499
   12CHL1    C8  828   4.940   1.861   5.482
   12CHL1    H8  829   4.943   1.750   5.491
   12CHL1   C14  830   4.965   1.897   5.336
   12CHL1   H14  831   4.963   2.008   5.330
   12CHL1   C15  832   4.865   1.848   5.229
   12CHL1  H15A  833   4.835   1.743   5.252
   12CHL1  H15B  834   4.774   1.912   5.226
   12CHL1   C16  835   4.945   1.853   5.098
   12CHL1  H16A  836   4.943   1.752   5.051
   12CHL1  H16B  837   4.903   1.926   5.026
   12CHL1   C17  838   5.092   1.891   5.136
   12CHL1   H17  839   5.099   2.001   5.130
   12CHL1   C13  840   5.103   1.855   5.285
   12CHL1   C18  841   5.118   1.702   5.297
   12CHL1  H18A  842   5.216   1.669   5.255
   12CHL1  H18B  843   5.115   1.669   5.403
   12CHL1  H18C  844   5.038   1.647   5.242
   12CHL1   C12  845   5.207   1.935   5.366
   12CHL1  H12A  846   5.311   1.910   5.335
   12CHL1  H12B  847   5.192   2.043   5.348
   12CHL1   C11  848   5.193   1.905   5.515
   12CHL1  H11A  849   5.227   1.800   5.528
   12CHL1  H11B  850   5.265   1.969   5.571
   12CHL1    C9  851   5.048   1.923   5.571
   12CHL1    H9  852   5.030   2.033   5.567
   12CHL1   C10  853   5.031   1.880   5.719
   12CHL1   C19  854   5.085   1.738   5.735
   12CHL1  H19A  855   5.195   1.738   5.718
   12CHL1  H19B  856   5.069   1.698   5.837
   12CHL1  H19C  857   5.038   1.669   5.662
   12CHL1    C1  858   5.110   1.976   5.811
   12CHL1   H1A  859   5.218   1.973   5.784
   12CHL1   H1B  860   5.072   2.078   5.792
   12CHL1    C2  861   5.096   1.947   5.961
   12CHL1   H2A  862   5.154   2.021   6.019
   12CHL1   H2B  863   5.139   1.847   5.984
   12CHL1   C20  864   5.197   1.835   5.037
   12CHL1   H20  865   5.178   1.727   5.023
   12CHL1   C21  866   5.343   1.853   5.083
   12CHL1  H21A  867   5.364   1.960   5.105
   12CHL1  H21B  868   5.413   1.819   5.004
   12CHL1  H21C  869   5.364   1.792   5.173
   12CHL1   C22  870   5.180   1.903   4.899
   12CHL1  H22A  871   5.073   1.897   4.870
   12CHL1  H22B  872   5.204   2.011   4.907
   12CHL1   C23  873   5.266   1.841   4.788
   12CHL1  H23A  874   5.365   1.890   4.786
   12CHL1  H23B  875   5.283   1.733   4.810
   12CHL1   C24  876   5.198   1.852   4.652
   12CHL1  H24A  877   5.169   1.957   4.633
   12CHL1  H24B  878   5.271   1.823   4.573
   12CHL1   C25  879   5.075   1.759   4.642
   12CHL1   H25  880   5.065   1.706   4.739
   12CHL1   C26  881   4.944   1.839   4.625
   12CHL1  H26A  882   4.953   1.917   4.546
   12CHL1  H26B  883   4.860   1.772   4.598
   12CHL1  H26C  884   4.918   1.892   4.719
   12CHL1   C27  885   5.097   1.651   4.536
   12CHL1  H27A  886   5.127   1.696   4.439
   12CHL1  H27B  887   5.179   1.582   4.568
   12CHL1  H27C  888   5.005   1.591   4.521
   13CHL1    C3  889   3.842   1.182   6.000
   13CHL1    H3  890   3.762   1.243   5.952
   13CHL1    O3  891   3.866   1.230   6.131
   13CHL1   H3'  892   3.950   1.274   6.125
   13CHL1    C4  893   3.798   1.034   6.004
   13CHL1   H4A  894   3.873   0.977   6.063
   13CHL1   H4B  895   3.702   1.030   6.061
   13CHL1    C5  896   3.781   0.971   5.867
   13CHL1    C6  897   3.669   0.909   5.830
   13CHL1    H6  898   3.586   0.900   5.902
   13CHL1    C7  899   3.645   0.842   5.697
   13CHL1   H7A  900   3.604   0.740   5.709
   13CHL1   H7B  901   3.573   0.900   5.636
   13CHL1    C8  902   3.772   0.834   5.610
   13CHL1    H8  903   3.829   0.746   5.646
   13CHL1   C14  904   3.733   0.820   5.464
   13CHL1   H14  905   3.681   0.914   5.435
   13CHL1   C15  906   3.636   0.707   5.423
   13CHL1  H15A  907   3.657   0.615   5.481
   13CHL1  H15B  908   3.530   0.736   5.439
   13CHL1   C16  909   3.667   0.684   5.273
   13CHL1  H16A  910   3.695   0.577   5.259
   13CHL1  H16B  911   3.579   0.707   5.209
   13CHL1   C17  912   3.786   0.778   5.237
   13CHL1   H17  913   3.742   0.874   5.203
   13CHL1   C13  914   3.852   0.807   5.372
   13CHL1   C18  915   3.930   0.681   5.413
   13CHL1  H18A  916   4.013   0.671   5.339
   13CHL1  H18B  917   3.976   0.690   5.514
   13CHL1  H18C  918   3.870   0.588   5.410
   13CHL1   C12  919   3.936   0.936   5.382
   13CHL1  H12A  920   4.029   0.929   5.321
   13CHL1  H12B  921   3.875   1.020   5.342
   13CHL1   C11  922   3.977   0.965   5.526
   13CHL1  H11A  923   4.054   0.890   5.555
   13CHL1  H11B  924   4.023   1.066   5.529
   13CHL1    C9  925   3.858   0.961   5.626
   13CHL1    H9  926   3.791   1.044   5.594
   13CHL1   C10  927   3.899   0.992   5.772
   13CHL1   C19  928   4.010   0.895   5.817
   13CHL1  H19A  929   3.979   0.789   5.802
   13CHL1  H19B  930   4.103   0.912   5.758
   13CHL1  H19C  931   4.037   0.909   5.924
   13CHL1    C1  932   3.952   1.139   5.778
   13CHL1   H1A  933   4.050   1.143   5.726
   13CHL1   H1B  934   3.880   1.204   5.723
   13CHL1    C2  935   3.971   1.195   5.919
   13CHL1   H2A  936   4.002   1.301   5.912
   13CHL1   H2B  937   4.052   1.138   5.970
   13CHL1   C20  938   3.875   0.724   5.124
   13CHL1   H20  939   3.919   0.626   5.154
   13CHL1   C21  940   3.991   0.819   5.088
   13CHL1  H21A  941   4.074   0.809   5.162
   13CHL1  H21B  942   3.957   0.924   5.085
   13CHL1  H21C  943   4.033   0.792   4.989
   13CHL1   C22  944   3.796   0.696   4.995
   13CHL1  H22A  945   3.866   0.653   4.920
   13CHL1  H22B  946   3.720   0.618   5.018
   13CHL1   C23  947   3.726   0.818   4.935
   13CHL1  H23A  948   3.639   0.843   4.999
   13CHL1  H23B  949   3.794   0.906   4.933
   13CHL1   C24  950   3.681   0.788   4.792
   13CHL1  H24A  951   3.770   0.759   4.731
   13CHL1  H24B  952   3.611   0.702   4.795
   13CHL1   C25  953   3.606   0.900   4.719
   13CHL1   H25  954   3.673   0.988   4.707
   13CHL1   C26  955   3.568   0.847   4.580
   13CHL1  H26A  956   3.488   0.907   4.534
   13CHL1  H26B  957   3.657   0.848   4.513
   13CHL1  H26C  958   3.532   0.742   4.587
   13CHL1   C27  959   3.483   0.945   4.800
   13CHL1  H27A  960   3.409   0.863   4.809
   13CHL1  H27B  961   3.511   0.980   4.901
   13CHL1  H27C  962   3.432   1.029   4.748
   14CHL1    C3  963   2.670   6.265   6.023
   14CHL1    H3  964   2.746   6.185   6.011
   14CHL1    O3  965   2.648   6.288   6.160
   14CHL1   H3'  966   2.712   6.356   6.183
   14CHL1    C4  967   2.723   6.396   5.964
   14CHL1   H4A  968   2.657   6.480   5.994
   14CHL1   H4B  969   2.822   6.418   6.009
   14CHL1    C5  970   2.730   6.391   5.814
   14CHL1    C6  971   2.844   6.420   5.749
   14CHL1    H6  972   2.932   6.452   5.806
   14CHL1    C7  973   2.851   6.433   5.599
   14CHL1   H7A  974   2.912   6.522   5.571
   14CHL1   H7B  975   2.901   6.343   5.556
   14CHL1    C8  976   2.710   6.448   5.539
   14CHL1    H8  977   2.665   6.544   5.571
   14CHL1   C14  978   2.720   6.450   5.388
   14CHL1   H14  979   2.770   6.355   5.360
   14CHL1   C15  980   2.803   6.563   5.323
   14CHL1  H15A  981   2.779   6.660   5.372
   14CHL1  H15B  982   2.912   6.544   5.330
   14CHL1   C16  983   2.753   6.566   5.178
   14CHL1  H16A  984   2.712   6.666   5.154
   14CHL1  H16B  985   2.834   6.543   5.106
   14CHL1   C17  986   2.639   6.459   5.171
   14CHL1   H17  987   2.690   6.362   5.151
   14CHL1   C13  988   2.586   6.450   5.316
   14CHL1   C18  989   2.506   6.580   5.347
   14CHL1  H18A  990   2.561   6.673   5.319
   14CHL1  H18B  991   2.410   6.580   5.292
   14CHL1  H18C  992   2.484   6.588   5.456
   14CHL1   C12  993   2.509   6.323   5.358
   14CHL1  H12A  994   2.409   6.320   5.311
   14CHL1  H12B  995   2.567   6.234   5.326
   14CHL1   C11  996   2.488   6.319   5.510
   14CHL1  H11A  997   2.417   6.400   5.534
   14CHL1  H11B  998   2.438   6.223   5.538
   14CHL1    C9  999   2.619   6.335   5.591
   14CHL1    H9 1000   2.676   6.241   5.574
   14CHL1   C10 1001   2.599   6.349   5.744
   14CHL1   C19 1002   2.491   6.457   5.771
   14CHL1  H19A 1003   2.515   6.551   5.717
   14CHL1  H19B 1004   2.390   6.422   5.739
   14CHL1  H19C 1005   2.482   6.483   5.879
   14CHL1    C1 1006   2.551   6.214   5.805
   14CHL1   H1A 1007   2.452   6.188   5.762
   14CHL1   H1B 1008   2.623   6.134   5.777
   14CHL1    C2 1009   2.538   6.219   5.958
   14CHL1   H2A 1010   2.511   6.119   5.998
   14CHL1   H2B 1011   2.458   6.290   5.987
   14CHL1   C20 1012   2.538   6.480   5.060
   14CHL1   H20 1013   2.476   6.569   5.083
   14CHL1   C21 1014   2.446   6.358   5.052
   14CHL1  H21A 1015   2.500   6.264   5.076
   14CHL1  H21B 1016   2.404   6.348   4.949
   14CHL1  H21C 1017   2.360   6.371   5.121
   14CHL1   C22 1018   2.603   6.505   4.922
   14CHL1  H22A 1019   2.714   6.494   4.925
   14CHL1  H22B 1020   2.566   6.429   4.850
   14CHL1   C23 1021   2.567   6.644   4.871
   14CHL1  H23A 1022   2.457   6.661   4.882
   14CHL1  H23B 1023   2.615   6.719   4.937
   14CHL1   C24 1024   2.611   6.673   4.727
   14CHL1  H24A 1025   2.600   6.782   4.713
   14CHL1  H24B 1026   2.719   6.648   4.716
   14CHL1   C25 1027   2.534   6.606   4.610
   14CHL1   H25 1028   2.559   6.669   4.523
   14CHL1   C26 1029   2.585   6.467   4.569
   14CHL1  H26A 1030   2.554   6.388   4.641
   14CHL1  H26B 1031   2.543   6.441   4.469
   14CHL1  H26C 1032   2.695   6.468   4.560
   14CHL1   C27 1033   2.381   6.612   4.621
   14CHL1  H27A 1034   2.335   6.520   4.579
   14CHL1  H27B 1035   2.343   6.623   4.725
   14CHL1  H27C 1036   2.342   6.697   4.562
   15CHL1    C3 1037   1.382   5.554   5.996
   15CHL1    H3 1038   1.282   5.601   5.981
   15CHL1    O3 1039   1.400   5.532   6.135
   15CHL1   H3' 1040   1.343   5.596   6.177
   15CHL1    C4 1041   1.387   5.421   5.919
   15CHL1   H4A 1042   1.486   5.374   5.936
   15CHL1   H4B 1043   1.312   5.352   5.964
   15CHL1    C5 1044   1.363   5.444   5.771
   15CHL1    C6 1045   1.259   5.387   5.708
   15CHL1    H6 1046   1.193   5.319   5.764
   15CHL1    C7 1047   1.228   5.406   5.562
   15CHL1   H7A 1048   1.203   5.308   5.515
   15CHL1   H7B 1049   1.140   5.472   5.551
   15CHL1    C8 1050   1.347   5.468   5.484
   15CHL1    H8 1051   1.422   5.388   5.471
   15CHL1   C14 1052   1.300   5.519   5.347
   15CHL1   H14 1053   1.231   5.603   5.367
   15CHL1   C15 1054   1.220   5.421   5.260
   15CHL1  H15A 1055   1.274   5.324   5.262
   15CHL1  H15B 1056   1.116   5.406   5.295
   15CHL1   C16 1057   1.228   5.482   5.120
   15CHL1  H16A 1058   1.258   5.402   5.049
   15CHL1  H16B 1059   1.130   5.523   5.088
   15CHL1   C17 1060   1.335   5.596   5.124
   15CHL1   H17 1061   1.278   5.691   5.136
   15CHL1   C13 1062   1.411   5.575   5.258
   15CHL1   C18 1063   1.522   5.469   5.234
   15CHL1  H18A 1064   1.603   5.511   5.172
   15CHL1  H18B 1065   1.568   5.435   5.329
   15CHL1  H18C 1066   1.481   5.379   5.182
   15CHL1   C12 1067   1.465   5.699   5.332
   15CHL1  H12A 1068   1.549   5.745   5.276
   15CHL1  H12B 1069   1.384   5.774   5.340
   15CHL1   C11 1070   1.514   5.663   5.474
   15CHL1  H11A 1071   1.606   5.602   5.462
   15CHL1  H11B 1072   1.544   5.757   5.527
   15CHL1    C9 1073   1.410   5.585   5.561
   15CHL1    H9 1074   1.326   5.657   5.576
   15CHL1   C10 1075   1.459   5.545   5.703
   15CHL1   C19 1076   1.598   5.476   5.691
   15CHL1  H19A 1077   1.593   5.390   5.621
   15CHL1  H19B 1078   1.674   5.548   5.654
   15CHL1  H19C 1079   1.634   5.439   5.790
   15CHL1    C1 1080   1.470   5.673   5.791
   15CHL1   H1A 1081   1.554   5.736   5.753
   15CHL1   H1B 1082   1.377   5.732   5.779
   15CHL1    C2 1083   1.491   5.648   5.942
   15CHL1   H2A 1084   1.488   5.744   5.997
   15CHL1   H2B 1085   1.590   5.601   5.959
   15CHL1   C20 1086   1.416   5.608   4.993
   15CHL1   H20 1087   1.482   5.520   4.984
   15CHL1   C21 1088   1.502   5.735   4.997
   15CHL1  H21A 1089   1.580   5.727   5.075
   15CHL1  H21B 1090   1.439   5.825   5.016
   15CHL1  H21C 1091   1.556   5.750   4.900
   15CHL1   C22 1092   1.327   5.607   4.865
   15CHL1  H22A 1093   1.264   5.515   4.865
   15CHL1  H22B 1094   1.259   5.694   4.866
   15CHL1   C23 1095   1.408   5.605   4.734
   15CHL1  H23A 1096   1.456   5.703   4.718
   15CHL1  H23B 1097   1.488   5.528   4.742
   15CHL1   C24 1098   1.321   5.570   4.612
   15CHL1  H24A 1099   1.282   5.467   4.627
   15CHL1  H24B 1100   1.234   5.639   4.605
   15CHL1   C25 1101   1.395   5.569   4.477
   15CHL1   H25 1102   1.489   5.511   4.490
   15CHL1   C26 1103   1.311   5.498   4.370
   15CHL1  H26A 1104   1.278   5.399   4.407
   15CHL1  H26B 1105   1.220   5.558   4.346
   15CHL1  H26C 1106   1.369   5.484   4.276
   15CHL1   C27 1107   1.430   5.711   4.431
   15CHL1  H27A 1108   1.338   5.772   4.423
   15CHL1  H27B 1109   1.499   5.760   4.503
   15CHL1  H27C 1110   1.479   5.708   4.331
   16CHL1    C3 1111   1.107   2.058   5.997
   16CHL1    H3 1112   1.214   2.049   5.967
   16CHL1    O3 1113   1.098   2.045   6.138
   16CHL1   H3' 1114   1.030   2.106   6.166
   16CHL1    C4 1115   1.052   2.194   5.953
   16CHL1   H4A 1116   0.948   2.204   5.990
   16CHL1   H4B 1117   1.111   2.274   6.004
   16CHL1    C5 1118   1.055   2.210   5.802
   16CHL1    C6 1119   1.124   2.309   5.744
   16CHL1    H6 1120   1.179   2.380   5.807
   16CHL1    C7 1121   1.126   2.336   5.596
   16CHL1   H7A 1122   1.111   2.444   5.576
   16CHL1   H7B 1123   1.224   2.307   5.553
   16CHL1    C8 1124   1.015   2.258   5.522
   16CHL1    H8 1125   0.918   2.306   5.547
   16CHL1   C14 1126   1.037   2.266   5.371
   16CHL1   H14 1127   1.133   2.214   5.351
   16CHL1   C15 1128   1.052   2.406   5.308
   16CHL1  H15A 1129   0.983   2.479   5.355
   16CHL1  H15B 1130   1.156   2.444   5.319
   16CHL1   C16 1131   1.013   2.387   5.161
   16CHL1  H16A 1132   0.925   2.451   5.141
   16CHL1  H16B 1133   1.095   2.414   5.091
   16CHL1   C17 1134   0.972   2.237   5.144
   16CHL1   H17 1135   1.064   2.182   5.116
   16CHL1   C13 1136   0.933   2.192   5.287
   16CHL1   C18 1137   0.791   2.245   5.315
   16CHL1  H18A 1138   0.763   2.231   5.422
   16CHL1  H18B 1139   0.780   2.353   5.290
   16CHL1  H18C 1140   0.715   2.188   5.257
   16CHL1   C12 1141   0.942   2.043   5.326
   16CHL1  H12A 1142   0.867   1.983   5.270
   16CHL1  H12B 1143   1.044   2.007   5.299
   16CHL1   C11 1144   0.918   2.024   5.478
   16CHL1  H11A 1145   0.810   2.046   5.496
   16CHL1  H11B 1146   0.931   1.917   5.505
   16CHL1    C9 1147   1.009   2.112   5.568
   16CHL1    H9 1148   1.112   2.073   5.552
   16CHL1   C10 1149   0.981   2.100   5.722
   16CHL1   C19 1150   0.829   2.109   5.746
   16CHL1  H19A 1151   0.777   2.021   5.703
   16CHL1  H19B 1152   0.804   2.111   5.854
   16CHL1  H19C 1153   0.787   2.201   5.699
   16CHL1    C1 1154   1.033   1.964   5.775
   16CHL1   H1A 1155   0.975   1.882   5.726
   16CHL1   H1B 1156   1.140   1.955   5.744
   16CHL1    C2 1157   1.028   1.946   5.928
   16CHL1   H2A 1158   1.072   1.848   5.955
   16CHL1   H2B 1159   0.923   1.948   5.963
   16CHL1   C20 1160   0.867   2.216   5.034
   16CHL1   H20 1161   0.768   2.248   5.072
   16CHL1   C21 1162   0.858   2.067   4.999
   16CHL1  H21A 1163   0.807   2.008   5.078
   16CHL1  H21B 1164   0.961   2.027   4.985
   16CHL1  H21C 1165   0.803   2.052   4.904
   16CHL1   C22 1166   0.884   2.298   4.904
   16CHL1  H22A 1167   0.932   2.396   4.923
   16CHL1  H22B 1168   0.948   2.245   4.831
   16CHL1   C23 1169   0.745   2.326   4.844
   16CHL1  H23A 1170   0.711   2.237   4.787
   16CHL1  H23B 1171   0.671   2.343   4.926
   16CHL1   C24 1172   0.739   2.451   4.757
   16CHL1  H24A 1173   0.776   2.537   4.817
   16CHL1  H24B 1174   0.810   2.440   4.672
   16CHL1   C25 1175   0.597   2.489   4.709
   16CHL1   H25 1176   0.552   2.551   4.790
   16CHL1   C26 1177   0.603   2.575   4.585
   16CHL1  H26A 1178   0.631   2.678   4.616
   16CHL1  H26B 1179   0.682   2.542   4.513
   16CHL1  H26C 1180   0.506   2.576   4.531
   16CHL1   C27 1181   0.498   2.376   4.685
   16CHL1  H27A 1182   0.395   2.418   4.676
   16CHL1  H27B 1183   0.521   2.326   4.589
   16CHL1  H27C 1184   0.497   2.302   4.768
   17CHL1    C3 1185   1.850   6.313   5.975
   17CHL1    H3 1186   1.941   6.371   5.950
   17CHL1    O3 1187   1.850   6.282   6.114
   17CHL1   H3' 1188   1.932   6.233   6.130
   17CHL1    C4 1189   1.724   6.396   5.943
   17CHL1   H4A 1190   1.636   6.341   5.980
   17CHL1   H4B 1191   1.731   6.489   6.004
   17CHL1    C5 1192   1.709   6.426   5.795
   17CHL1    C6 1193   1.701   6.552   5.751
   17CHL1    H6 1194   1.703   6.635   5.822
   17CHL1    C7 1195   1.681   6.588   5.607
   17CHL1   H7A 1196   1.602   6.666   5.596
   17CHL1   H7B 1197   1.775   6.633   5.567
   17CHL1    C8 1198   1.640   6.468   5.518
   17CHL1    H8 1199   1.533   6.446   5.536
   17CHL1   C14 1200   1.659   6.506   5.371
   17CHL1   H14 1201   1.768   6.525   5.360
   17CHL1   C15 1202   1.591   6.634   5.321
   17CHL1  H15A 1203   1.485   6.636   5.355
   17CHL1  H15B 1204   1.642   6.726   5.358
   17CHL1   C16 1205   1.596   6.622   5.168
   17CHL1  H16A 1206   1.493   6.635   5.129
   17CHL1  H16B 1207   1.661   6.700   5.122
   17CHL1   C17 1208   1.655   6.480   5.139
   17CHL1   H17 1209   1.764   6.497   5.145
   17CHL1   C13 1210   1.626   6.397   5.268
   17CHL1   C18 1211   1.476   6.359   5.274
   17CHL1  H18A 1212   1.411   6.445   5.247
   17CHL1  H18B 1213   1.457   6.277   5.202
   17CHL1  H18C 1214   1.448   6.324   5.375
   17CHL1   C12 1215   1.715   6.275   5.300
   17CHL1  H12A 1216   1.690   6.190   5.234
   17CHL1  H12B 1217   1.821   6.303   5.282
   17CHL1   C11 1218   1.700   6.229   5.448
   17CHL1  H11A 1219   1.598   6.187   5.459
   17CHL1  H11B 1220   1.773   6.147   5.467
   17CHL1    C9 1221   1.723   6.343   5.552
   17CHL1    H9 1222   1.829   6.373   5.537
   17CHL1   C10 1223   1.712   6.303   5.702
   17CHL1   C19 1224   1.581   6.223   5.722
   17CHL1  H19A 1225   1.565   6.197   5.829
   17CHL1  H19B 1226   1.494   6.281   5.687
   17CHL1  H19C 1227   1.585   6.127   5.666
   17CHL1    C1 1228   1.835   6.215   5.741
   17CHL1   H1A 1229   1.831   6.119   5.685
   17CHL1   H1B 1230   1.928   6.268   5.709
   17CHL1    C2 1231   1.849   6.184   5.892
   17CHL1   H2A 1232   1.942   6.127   5.910
   17CHL1   H2B 1233   1.763   6.120   5.924
   17CHL1   C20 1234   1.634   6.424   4.996
   17CHL1   H20 1235   1.692   6.493   4.930
   17CHL1   C21 1236   1.488   6.434   4.947
   17CHL1  H21A 1237   1.449   6.538   4.955
   17CHL1  H21B 1238   1.422   6.365   5.005
   17CHL1  H21C 1239   1.481   6.406   4.840
   17CHL1   C22 1240   1.694   6.283   4.971
   17CHL1  H22A 1241   1.800   6.281   5.004
   17CHL1  H22B 1242   1.637   6.211   5.034
   17CHL1   C23 1243   1.686   6.229   4.826
   17CHL1  H23A 1244   1.726   6.125   4.827
   17CHL1  H23B 1245   1.580   6.221   4.796
   17CHL1   C24 1246   1.765   6.307   4.719
   17CHL1  H24A 1247   1.737   6.414   4.720
   17CHL1  H24B 1248   1.873   6.300   4.742
   17CHL1   C25 1249   1.741   6.252   4.576
   17CHL1   H25 1250   1.751   6.142   4.579
   17CHL1   C26 1251   1.600   6.286   4.523
   17CHL1  H26A 1252   1.587   6.396   4.517
   17CHL1  H26B 1253   1.587   6.243   4.421
   17CHL1  H26C 1254   1.522   6.243   4.589
   17CHL1   C27 1255   1.845   6.305   4.476
   17CHL1  H27A 1256   1.817   6.276   4.372
   17CHL1  H27B 1257   1.853   6.415   4.481
   17CHL1  H27C 1258   1.943   6.259   4.498
   18CHL1    C3 1259   4.260   0.515   5.998
   18CHL1    H3 1260   4.167   0.459   5.977
   18CHL1    O3 1261   4.272   0.535   6.138
   18CHL1   H3' 1262   4.238   0.624   6.151
   18CHL1    C4 1263   4.381   0.437   5.943
   18CHL1   H4A 1264   4.474   0.493   5.970
   18CHL1   H4B 1265   4.386   0.340   5.996
   18CHL1    C5 1266   4.374   0.420   5.792
   18CHL1    C6 1267   4.380   0.299   5.733
   18CHL1    H6 1268   4.395   0.209   5.794
   18CHL1    C7 1269   4.377   0.278   5.584
   18CHL1   H7A 1270   4.457   0.208   5.552
   18CHL1   H7B 1271   4.280   0.231   5.555
   18CHL1    C8 1272   4.392   0.411   5.505
   18CHL1    H8 1273   4.499   0.440   5.515
   18CHL1   C14 1274   4.358   0.395   5.357
   18CHL1   H14 1275   4.253   0.359   5.355
   18CHL1   C15 1276   4.436   0.291   5.277
   18CHL1  H15A 1277   4.545   0.301   5.297
   18CHL1  H15B 1278   4.405   0.187   5.300
   18CHL1   C16 1279   4.407   0.329   5.131
   18CHL1  H16A 1280   4.501   0.326   5.071
   18CHL1  H16B 1281   4.333   0.259   5.087
   18CHL1   C17 1282   4.343   0.472   5.130
   18CHL1   H17 1283   4.234   0.457   5.118
   18CHL1   C13 1284   4.361   0.525   5.275
   18CHL1   C18 1285   4.492   0.604   5.291
   18CHL1  H18A 1286   4.558   0.553   5.364
   18CHL1  H18B 1287   4.547   0.617   5.196
   18CHL1  H18C 1288   4.475   0.707   5.329
   18CHL1   C12 1289   4.249   0.610   5.332
   18CHL1  H12A 1290   4.236   0.704   5.274
   18CHL1  H12B 1291   4.158   0.547   5.322
   18CHL1   C11 1292   4.274   0.643   5.481
   18CHL1  H11A 1293   4.357   0.717   5.489
   18CHL1  H11B 1294   4.184   0.695   5.521
   18CHL1    C9 1295   4.303   0.518   5.569
   18CHL1    H9 1296   4.204   0.469   5.577
   18CHL1   C10 1297   4.349   0.551   5.714
   18CHL1   C19 1298   4.482   0.630   5.712
   18CHL1  H19A 1299   4.564   0.573   5.663
   18CHL1  H19B 1300   4.471   0.727   5.659
   18CHL1  H19C 1301   4.516   0.654   5.815
   18CHL1    C1 1302   4.238   0.637   5.780
   18CHL1   H1A 1303   4.240   0.738   5.733
   18CHL1   H1B 1304   4.139   0.591   5.758
   18CHL1    C2 1305   4.252   0.653   5.932
   18CHL1   H2A 1306   4.164   0.709   5.971
   18CHL1   H2B 1307   4.343   0.711   5.955
   18CHL1   C20 1308   4.391   0.554   5.008
   18CHL1   H20 1309   4.502   0.557   5.010
   18CHL1   C21 1310   4.338   0.698   5.014
   18CHL1  H21A 1311   4.372   0.755   4.925
   18CHL1  H21B 1312   4.374   0.752   5.104
   18CHL1  H21C 1313   4.226   0.697   5.015
   18CHL1   C22 1314   4.350   0.489   4.873
   18CHL1  H22A 1315   4.358   0.378   4.879
   18CHL1  H22B 1316   4.244   0.513   4.852
   18CHL1   C23 1317   4.439   0.533   4.756
   18CHL1  H23A 1318   4.446   0.644   4.751
   18CHL1  H23B 1319   4.542   0.495   4.776
   18CHL1   C24 1320   4.387   0.481   4.621
   18CHL1  H24A 1321   4.361   0.373   4.631
   18CHL1  H24B 1322   4.294   0.536   4.595
   18CHL1   C25 1323   4.488   0.494   4.505
   18CHL1   H25 1324   4.522   0.600   4.500
   18CHL1   C26 1325   4.610   0.405   4.530
   18CHL1  H26A 1326   4.671   0.395   4.438
   18CHL1  H26B 1327   4.673   0.447   4.610
   18CHL1  H26C 1328   4.577   0.304   4.563
   18CHL1   C27 1329   4.423   0.459   4.370
   18CHL1  H27A 1330   4.339   0.528   4.348
   18CHL1  H27B 1331   4.498   0.466   4.288
   18CHL1  H27C 1332   4.384   0.355   4.373
   19CHL1    C3 1333   2.646   0.541   6.000
   19CHL1    H3 1334   2.585   0.633   6.008
   19CHL1    O3 1335   2.674   0.493   6.131
   19CHL1   H3' 1336   2.592   0.451   6.160
   19CHL1    C4 1337   2.568   0.433   5.925
   19CHL1   H4A 1338   2.624   0.337   5.931
   19CHL1   H4B 1339   2.472   0.415   5.978
   19CHL1    C5 1340   2.546   0.469   5.779
   19CHL1    C6 1341   2.424   0.467   5.724
   19CHL1    H6 1342   2.337   0.436   5.785
   19CHL1    C7 1343   2.398   0.489   5.578
   19CHL1   H7A 1344   2.324   0.415   5.540
   19CHL1   H7B 1345   2.357   0.591   5.561
   19CHL1    C8 1346   2.528   0.473   5.494
   19CHL1    H8 1347   2.555   0.365   5.492
   19CHL1   C14 1348   2.503   0.517   5.350
   19CHL1   H14 1349   2.479   0.626   5.355
   19CHL1   C15 1350   2.386   0.452   5.276
   19CHL1  H15A 1351   2.392   0.343   5.293
   19CHL1  H15B 1352   2.287   0.489   5.311
   19CHL1   C16 1353   2.412   0.484   5.128
   19CHL1  H16A 1354   2.410   0.390   5.070
   19CHL1  H16B 1355   2.336   0.553   5.086
   19CHL1   C17 1356   2.554   0.549   5.123
   19CHL1   H17 1357   2.539   0.658   5.133
   19CHL1   C13 1358   2.623   0.505   5.255
   19CHL1   C18 1359   2.669   0.358   5.239
   19CHL1  H18A 1360   2.590   0.293   5.195
   19CHL1  H18B 1361   2.758   0.353   5.172
   19CHL1  H18C 1362   2.699   0.314   5.336
   19CHL1   C12 1363   2.734   0.594   5.314
   19CHL1  H12A 1364   2.826   0.583   5.254
   19CHL1  H12B 1365   2.701   0.700   5.310
   19CHL1   C11 1366   2.767   0.556   5.460
   19CHL1  H11A 1367   2.813   0.455   5.454
   19CHL1  H11B 1368   2.843   0.626   5.500
   19CHL1    C9 1369   2.643   0.554   5.555
   19CHL1    H9 1370   2.607   0.658   5.561
   19CHL1   C10 1371   2.674   0.509   5.702
   19CHL1   C19 1372   2.762   0.384   5.693
   19CHL1  H19A 1373   2.708   0.312   5.628
   19CHL1  H19B 1374   2.862   0.404   5.648
   19CHL1  H19C 1375   2.782   0.338   5.792
   19CHL1    C1 1376   2.753   0.616   5.782
   19CHL1   H1A 1377   2.851   0.633   5.733
   19CHL1   H1B 1378   2.697   0.713   5.779
   19CHL1    C2 1379   2.778   0.577   5.929
   19CHL1   H2A 1380   2.829   0.659   5.983
   19CHL1   H2B 1381   2.846   0.489   5.934
   19CHL1   C20 1382   2.622   0.528   4.986
   19CHL1   H20 1383   2.641   0.420   4.969
   19CHL1   C21 1384   2.757   0.601   4.985
   19CHL1  H21A 1385   2.744   0.706   5.019
   19CHL1  H21B 1386   2.803   0.602   4.884
   19CHL1  H21C 1387   2.829   0.549   5.052
   19CHL1   C22 1388   2.529   0.577   4.872
   19CHL1  H22A 1389   2.448   0.502   4.857
   19CHL1  H22B 1390   2.480   0.671   4.905
   19CHL1   C23 1391   2.591   0.608   4.733
   19CHL1  H23A 1392   2.507   0.641   4.669
   19CHL1  H23B 1393   2.661   0.694   4.741
   19CHL1   C24 1394   2.663   0.490   4.665
   19CHL1  H24A 1395   2.752   0.461   4.725
   19CHL1  H24B 1396   2.596   0.401   4.665
   19CHL1   C25 1397   2.709   0.517   4.520
   19CHL1   H25 1398   2.792   0.591   4.524
   19CHL1   C26 1399   2.763   0.388   4.456
   19CHL1  H26A 1400   2.682   0.312   4.450
   19CHL1  H26B 1401   2.800   0.407   4.353
   19CHL1  H26C 1402   2.846   0.346   4.517
   19CHL1   C27 1403   2.600   0.576   4.429
   19CHL1  H27A 1404   2.511   0.510   4.427
   19CHL1  H27B 1405   2.569   0.677   4.465
   19CHL1  H27C 1406   2.638   0.587   4.326
   20CHL1    C3 1407   1.912   0.719   5.965
   20CHL1    H3 1408   1.917   0.828   5.950
   20CHL1    O3 1409   1.926   0.690   6.104
   20CHL1   H3' 1410   2.019   0.670   6.116
   20CHL1    C4 1411   1.776   0.666   5.916
   20CHL1   H4A 1412   1.765   0.561   5.950
   20CHL1   H4B 1413   1.697   0.724   5.969
   20CHL1    C5 1414   1.757   0.671   5.765
   20CHL1    C6 1415   1.648   0.724   5.708
   20CHL1    H6 1416   1.567   0.763   5.772
   20CHL1    C7 1417   1.622   0.725   5.560
   20CHL1   H7A 1418   1.518   0.694   5.537
   20CHL1   H7B 1419   1.635   0.828   5.520
   20CHL1    C8 1420   1.719   0.636   5.477
   20CHL1    H8 1421   1.681   0.532   5.485
   20CHL1   C14 1422   1.722   0.682   5.332
   20CHL1   H14 1423   1.777   0.779   5.334
   20CHL1   C15 1424   1.590   0.717   5.261
   20CHL1  H15A 1425   1.516   0.636   5.281
   20CHL1  H15B 1426   1.548   0.814   5.294
   20CHL1   C16 1427   1.631   0.719   5.113
   20CHL1  H16A 1428   1.568   0.647   5.056
   20CHL1  H16B 1429   1.613   0.818   5.066
   20CHL1   C17 1430   1.779   0.668   5.103
   20CHL1   H17 1431   1.851   0.752   5.114
   20CHL1   C13 1432   1.800   0.593   5.236
   20CHL1   C18 1433   1.728   0.459   5.221
   20CHL1  H18A 1434   1.785   0.394   5.150
   20CHL1  H18B 1435   1.719   0.408   5.319
   20CHL1  H18C 1436   1.625   0.468   5.180
   20CHL1   C12 1437   1.946   0.586   5.289
   20CHL1  H12A 1438   2.005   0.511   5.232
   20CHL1  H12B 1439   1.993   0.685   5.273
   20CHL1   C11 1440   1.954   0.553   5.440
   20CHL1  H11A 1441   1.923   0.447   5.451
   20CHL1  H11B 1442   2.060   0.562   5.472
   20CHL1    C9 1443   1.862   0.641   5.530
   20CHL1    H9 1444   1.897   0.746   5.516
   20CHL1   C10 1445   1.875   0.614   5.683
   20CHL1   C19 1446   1.873   0.462   5.705
   20CHL1  H19A 1447   1.868   0.433   5.812
   20CHL1  H19B 1448   1.786   0.418   5.652
   20CHL1  H19C 1449   1.967   0.417   5.664
   20CHL1    C1 1450   2.008   0.674   5.737
   20CHL1   H1A 1451   2.093   0.626   5.683
   20CHL1   H1B 1452   2.011   0.782   5.713
   20CHL1    C2 1453   2.028   0.655   5.888
   20CHL1   H2A 1454   2.124   0.702   5.919
   20CHL1   H2B 1455   2.034   0.546   5.912
   20CHL1   C20 1456   1.812   0.611   4.964
   20CHL1   H20 1457   1.746   0.525   4.942
   20CHL1   C21 1458   1.959   0.565   4.959
   20CHL1  H21A 1459   2.027   0.648   4.991
   20CHL1  H21B 1460   1.987   0.534   4.857
   20CHL1  H21C 1461   1.976   0.478   5.026
   20CHL1   C22 1462   1.787   0.722   4.857
   20CHL1  H22A 1463   1.683   0.759   4.867
   20CHL1  H22B 1464   1.856   0.806   4.879
   20CHL1   C23 1465   1.804   0.685   4.709
   20CHL1  H23A 1466   1.908   0.655   4.688
   20CHL1  H23B 1467   1.737   0.599   4.685
   20CHL1   C24 1468   1.766   0.806   4.621
   20CHL1  H24A 1469   1.666   0.843   4.652
   20CHL1  H24B 1470   1.839   0.887   4.639
   20CHL1   C25 1471   1.761   0.778   4.469
   20CHL1   H25 1472   1.691   0.693   4.452
   20CHL1   C26 1473   1.706   0.900   4.393
   20CHL1  H26A 1474   1.605   0.928   4.431
   20CHL1  H26B 1475   1.774   0.987   4.405
   20CHL1  H26C 1476   1.697   0.877   4.284
   20CHL1   C27 1477   1.898   0.740   4.413
   20CHL1  H27A 1478   1.937   0.648   4.461
   20CHL1  H27B 1479   1.891   0.722   4.304
   20CHL1  H27C 1480   1.971   0.822   4.430
   21CHL1    C3 1481   7.145   2.663   5.991
   21CHL1    H3 1482   7.042   2.698   5.969
   21CHL1    O3 1483   7.162   2.656   6.132
   21CHL1   H3' 1484   7.202   2.740   6.153
   21CHL1    C4 1485   7.168   2.525   5.926
   21CHL1   H4A 1486   7.267   2.488   5.958
   21CHL1   H4B 1487   7.092   2.456   5.968
   21CHL1    C5 1488   7.162   2.532   5.774
   21CHL1    C6 1489   7.075   2.457   5.704
   21CHL1    H6 1490   7.012   2.388   5.762
   21CHL1    C7 1491   7.061   2.454   5.554
   21CHL1   H7A 1492   7.053   2.350   5.517
   21CHL1   H7B 1493   6.968   2.507   5.525
   21CHL1    C8 1494   7.180   2.523   5.484
   21CHL1    H8 1495   7.267   2.455   5.493
   21CHL1   C14 1496   7.150   2.550   5.336
   21CHL1   H14 1497   7.066   2.622   5.334
   21CHL1   C15 1498   7.105   2.433   5.246
   21CHL1  H15A 1499   7.161   2.341   5.272
   21CHL1  H15B 1500   6.996   2.415   5.257
   21CHL1   C16 1501   7.142   2.478   5.102
   21CHL1  H16A 1502   7.211   2.403   5.058
   21CHL1  H16B 1503   7.052   2.488   5.037
   21CHL1   C17 1504   7.214   2.615   5.114
   21CHL1   H17 1505   7.135   2.693   5.108
   21CHL1   C13 1506   7.265   2.618   5.261
   21CHL1   C18 1507   7.392   2.529   5.272
   21CHL1  H18A 1508   7.473   2.568   5.207
   21CHL1  H18B 1509   7.431   2.527   5.376
   21CHL1  H18C 1510   7.371   2.425   5.241
   21CHL1   C12 1511   7.279   2.756   5.326
   21CHL1  H12A 1512   7.362   2.816   5.283
   21CHL1  H12B 1513   7.185   2.814   5.311
   21CHL1   C11 1514   7.307   2.745   5.476
   21CHL1  H11A 1515   7.412   2.710   5.487
   21CHL1  H11B 1516   7.297   2.848   5.517
   21CHL1    C9 1517   7.211   2.654   5.556
   21CHL1    H9 1518   7.115   2.710   5.556
   21CHL1   C10 1519   7.250   2.636   5.706
   21CHL1   C19 1520   7.397   2.587   5.718
   21CHL1  H19A 1521   7.468   2.665   5.683
   21CHL1  H19B 1522   7.425   2.565   5.823
   21CHL1  H19C 1523   7.414   2.496   5.658
   21CHL1    C1 1524   7.229   2.770   5.782
   21CHL1   H1A 1525   7.301   2.845   5.743
   21CHL1   H1B 1526   7.127   2.809   5.759
   21CHL1    C2 1527   7.245   2.764   5.934
   21CHL1   H2A 1528   7.228   2.865   5.977
   21CHL1   H2B 1529   7.349   2.733   5.960
   21CHL1   C20 1530   7.315   2.645   5.000
   21CHL1   H20 1531   7.400   2.575   5.008
   21CHL1   C21 1532   7.364   2.789   5.016
   21CHL1  H21A 1533   7.430   2.803   5.104
   21CHL1  H21B 1534   7.279   2.859   5.025
   21CHL1  H21C 1535   7.428   2.820   4.930
   21CHL1   C22 1536   7.258   2.628   4.856
   21CHL1  H22A 1537   7.209   2.529   4.847
   21CHL1  H22B 1538   7.181   2.706   4.840
   21CHL1   C23 1539   7.365   2.639   4.743
   21CHL1  H23A 1540   7.420   2.735   4.748
   21CHL1  H23B 1541   7.440   2.558   4.757
   21CHL1   C24 1542   7.302   2.626   4.603
   21CHL1  H24A 1543   7.252   2.527   4.601
   21CHL1  H24B 1544   7.222   2.703   4.591
   21CHL1   C25 1545   7.399   2.636   4.483
   21CHL1   H25 1546   7.491   2.579   4.506
   21CHL1   C26 1547   7.337   2.578   4.355
   21CHL1  H26A 1548   7.238   2.625   4.337
   21CHL1  H26B 1549   7.402   2.598   4.267
   21CHL1  H26C 1550   7.325   2.468   4.366
   21CHL1   C27 1551   7.436   2.780   4.450
   21CHL1  H27A 1552   7.344   2.843   4.443
   21CHL1  H27B 1553   7.504   2.822   4.527
   21CHL1  H27C 1554   7.486   2.786   4.351
   22CHL1    C3 1555   0.501   5.441   6.025
   22CHL1    H3 1556   0.539   5.544   6.009
   22CHL1    O3 1557   0.474   5.420   6.163
   22CHL1   H3' 1558   0.404   5.483   6.183
   22CHL1    C4 1559   0.370   5.421   5.949
   22CHL1   H4A 1560   0.332   5.322   5.979
   22CHL1   H4B 1561   0.297   5.497   5.985
   22CHL1    C5 1562   0.385   5.424   5.798
   22CHL1    C6 1563   0.312   5.509   5.724
   22CHL1    H6 1564   0.240   5.577   5.774
   22CHL1    C7 1565   0.310   5.509   5.575
   22CHL1   H7A 1566   0.205   5.510   5.537
   22CHL1   H7B 1567   0.360   5.600   5.536
   22CHL1    C8 1568   0.382   5.384   5.518
   22CHL1    H8 1569   0.314   5.297   5.534
   22CHL1   C14 1570   0.406   5.400   5.371
   22CHL1   H14 1571   0.474   5.487   5.361
   22CHL1   C15 1572   0.284   5.440   5.288
   22CHL1  H15A 1573   0.196   5.378   5.315
   22CHL1  H15B 1574   0.257   5.547   5.301
   22CHL1   C16 1575   0.329   5.411   5.146
   22CHL1  H16A 1576   0.244   5.366   5.091
   22CHL1  H16B 1577   0.358   5.505   5.095
   22CHL1   C17 1578   0.455   5.317   5.154
   22CHL1   H17 1579   0.541   5.379   5.123
   22CHL1   C13 1580   0.479   5.283   5.303
   22CHL1   C18 1581   0.429   5.141   5.339
   22CHL1  H18A 1582   0.389   5.133   5.442
   22CHL1  H18B 1583   0.353   5.105   5.267
   22CHL1  H18C 1584   0.514   5.069   5.333
   22CHL1   C12 1585   0.623   5.292   5.358
   22CHL1  H12A 1586   0.686   5.213   5.313
   22CHL1  H12B 1587   0.667   5.391   5.332
   22CHL1   C11 1588   0.620   5.275   5.512
   22CHL1  H11A 1589   0.603   5.167   5.534
   22CHL1  H11B 1590   0.721   5.301   5.549
   22CHL1    C9 1591   0.515   5.362   5.590
   22CHL1    H9 1592   0.561   5.463   5.587
   22CHL1   C10 1593   0.491   5.328   5.740
   22CHL1   C19 1594   0.448   5.179   5.749
   22CHL1  H19A 1595   0.365   5.158   5.679
   22CHL1  H19B 1596   0.532   5.112   5.723
   22CHL1  H19C 1597   0.417   5.153   5.853
   22CHL1    C1 1598   0.621   5.342   5.824
   22CHL1   H1A 1599   0.684   5.255   5.799
   22CHL1   H1B 1600   0.675   5.434   5.794
   22CHL1    C2 1601   0.604   5.339   5.977
   22CHL1   H2A 1602   0.701   5.357   6.028
   22CHL1   H2B 1603   0.569   5.237   6.007
   22CHL1   C20 1604   0.440   5.207   5.049
   22CHL1   H20 1605   0.355   5.140   5.074
   22CHL1   C21 1606   0.567   5.120   5.043
   22CHL1  H21A 1607   0.656   5.183   5.023
   22CHL1  H21B 1608   0.557   5.042   4.965
   22CHL1  H21C 1609   0.585   5.066   5.139
   22CHL1   C22 1610   0.402   5.272   4.912
   22CHL1  H22A 1611   0.294   5.256   4.894
   22CHL1  H22B 1612   0.419   5.381   4.915
   22CHL1   C23 1613   0.482   5.227   4.792
   22CHL1  H23A 1614   0.589   5.242   4.817
   22CHL1  H23B 1615   0.466   5.119   4.770
   22CHL1   C24 1616   0.449   5.314   4.670
   22CHL1  H24A 1617   0.339   5.315   4.653
   22CHL1  H24B 1618   0.481   5.418   4.691
   22CHL1   C25 1619   0.519   5.264   4.545
   22CHL1   H25 1620   0.474   5.167   4.514
   22CHL1   C26 1621   0.504   5.360   4.426
   22CHL1  H26A 1622   0.544   5.460   4.452
   22CHL1  H26B 1623   0.559   5.321   4.338
   22CHL1  H26C 1624   0.397   5.370   4.399
   22CHL1   C27 1625   0.665   5.234   4.573
   22CHL1  H27A 1626   0.721   5.328   4.593
   22CHL1  H27B 1627   0.682   5.161   4.656
   22CHL1  H27C 1628   0.704   5.183   4.483
   23CHL1    C3 1629   0.284   2.099   6.006
   23CHL1    H3 1630   0.264   2.208   5.999
   23CHL1    O3 1631   0.279   2.058   6.141
   23CHL1   H3' 1632   0.186   2.064   6.166
   23CHL1    C4 1633   0.176   2.022   5.927
   23CHL1   H4A 1634   0.189   1.914   5.947
   23CHL1   H4B 1635   0.077   2.050   5.969
   23CHL1    C5 1636   0.183   2.048   5.778
   23CHL1    C6 1637   0.077   2.092   5.708
   23CHL1    H6 1638  -0.019   2.108   5.759
   23CHL1    C7 1639   0.079   2.111   5.559
   23CHL1   H7A 1640  -0.013   2.068   5.513
   23CHL1   H7B 1641   0.080   2.220   5.536
   23CHL1    C8 1642   0.202   2.045   5.491
   23CHL1    H8 1643   0.186   1.935   5.490
   23CHL1   C14 1644   0.216   2.095   5.349
   23CHL1   H14 1645   0.235   2.204   5.356
   23CHL1   C15 1646   0.093   2.080   5.258
   23CHL1  H15A 1647   0.049   1.979   5.271
   23CHL1  H15B 1648   0.015   2.157   5.281
   23CHL1   C16 1649   0.150   2.095   5.117
   23CHL1  H16A 1650   0.118   2.007   5.057
   23CHL1  H16B 1651   0.115   2.188   5.068
   23CHL1   C17 1652   0.306   2.097   5.132
   23CHL1   H17 1653   0.334   2.204   5.138
   23CHL1   C13 1654   0.334   2.037   5.271
   23CHL1   C18 1655   0.327   1.883   5.261
   23CHL1  H18A 1656   0.236   1.850   5.206
   23CHL1  H18B 1657   0.416   1.844   5.206
   23CHL1  H18C 1658   0.327   1.835   5.361
   23CHL1   C12 1659   0.462   2.082   5.344
   23CHL1  H12A 1660   0.553   2.038   5.297
   23CHL1  H12B 1661   0.470   2.193   5.335
   23CHL1   C11 1662   0.461   2.040   5.492
   23CHL1  H11A 1663   0.476   1.930   5.492
   23CHL1  H11B 1664   0.548   2.085   5.543
   23CHL1    C9 1665   0.330   2.077   5.569
   23CHL1    H9 1666   0.329   2.188   5.576
   23CHL1   C10 1667   0.322   2.026   5.715
   23CHL1   C19 1668   0.345   1.874   5.716
   23CHL1  H19A 1669   0.271   1.821   5.652
   23CHL1  H19B 1670   0.447   1.852   5.676
   23CHL1  H19C 1671   0.341   1.831   5.818
   23CHL1    C1 1672   0.431   2.099   5.800
   23CHL1   H1A 1673   0.532   2.071   5.763
   23CHL1   H1B 1674   0.419   2.209   5.786
   23CHL1    C2 1675   0.424   2.070   5.951
   23CHL1   H2A 1676   0.498   2.132   6.005
   23CHL1   H2B 1677   0.449   1.963   5.969
   23CHL1   C20 1678   0.376   2.038   5.009
   23CHL1   H20 1679   0.360   1.928   5.005
   23CHL1   C21 1680   0.527   2.066   5.019
   23CHL1  H21A 1681   0.573   2.006   5.100
   23CHL1  H21B 1682   0.546   2.174   5.037
   23CHL1  H21C 1683   0.579   2.036   4.925
   23CHL1   C22 1684   0.317   2.097   4.878
   23CHL1  H22A 1685   0.208   2.077   4.872
   23CHL1  H22B 1686   0.330   2.207   4.880
   23CHL1   C23 1687   0.378   2.040   4.750
   23CHL1  H23A 1688   0.485   2.071   4.747
   23CHL1  H23B 1689   0.373   1.929   4.749
   23CHL1   C24 1690   0.304   2.098   4.628
   23CHL1  H24A 1691   0.200   2.058   4.625
   23CHL1  H24B 1692   0.295   2.207   4.643
   23CHL1   C25 1693   0.370   2.075   4.491
   23CHL1   H25 1694   0.331   1.979   4.449
   23CHL1   C26 1695   0.328   2.189   4.396
   23CHL1  H26A 1696   0.361   2.287   4.436
   23CHL1  H26B 1697   0.371   2.176   4.295
   23CHL1  H26C 1698   0.217   2.191   4.387
   23CHL1   C27 1699   0.523   2.060   4.497
   23CHL1  H27A 1700   0.571   2.137   4.562
   23CHL1  H27B 1701   0.551   1.961   4.538
   23CHL1  H27C 1702   0.568   2.070   4.396
   24CHL1    C3 1703   1.210   6.673   5.981
   24CHL1    H3 1704   1.102   6.662   5.958
   24CHL1    O3 1705   1.238   6.610   6.105
   24CHL1   H3' 1706   1.315   6.657   6.137
   24CHL1    C4 1707   1.295   6.608   5.870
   24CHL1   H4A 1708   1.402   6.617   5.897
   24CHL1   H4B 1709   1.271   6.500   5.868
   24CHL1    C5 1710   1.270   6.674   5.735
   24CHL1    C6 1711   1.223   6.603   5.632
   24CHL1    H6 1712   1.207   6.495   5.644
   24CHL1    C7 1713   1.192   6.660   5.497
   24CHL1   H7A 1714   1.235   6.596   5.417
   24CHL1   H7B 1715   1.082   6.662   5.483
   24CHL1    C8 1716   1.247   6.804   5.477
   24CHL1    H8 1717   1.356   6.797   5.457
   24CHL1   C14 1718   1.175   6.870   5.360
   24CHL1   H14 1719   1.069   6.881   5.392
   24CHL1   C15 1720   1.168   6.792   5.228
   24CHL1  H15A 1721   1.269   6.753   5.203
   24CHL1  H15B 1722   1.096   6.707   5.233
   24CHL1   C16 1723   1.124   6.898   5.127
   24CHL1  H16A 1724   1.192   6.895   5.039
   24CHL1  H16B 1725   1.020   6.881   5.093
   24CHL1   C17 1726   1.134   7.037   5.200
   24CHL1   H17 1727   1.032   7.060   5.237
   24CHL1   C13 1728   1.221   7.011   5.325
   24CHL1   C18 1729   1.371   7.010   5.286
   24CHL1  H18A 1730   1.406   7.113   5.261
   24CHL1  H18B 1731   1.434   6.974   5.370
   24CHL1  H18C 1732   1.389   6.945   5.198
   24CHL1   C12 1733   1.193   7.099   5.449
   24CHL1  H12A 1734   1.230   7.203   5.433
   24CHL1  H12B 1735   1.083   7.105   5.464
   24CHL1   C11 1736   1.258   7.041   5.577
   24CHL1  H11A 1737   1.368   7.055   5.567
   24CHL1  H11B 1738   1.224   7.101   5.664
   24CHL1    C9 1739   1.226   6.890   5.603
   24CHL1    H9 1740   1.116   6.887   5.620
   24CHL1   C10 1741   1.288   6.828   5.731
   24CHL1   C19 1742   1.439   6.863   5.734
   24CHL1  H19A 1743   1.453   6.972   5.751
   24CHL1  H19B 1744   1.491   6.810   5.817
   24CHL1  H19C 1745   1.487   6.836   5.638
   24CHL1    C1 1746   1.219   6.889   5.856
   24CHL1   H1A 1747   1.247   6.997   5.863
   24CHL1   H1B 1748   1.109   6.884   5.839
   24CHL1    C2 1749   1.245   6.822   5.991
   24CHL1   H2A 1750   1.183   6.870   6.069
   24CHL1   H2B 1751   1.352   6.835   6.018
   24CHL1   C20 1752   1.173   7.148   5.101
   24CHL1   H20 1753   1.267   7.118   5.051
   24CHL1   C21 1754   1.196   7.282   5.171
   24CHL1  H21A 1755   1.287   7.281   5.235
   24CHL1  H21B 1756   1.108   7.306   5.236
   24CHL1  H21C 1757   1.208   7.363   5.096
   24CHL1   C22 1758   1.065   7.165   4.990
   24CHL1  H22A 1759   1.008   7.071   4.975
   24CHL1  H22B 1760   0.992   7.242   5.022
   24CHL1   C23 1761   1.125   7.202   4.853
   24CHL1  H23A 1762   1.172   7.303   4.858
   24CHL1  H23B 1763   1.205   7.129   4.830
   24CHL1   C24 1764   1.020   7.198   4.741
   24CHL1  H24A 1765   0.979   7.095   4.734
   24CHL1  H24B 1766   0.938   7.268   4.766
   24CHL1   C25 1767   1.076   7.234   4.602
   24CHL1   H25 1768   1.133   7.329   4.614
   24CHL1   C26 1769   1.172   7.126   4.549
   24CHL1  H26A 1770   1.119   7.028   4.543
   24CHL1  H26B 1771   1.208   7.153   4.447
   24CHL1  H26C 1772   1.260   7.115   4.615
   24CHL1   C27 1773   0.963   7.258   4.502
   24CHL1  H27A 1774   0.904   7.165   4.488
   24CHL1  H27B 1775   0.895   7.338   4.538
   24CHL1  H27C 1776   1.004   7.289   4.403
   25CHL1    C3 1777   7.199   1.337   5.992
   25CHL1    H3 1778   7.271   1.254   6.006
   25CHL1    O3 1779   7.166   1.390   6.119
   25CHL1   H3' 1780   7.072   1.375   6.130
   25CHL1    C4 1781   7.263   1.447   5.907
   25CHL1   H4A 1782   7.192   1.533   5.902
   25CHL1   H4B 1783   7.353   1.485   5.960
   25CHL1    C5 1784   7.296   1.398   5.768
   25CHL1    C6 1785   7.421   1.406   5.721
   25CHL1    H6 1786   7.498   1.452   5.784
   25CHL1    C7 1787   7.461   1.366   5.582
   25CHL1   H7A 1788   7.524   1.445   5.536
   25CHL1   H7B 1789   7.520   1.271   5.584
   25CHL1    C8 1790   7.338   1.346   5.489
   25CHL1    H8 1791   7.299   1.447   5.465
   25CHL1   C14 1792   7.381   1.277   5.361
   25CHL1   H14 1793   7.414   1.175   5.389
   25CHL1   C15 1794   7.499   1.339   5.285
   25CHL1  H15A 1795   7.486   1.449   5.280
   25CHL1  H15B 1796   7.596   1.315   5.332
   25CHL1   C16 1797   7.487   1.279   5.145
   25CHL1  H16A 1798   7.492   1.362   5.071
   25CHL1  H16B 1799   7.568   1.206   5.123
   25CHL1   C17 1800   7.348   1.207   5.138
   25CHL1   H17 1801   7.367   1.099   5.156
   25CHL1   C13 1802   7.268   1.257   5.260
   25CHL1   C18 1803   7.202   1.393   5.223
   25CHL1  H18A 1804   7.275   1.462   5.176
   25CHL1  H18B 1805   7.119   1.376   5.150
   25CHL1  H18C 1806   7.157   1.443   5.311
   25CHL1   C12 1807   7.168   1.160   5.327
   25CHL1  H12A 1808   7.081   1.140   5.262
   25CHL1  H12B 1809   7.219   1.063   5.346
   25CHL1   C11 1810   7.116   1.217   5.462
   25CHL1  H11A 1811   7.049   1.302   5.436
   25CHL1  H11B 1812   7.054   1.140   5.512
   25CHL1    C9 1813   7.229   1.264   5.559
   25CHL1    H9 1814   7.279   1.171   5.591
   25CHL1   C10 1815   7.180   1.335   5.689
   25CHL1   C19 1816   7.084   1.451   5.651
   25CHL1  H19A 1817   7.047   1.505   5.740
   25CHL1  H19B 1818   7.134   1.524   5.584
   25CHL1  H19C 1819   6.994   1.412   5.598
   25CHL1    C1 1820   7.109   1.232   5.781
   25CHL1   H1A 1821   7.015   1.198   5.732
   25CHL1   H1B 1822   7.174   1.143   5.792
   25CHL1    C2 1823   7.073   1.283   5.922
   25CHL1   H2A 1824   7.028   1.202   5.983
   25CHL1   H2B 1825   6.998   1.365   5.914
   25CHL1   C20 1826   7.287   1.220   4.998
   25CHL1   H20 1827   7.261   1.326   4.977
   25CHL1   C21 1828   7.158   1.138   4.991
   25CHL1  H21A 1829   7.082   1.174   5.063
   25CHL1  H21B 1830   7.179   1.031   5.010
   25CHL1  H21C 1831   7.112   1.149   4.890
   25CHL1   C22 1832   7.388   1.177   4.888
   25CHL1  H22A 1833   7.464   1.256   4.877
   25CHL1  H22B 1834   7.441   1.084   4.919
   25CHL1   C23 1835   7.326   1.153   4.749
   25CHL1  H23A 1836   7.261   1.063   4.749
   25CHL1  H23B 1837   7.261   1.241   4.727
   25CHL1   C24 1838   7.434   1.136   4.642
   25CHL1  H24A 1839   7.518   1.207   4.663
   25CHL1  H24B 1840   7.476   1.033   4.647
   25CHL1   C25 1841   7.386   1.166   4.499
   25CHL1   H25 1842   7.303   1.096   4.474
   25CHL1   C26 1843   7.333   1.310   4.489
   25CHL1  H26A 1844   7.345   1.348   4.385
   25CHL1  H26B 1845   7.226   1.315   4.517
   25CHL1  H26C 1846   7.391   1.378   4.556
   25CHL1   C27 1847   7.499   1.144   4.398
   25CHL1  H27A 1848   7.459   1.158   4.295
   25CHL1  H27B 1849   7.580   1.218   4.414
   25CHL1  H27C 1850   7.540   1.041   4.406
   26CHL1    C3 1851   1.687   7.331   6.014
   26CHL1    H3 1852   1.764   7.252   6.024
   26CHL1    O3 1853   1.616   7.341   6.136
   26CHL1   H3' 1854   1.554   7.413   6.124
   26CHL1    C4 1855   1.755   7.465   5.981
   26CHL1   H4A 1856   1.676   7.544   5.973
   26CHL1   H4B 1857   1.819   7.494   6.067
   26CHL1    C5 1858   1.833   7.455   5.852
   26CHL1    C6 1859   1.965   7.483   5.849
   26CHL1    H6 1860   2.015   7.517   5.940
   26CHL1    C7 1861   2.048   7.478   5.723
   26CHL1   H7A 1862   2.111   7.569   5.716
   26CHL1   H7B 1863   2.116   7.390   5.727
   26CHL1    C8 1864   1.960   7.468   5.596
   26CHL1    H8 1865   1.913   7.568   5.582
   26CHL1   C14 1866   2.045   7.438   5.474
   26CHL1   H14 1867   2.093   7.340   5.490
   26CHL1   C15 1868   2.158   7.538   5.445
   26CHL1  H15A 1869   2.122   7.641   5.463
   26CHL1  H15B 1870   2.247   7.519   5.508
   26CHL1   C16 1871   2.187   7.519   5.296
   26CHL1  H16A 1872   2.180   7.618   5.247
   26CHL1  H16B 1873   2.288   7.476   5.278
   26CHL1   C17 1874   2.077   7.425   5.237
   26CHL1   H17 1875   2.120   7.322   5.235
   26CHL1   C13 1876   1.965   7.425   5.344
   26CHL1   C18 1877   1.882   7.551   5.318
   26CHL1  H18A 1878   1.817   7.535   5.230
   26CHL1  H18B 1879   1.814   7.576   5.403
   26CHL1  H18C 1880   1.947   7.639   5.299
   26CHL1   C12 1881   1.872   7.304   5.361
   26CHL1  H12A 1882   1.812   7.285   5.269
   26CHL1  H12B 1883   1.933   7.213   5.381
   26CHL1   C11 1884   1.776   7.324   5.481
   26CHL1  H11A 1885   1.701   7.401   5.452
   26CHL1  H11B 1886   1.719   7.230   5.497
   26CHL1    C9 1887   1.849   7.363   5.613
   26CHL1    H9 1888   1.902   7.271   5.645
   26CHL1   C10 1889   1.754   7.402   5.730
   26CHL1   C19 1890   1.658   7.514   5.680
   26CHL1  H19A 1891   1.566   7.470   5.638
   26CHL1  H19B 1892   1.630   7.584   5.762
   26CHL1  H19C 1893   1.705   7.575   5.600
   26CHL1    C1 1894   1.669   7.277   5.770
   26CHL1   H1A 1895   1.598   7.254   5.688
   26CHL1   H1B 1896   1.737   7.191   5.780
   26CHL1    C2 1897   1.591   7.293   5.901
   26CHL1   H2A 1898   1.539   7.198   5.925
   26CHL1   H2B 1899   1.513   7.372   5.889
   26CHL1   C20 1900   2.044   7.466   5.092
   26CHL1   H20 1901   1.995   7.566   5.091
   26CHL1   C21 1902   1.945   7.364   5.032
   26CHL1  H21A 1903   1.923   7.387   4.925
   26CHL1  H21B 1904   1.848   7.367   5.085
   26CHL1  H21C 1905   1.989   7.263   5.039
   26CHL1   C22 1906   2.170   7.480   5.002
   26CHL1  H22A 1907   2.237   7.558   5.044
   26CHL1  H22B 1908   2.226   7.384   5.000
   26CHL1   C23 1909   2.137   7.525   4.858
   26CHL1  H23A 1910   2.087   7.441   4.805
   26CHL1  H23B 1911   2.067   7.611   4.862
   26CHL1   C24 1912   2.260   7.566   4.775
   26CHL1  H24A 1913   2.319   7.641   4.833
   26CHL1  H24B 1914   2.325   7.478   4.759
   26CHL1   C25 1915   2.223   7.629   4.639
   26CHL1   H25 1916   2.160   7.718   4.658
   26CHL1   C26 1917   2.349   7.675   4.564
   26CHL1  H26A 1918   2.423   7.593   4.559
   26CHL1  H26B 1919   2.324   7.707   4.461
   26CHL1  H26C 1920   2.394   7.761   4.618
   26CHL1   C27 1921   2.143   7.533   4.548
   26CHL1  H27A 1922   2.118   7.583   4.453
   26CHL1  H27B 1923   2.206   7.444   4.525
   26CHL1  H27C 1924   2.049   7.500   4.597
   27CHL1    C3 1925   0.291   6.567   5.995
   27CHL1    H3 1926   0.310   6.457   5.994
   27CHL1    O3 1927   0.303   6.612   6.128
   27CHL1   H3' 1928   0.214   6.609   6.164
   27CHL1    C4 1929   0.396   6.638   5.907
   27CHL1   H4A 1930   0.400   6.745   5.937
   27CHL1   H4B 1931   0.496   6.597   5.935
   27CHL1    C5 1932   0.372   6.628   5.758
   27CHL1    C6 1933   0.467   6.589   5.671
   27CHL1    H6 1934   0.567   6.562   5.707
   27CHL1    C7 1935   0.448   6.586   5.521
   27CHL1   H7A 1936   0.540   6.621   5.470
   27CHL1   H7B 1937   0.429   6.482   5.488
   27CHL1    C8 1938   0.329   6.673   5.473
   27CHL1    H8 1939   0.360   6.779   5.486
   27CHL1   C14 1940   0.293   6.644   5.327
   27CHL1   H14 1941   0.242   6.545   5.327
   27CHL1   C15 1942   0.409   6.629   5.227
   27CHL1  H15A 1943   0.490   6.698   5.260
   27CHL1  H15B 1944   0.449   6.526   5.226
   27CHL1   C16 1945   0.352   6.672   5.091
   27CHL1  H16A 1946   0.401   6.767   5.060
   27CHL1  H16B 1947   0.369   6.598   5.010
   27CHL1   C17 1948   0.200   6.700   5.113
   27CHL1   H17 1949   0.146   6.604   5.108
   27CHL1   C13 1950   0.194   6.741   5.262
   27CHL1   C18 1951   0.248   6.881   5.271
   27CHL1  H18A 1952   0.197   6.955   5.206
   27CHL1  H18B 1953   0.229   6.913   5.376
   27CHL1  H18C 1954   0.357   6.885   5.250
   27CHL1   C12 1955   0.064   6.736   5.344
   27CHL1  H12A 1956   0.012   6.832   5.325
   27CHL1  H12B 1957  -0.001   6.654   5.306
   27CHL1   C11 1958   0.083   6.731   5.500
   27CHL1  H11A 1959   0.088   6.837   5.531
   27CHL1  H11B 1960  -0.009   6.689   5.545
   27CHL1    C9 1961   0.205   6.653   5.560
   27CHL1    H9 1962   0.184   6.544   5.549
   27CHL1   C10 1963   0.229   6.667   5.715
   27CHL1   C19 1964   0.211   6.812   5.764
   27CHL1  H19A 1965   0.296   6.873   5.728
   27CHL1  H19B 1966   0.114   6.855   5.733
   27CHL1  H19C 1967   0.213   6.823   5.875
   27CHL1    C1 1968   0.131   6.576   5.794
   27CHL1   H1A 1969   0.027   6.603   5.767
   27CHL1   H1B 1970   0.148   6.470   5.763
   27CHL1    C2 1971   0.146   6.587   5.947
   27CHL1   H2A 1972   0.081   6.510   5.996
   27CHL1   H2B 1973   0.107   6.685   5.981
   27CHL1   C20 1974   0.146   6.789   4.997
   27CHL1   H20 1975   0.219   6.868   4.972
   27CHL1   C21 1976   0.015   6.856   5.037
   27CHL1  H21A 1977   0.020   6.915   5.130
   27CHL1  H21B 1978  -0.056   6.771   5.051
   27CHL1  H21C 1979  -0.024   6.924   4.958
   27CHL1   C22 1980   0.117   6.702   4.870
   27CHL1  H22A 1981   0.212   6.656   4.835
   27CHL1  H22B 1982   0.051   6.619   4.904
   27CHL1   C23 1983   0.044   6.770   4.752
   27CHL1  H23A 1984   0.006   6.692   4.682
   27CHL1  H23B 1985  -0.048   6.822   4.787
   27CHL1   C24 1986   0.129   6.870   4.672
   27CHL1  H24A 1987   0.062   6.930   4.606
   27CHL1  H24B 1988   0.178   6.939   4.744
   27CHL1   C25 1989   0.238   6.805   4.584
   27CHL1   H25 1990   0.299   6.739   4.648
   27CHL1   C26 1991   0.180   6.722   4.468
   27CHL1  H26A 1992   0.263   6.678   4.409
   27CHL1  H26B 1993   0.117   6.639   4.506
   27CHL1  H26C 1994   0.118   6.786   4.401
   27CHL1   C27 1995   0.330   6.914   4.527
   27CHL1  H27A 1996   0.273   6.982   4.459
   27CHL1  H27B 1997   0.373   6.975   4.609
   27CHL1  H27C 1998   0.412   6.867   4.470
   28CHL1    C3 1999   0.265   0.736   6.009
   28CHL1    H3 2000   0.170   0.683   5.987
   28CHL1    O3 2001   0.285   0.738   6.149
   28CHL1   H3' 2002   0.302   0.830   6.172
   28CHL1    C4 2003   0.380   0.662   5.939
   28CHL1   H4A 2004   0.476   0.714   5.960
   28CHL1   H4B 2005   0.389   0.561   5.985
   28CHL1    C5 2006   0.354   0.655   5.790
   28CHL1    C6 2007   0.351   0.536   5.730
   28CHL1    H6 2008   0.373   0.444   5.787
   28CHL1    C7 2009   0.322   0.519   5.585
   28CHL1   H7A 2010   0.403   0.459   5.538
   28CHL1   H7B 2011   0.227   0.464   5.575
   28CHL1    C8 2012   0.313   0.649   5.502
   28CHL1    H8 2013   0.417   0.676   5.471
   28CHL1   C14 2014   0.227   0.623   5.381
   28CHL1   H14 2015   0.123   0.608   5.418
   28CHL1   C15 2016   0.260   0.497   5.305
   28CHL1  H15A 2017   0.368   0.505   5.279
   28CHL1  H15B 2018   0.240   0.405   5.364
   28CHL1   C16 2019   0.178   0.506   5.179
   28CHL1  H16A 2020   0.242   0.472   5.094
   28CHL1  H16B 2021   0.087   0.442   5.183
   28CHL1   C17 2022   0.137   0.656   5.166
   28CHL1   H17 2023   0.031   0.663   5.198
   28CHL1   C13 2024   0.220   0.732   5.276
   28CHL1   C18 2025   0.361   0.765   5.218
   28CHL1  H18A 2026   0.353   0.848   5.145
   28CHL1  H18B 2027   0.431   0.796   5.297
   28CHL1  H18C 2028   0.405   0.678   5.165
   28CHL1   C12 2029   0.159   0.854   5.349
   28CHL1  H12A 2030   0.161   0.943   5.282
   28CHL1  H12B 2031   0.053   0.831   5.372
   28CHL1   C11 2032   0.234   0.886   5.483
   28CHL1  H11A 2033   0.334   0.925   5.456
   28CHL1  H11B 2034   0.178   0.967   5.535
   28CHL1    C9 2035   0.251   0.763   5.578
   28CHL1    H9 2036   0.148   0.730   5.603
   28CHL1   C10 2037   0.321   0.787   5.716
   28CHL1   C19 2038   0.457   0.857   5.693
   28CHL1  H19A 2039   0.444   0.955   5.644
   28CHL1  H19B 2040   0.510   0.874   5.790
   28CHL1  H19C 2041   0.522   0.794   5.629
   28CHL1    C1 2042   0.226   0.876   5.803
   28CHL1   H1A 2043   0.227   0.979   5.762
   28CHL1   H1B 2044   0.123   0.836   5.792
   28CHL1    C2 2045   0.258   0.879   5.954
   28CHL1   H2A 2046   0.179   0.936   6.007
   28CHL1   H2B 2047   0.356   0.928   5.970
   28CHL1   C20 2048   0.144   0.697   5.019
   28CHL1   H20 2049   0.250   0.693   4.985
   28CHL1   C21 2050   0.092   0.840   5.005
   28CHL1  H21A 2051  -0.013   0.848   5.042
   28CHL1  H21B 2052   0.094   0.871   4.899
   28CHL1  H21C 2053   0.156   0.911   5.062
   28CHL1   C22 2054   0.063   0.601   4.928
   28CHL1  H22A 2055   0.085   0.494   4.948
   28CHL1  H22B 2056  -0.045   0.616   4.951
   28CHL1   C23 2057   0.084   0.618   4.777
   28CHL1  H23A 2058   0.010   0.554   4.725
   28CHL1  H23B 2059   0.063   0.724   4.748
   28CHL1   C24 2060   0.221   0.574   4.724
   28CHL1  H24A 2061   0.303   0.633   4.771
   28CHL1  H24B 2062   0.236   0.467   4.750
   28CHL1   C25 2063   0.230   0.588   4.571
   28CHL1   H25 2064   0.138   0.543   4.528
   28CHL1   C26 2065   0.234   0.735   4.526
   28CHL1  H26A 2066   0.143   0.790   4.559
   28CHL1  H26B 2067   0.323   0.786   4.569
   28CHL1  H26C 2068   0.240   0.742   4.415
   28CHL1   C27 2069   0.350   0.511   4.515
   28CHL1  H27A 2070   0.445   0.553   4.554
   28CHL1  H27B 2071   0.344   0.404   4.544
   28CHL1  H27C 2072   0.350   0.517   4.404
   29CHL1    C3 2073   3.757   3.282   2.520
   29CHL1    H3 2074   3.779   3.388   2.545
   29CHL1    O3 2075   3.775   3.260   2.381
   29CHL1   H3' 2076   3.792   3.166   2.374
   29CHL1    C4 2077   3.852   3.190   2.598
   29CHL1   H4A 2078   3.837   3.085   2.564
   29CHL1   H4B 2079   3.957   3.217   2.570
   29CHL1    C5 2080   3.832   3.198   2.748
   29CHL1    C6 2081   3.932   3.221   2.834
   29CHL1    H6 2082   4.035   3.231   2.796
   29CHL1    C7 2083   3.915   3.221   2.984
   29CHL1   H7A 2084   3.995   3.159   3.031
   29CHL1   H7B 2085   3.927   3.325   3.021
   29CHL1    C8 2086   3.778   3.167   3.032
   29CHL1    H8 2087   3.781   3.056   3.026
   29CHL1   C14 2088   3.752   3.209   3.176
   29CHL1   H14 2089   3.744   3.320   3.173
   29CHL1   C15 2090   3.859   3.178   3.281
   29CHL1  H15A 2091   3.897   3.075   3.268
   29CHL1  H15B 2092   3.945   3.249   3.274
   29CHL1   C16 2093   3.784   3.192   3.415
   29CHL1  H16A 2094   3.795   3.098   3.473
   29CHL1  H16B 2095   3.823   3.277   3.476
   29CHL1   C17 2096   3.634   3.215   3.378
   29CHL1   H17 2097   3.621   3.325   3.368
   29CHL1   C13 2098   3.620   3.160   3.235
   29CHL1   C18 2099   3.617   3.006   3.242
   29CHL1  H18A 2100   3.703   2.964   3.298
   29CHL1  H18B 2101   3.524   2.974   3.294
   29CHL1  H18C 2102   3.616   2.960   3.141
   29CHL1   C12 2103   3.505   3.217   3.149
   29CHL1  H12A 2104   3.407   3.177   3.180
   29CHL1  H12B 2105   3.504   3.327   3.163
   29CHL1   C11 2106   3.524   3.185   3.000
   29CHL1  H11A 2107   3.507   3.075   2.990
   29CHL1  H11B 2108   3.444   3.237   2.942
   29CHL1    C9 2109   3.665   3.220   2.943
   29CHL1    H9 2110   3.672   3.330   2.949
   29CHL1   C10 2111   3.686   3.184   2.793
   29CHL1   C19 2112   3.650   3.036   2.771
   29CHL1  H19A 2113   3.703   2.969   2.842
   29CHL1  H19B 2114   3.540   3.028   2.787
   29CHL1  H19C 2115   3.669   3.000   2.668
   29CHL1    C1 2116   3.591   3.272   2.707
   29CHL1   H1A 2117   3.485   3.249   2.731
   29CHL1   H1B 2118   3.609   3.378   2.734
   29CHL1    C2 2119   3.610   3.255   2.555
   29CHL1   H2A 2120   3.544   3.326   2.502
   29CHL1   H2B 2121   3.582   3.152   2.525
   29CHL1   C20 2122   3.538   3.171   3.491
   29CHL1   H20 2123   3.559   3.064   3.514
   29CHL1   C21 2124   3.389   3.180   3.452
   29CHL1  H21A 2125   3.362   3.284   3.422
   29CHL1  H21B 2126   3.326   3.151   3.538
   29CHL1  H21C 2127   3.365   3.111   3.368
   29CHL1   C22 2128   3.561   3.254   3.620
   29CHL1  H22A 2129   3.630   3.339   3.601
   29CHL1  H22B 2130   3.464   3.298   3.652
   29CHL1   C23 2131   3.616   3.169   3.735
   29CHL1  H23A 2132   3.542   3.089   3.756
   29CHL1  H23B 2133   3.711   3.121   3.702
   29CHL1   C24 2134   3.639   3.249   3.864
   29CHL1  H24A 2135   3.719   3.325   3.847
   29CHL1  H24B 2136   3.546   3.303   3.889
   29CHL1   C25 2137   3.678   3.159   3.983
   29CHL1   H25 2138   3.598   3.083   3.995
   29CHL1   C26 2139   3.811   3.087   3.961
   29CHL1  H26A 2140   3.892   3.161   3.941
   29CHL1  H26B 2141   3.839   3.028   4.051
   29CHL1  H26C 2142   3.805   3.017   3.875
   29CHL1   C27 2143   3.683   3.241   4.113
   29CHL1  H27A 2144   3.764   3.317   4.107
   29CHL1  H27B 2145   3.587   3.294   4.130
   29CHL1  H27C 2146   3.703   3.175   4.200
   30CHL1    C3 2147   3.964   4.579   2.480
   30CHL1    H3 2148   4.009   4.477   2.486
   30CHL1    O3 2149   3.944   4.614   2.344
   30CHL1   H3' 2150   3.890   4.693   2.348
   30CHL1    C4 2151   3.829   4.579   2.553
   30CHL1   H4A 2152   3.780   4.678   2.538
   30CHL1   H4B 2153   3.763   4.504   2.504
   30CHL1    C5 2154   3.842   4.552   2.701
   30CHL1    C6 2155   3.772   4.456   2.764
   30CHL1    H6 2156   3.700   4.395   2.707
   30CHL1    C7 2157   3.778   4.430   2.912
   30CHL1   H7A 2158   3.676   4.419   2.955
   30CHL1   H7B 2159   3.831   4.334   2.930
   30CHL1    C8 2160   3.852   4.542   2.989
   30CHL1    H8 2161   3.783   4.629   2.997
   30CHL1   C14 2162   3.888   4.495   3.129
   30CHL1   H14 2163   3.954   4.407   3.113
   30CHL1   C15 2164   3.773   4.448   3.221
   30CHL1  H15A 2165   3.686   4.515   3.209
   30CHL1  H15B 2166   3.743   4.343   3.197
   30CHL1   C16 2167   3.831   4.461   3.363
   30CHL1  H16A 2168   3.766   4.531   3.420
   30CHL1  H16B 2169   3.836   4.364   3.417
   30CHL1   C17 2170   3.973   4.523   3.347
   30CHL1   H17 2171   4.044   4.437   3.338
   30CHL1   C13 2172   3.969   4.594   3.211
   30CHL1   C18 2173   3.889   4.724   3.228
   30CHL1  H18A 2174   3.861   4.768   3.131
   30CHL1  H18B 2175   3.797   4.712   3.289
   30CHL1  H18C 2176   3.957   4.797   3.278
   30CHL1   C12 2177   4.103   4.623   3.142
   30CHL1  H12A 2178   4.155   4.705   3.194
   30CHL1  H12B 2179   4.168   4.533   3.150
   30CHL1   C11 2180   4.081   4.668   2.996
   30CHL1  H11A 2181   4.045   4.773   3.002
   30CHL1  H11B 2182   4.180   4.669   2.946
   30CHL1    C9 2183   3.980   4.582   2.914
   30CHL1    H9 2184   4.031   4.486   2.894
   30CHL1   C10 2185   3.948   4.638   2.773
   30CHL1   C19 2186   3.888   4.779   2.786
   30CHL1  H19A 2187   3.800   4.781   2.855
   30CHL1  H19B 2188   3.965   4.846   2.828
   30CHL1  H19C 2189   3.857   4.821   2.688
   30CHL1    C1 2190   4.080   4.647   2.691
   30CHL1   H1A 2191   4.147   4.724   2.737
   30CHL1   H1B 2192   4.132   4.549   2.698
   30CHL1    C2 2193   4.060   4.680   2.543
   30CHL1   H2A 2194   4.158   4.676   2.490
   30CHL1   H2B 2195   4.019   4.783   2.532
   30CHL1   C20 2196   4.018   4.607   3.467
   30CHL1   H20 2197   3.960   4.702   3.466
   30CHL1   C21 2198   4.168   4.644   3.454
   30CHL1  H21A 2199   4.217   4.654   3.553
   30CHL1  H21B 2200   4.180   4.741   3.401
   30CHL1  H21C 2201   4.223   4.566   3.397
   30CHL1   C22 2202   3.987   4.540   3.602
   30CHL1  H22A 2203   3.881   4.508   3.607
   30CHL1  H22B 2204   4.049   4.449   3.611
   30CHL1   C23 2205   4.007   4.632   3.723
   30CHL1  H23A 2206   3.983   4.574   3.814
   30CHL1  H23B 2207   4.113   4.665   3.732
   30CHL1   C24 2208   3.916   4.755   3.713
   30CHL1  H24A 2209   3.944   4.818   3.626
   30CHL1  H24B 2210   3.811   4.722   3.700
   30CHL1   C25 2211   3.924   4.846   3.835
   30CHL1   H25 2212   4.030   4.874   3.852
   30CHL1   C26 2213   3.845   4.974   3.810
   30CHL1  H26A 2214   3.779   4.964   3.721
   30CHL1  H26B 2215   3.780   4.998   3.897
   30CHL1  H26C 2216   3.915   5.058   3.796
   30CHL1   C27 2217   3.870   4.775   3.959
   30CHL1  H27A 2218   3.769   4.733   3.942
   30CHL1  H27B 2219   3.940   4.693   3.989
   30CHL1  H27C 2220   3.865   4.849   4.042
   31CHL1    C3 2221   3.188   4.781   2.489
   31CHL1    H3 2222   3.093   4.736   2.527
   31CHL1    O3 2223   3.189   4.771   2.347
   31CHL1   H3' 2224   3.134   4.843   2.315
   31CHL1    C4 2225   3.195   4.929   2.531
   31CHL1   H4A 2226   3.288   4.973   2.490
   31CHL1   H4B 2227   3.110   4.984   2.483
   31CHL1    C5 2228   3.192   4.941   2.682
   31CHL1    C6 2229   3.094   5.009   2.744
   31CHL1    H6 2230   3.017   5.061   2.684
   31CHL1    C7 2231   3.085   5.026   2.892
   31CHL1   H7A 2232   3.061   5.132   2.917
   31CHL1   H7B 2233   3.002   4.963   2.932
   31CHL1    C8 2234   3.216   4.987   2.964
   31CHL1    H8 2235   3.288   5.069   2.946
   31CHL1   C14 2236   3.192   4.970   3.113
   31CHL1   H14 2237   3.128   4.880   3.125
   31CHL1   C15 2238   3.114   5.082   3.183
   31CHL1  H15A 2239   3.142   5.179   3.138
   31CHL1  H15B 2240   3.004   5.068   3.173
   31CHL1   C16 2241   3.159   5.074   3.330
   31CHL1  H16A 2242   3.208   5.170   3.357
   31CHL1  H16B 2243   3.074   5.057   3.398
   31CHL1   C17 2244   3.263   4.958   3.339
   31CHL1   H17 2245   3.205   4.866   3.360
   31CHL1   C13 2246   3.318   4.944   3.195
   31CHL1   C18 2247   3.424   5.055   3.173
   31CHL1  H18A 2248   3.513   5.036   3.237
   31CHL1  H18B 2249   3.459   5.059   3.068
   31CHL1  H18C 2250   3.383   5.156   3.199
   31CHL1   C12 2251   3.369   4.805   3.149
   31CHL1  H12A 2252   3.464   4.778   3.200
   31CHL1  H12B 2253   3.292   4.729   3.175
   31CHL1   C11 2254   3.394   4.802   2.997
   31CHL1  H11A 2255   3.484   4.864   2.979
   31CHL1  H11B 2256   3.418   4.698   2.966
   31CHL1    C9 2257   3.275   4.856   2.910
   31CHL1    H9 2258   3.193   4.781   2.924
   31CHL1   C10 2259   3.302   4.862   2.757
   31CHL1   C19 2260   3.437   4.934   2.732
   31CHL1  H19A 2261   3.521   4.875   2.773
   31CHL1  H19B 2262   3.457   4.949   2.624
   31CHL1  H19C 2263   3.438   5.034   2.781
   31CHL1    C1 2264   3.308   4.716   2.702
   31CHL1   H1A 2265   3.399   4.667   2.742
   31CHL1   H1B 2266   3.220   4.660   2.740
   31CHL1    C2 2267   3.307   4.705   2.548
   31CHL1   H2A 2268   3.302   4.598   2.519
   31CHL1   H2B 2269   3.401   4.748   2.507
   31CHL1   C20 2270   3.361   4.978   3.456
   31CHL1   H20 2271   3.427   5.065   3.436
   31CHL1   C21 2272   3.449   4.851   3.471
   31CHL1  H21A 2273   3.519   4.842   3.385
   31CHL1  H21B 2274   3.385   4.761   3.476
   31CHL1  H21C 2275   3.511   4.855   3.563
   31CHL1   C22 2276   3.287   5.008   3.590
   31CHL1  H22A 2277   3.213   5.089   3.578
   31CHL1  H22B 2278   3.231   4.916   3.617
   31CHL1   C23 2279   3.377   5.049   3.708
   31CHL1  H23A 2280   3.476   4.999   3.701
   31CHL1  H23B 2281   3.397   5.158   3.704
   31CHL1   C24 2282   3.314   5.009   3.842
   31CHL1  H24A 2283   3.222   5.069   3.860
   31CHL1  H24B 2284   3.283   4.903   3.834
   31CHL1   C25 2285   3.409   5.022   3.962
   31CHL1   H25 2286   3.510   4.989   3.929
   31CHL1   C26 2287   3.418   5.166   4.012
   31CHL1  H26A 2288   3.319   5.197   4.052
   31CHL1  H26B 2289   3.493   5.176   4.093
   31CHL1  H26C 2290   3.446   5.235   3.929
   31CHL1   C27 2291   3.363   4.929   4.076
   31CHL1  H27A 2292   3.360   4.823   4.040
   31CHL1  H27B 2293   3.434   4.935   4.161
   31CHL1  H27C 2294   3.262   4.958   4.111
   32CHL1    C3 2295   3.944   2.423   2.493
   32CHL1    H3 2296   3.839   2.388   2.494
   32CHL1    O3 2297   3.990   2.432   2.359
   32CHL1   H3' 2298   3.972   2.346   2.321
   32CHL1    C4 2299   3.950   2.563   2.559
   32CHL1   H4A 2300   4.052   2.604   2.546
   32CHL1   H4B 2301   3.882   2.630   2.502
   32CHL1    C5 2302   3.914   2.557   2.706
   32CHL1    C6 2303   3.813   2.631   2.756
   32CHL1    H6 2304   3.757   2.699   2.691
   32CHL1    C7 2305   3.776   2.633   2.901
   32CHL1   H7A 2306   3.758   2.737   2.935
   32CHL1   H7B 2307   3.682   2.576   2.917
   32CHL1    C8 2308   3.887   2.571   2.991
   32CHL1    H8 2309   3.969   2.645   2.998
   32CHL1   C14 2310   3.831   2.543   3.130
   32CHL1   H14 2311   3.754   2.464   3.115
   32CHL1   C15 2312   3.758   2.656   3.203
   32CHL1  H15A 2313   3.819   2.749   3.198
   32CHL1  H15B 2314   3.658   2.676   3.159
   32CHL1   C16 2315   3.750   2.605   3.347
   32CHL1  H16A 2316   3.787   2.684   3.416
   32CHL1  H16B 2317   3.646   2.577   3.375
   32CHL1   C17 2318   3.842   2.479   3.355
   32CHL1   H17 2319   3.776   2.391   3.338
   32CHL1   C13 2320   3.932   2.485   3.229
   32CHL1   C18 2321   4.047   2.586   3.255
   32CHL1  H18A 2322   4.101   2.610   3.161
   32CHL1  H18B 2323   4.010   2.681   3.299
   32CHL1  H18C 2324   4.122   2.543   3.325
   32CHL1   C12 2325   3.981   2.351   3.172
   32CHL1  H12A 2326   4.060   2.306   3.236
   32CHL1  H12B 2327   3.896   2.280   3.168
   32CHL1   C11 2328   4.039   2.368   3.031
   32CHL1  H11A 2329   4.132   2.427   3.042
   32CHL1  H11B 2330   4.066   2.269   2.990
   32CHL1    C9 2331   3.941   2.440   2.933
   32CHL1    H9 2332   3.853   2.374   2.925
   32CHL1   C10 2333   3.996   2.457   2.789
   32CHL1   C19 2334   4.141   2.509   2.797
   32CHL1  H19A 2335   4.184   2.524   2.696
   32CHL1  H19B 2336   4.147   2.605   2.853
   32CHL1  H19C 2337   4.208   2.435   2.847
   32CHL1    C1 2338   3.994   2.318   2.718
   32CHL1   H1A 2339   4.064   2.249   2.770
   32CHL1   H1B 2340   3.892   2.275   2.727
   32CHL1    C2 2341   4.032   2.323   2.569
   32CHL1   H2A 2342   4.021   2.221   2.525
   32CHL1   H2B 2343   4.138   2.352   2.559
   32CHL1   C20 2344   3.906   2.460   3.493
   32CHL1   H20 2345   3.961   2.552   3.521
   32CHL1   C21 2346   4.005   2.342   3.493
   32CHL1  H21A 2347   4.101   2.370   3.443
   32CHL1  H21B 2348   3.962   2.256   3.437
   32CHL1  H21C 2349   4.030   2.308   3.596
   32CHL1   C22 2350   3.794   2.438   3.597
   32CHL1  H22A 2351   3.715   2.516   3.587
   32CHL1  H22B 2352   3.745   2.340   3.575
   32CHL1   C23 2353   3.838   2.440   3.744
   32CHL1  H23A 2354   3.914   2.361   3.761
   32CHL1  H23B 2355   3.884   2.538   3.769
   32CHL1   C24 2356   3.716   2.414   3.834
   32CHL1  H24A 2357   3.645   2.499   3.821
   32CHL1  H24B 2358   3.664   2.324   3.795
   32CHL1   C25 2359   3.744   2.398   3.985
   32CHL1   H25 2360   3.775   2.498   4.022
   32CHL1   C26 2361   3.615   2.356   4.055
   32CHL1  H26A 2362   3.529   2.414   4.016
   32CHL1  H26B 2363   3.593   2.248   4.041
   32CHL1  H26C 2364   3.626   2.374   4.165
   32CHL1   C27 2365   3.854   2.297   4.022
   32CHL1  H27A 2366   3.877   2.306   4.130
   32CHL1  H27B 2367   3.817   2.194   4.004
   32CHL1  H27C 2368   3.947   2.313   3.964
   33CHL1    C3 2369   2.047   3.501   2.479
   33CHL1    H3 2370   2.156   3.481   2.477
   33CHL1    O3 2371   1.997   3.504   2.346
   33CHL1   H3' 2372   1.942   3.426   2.337
   33CHL1    C4 2373   1.977   3.387   2.556
   33CHL1   H4A 2374   1.867   3.396   2.542
   33CHL1   H4B 2375   2.008   3.293   2.507
   33CHL1    C5 2376   2.009   3.383   2.704
   33CHL1    C6 2377   2.054   3.271   2.762
   33CHL1    H6 2378   2.060   3.179   2.701
   33CHL1    C7 2379   2.087   3.257   2.908
   33CHL1   H7A 2380   2.048   3.161   2.949
   33CHL1   H7B 2381   2.197   3.255   2.920
   33CHL1    C8 2382   2.030   3.375   2.989
   33CHL1    H8 2383   1.920   3.361   2.995
   33CHL1   C14 2384   2.088   3.375   3.130
   33CHL1   H14 2385   2.198   3.383   3.120
   33CHL1   C15 2386   2.061   3.250   3.217
   33CHL1  H15A 2387   1.958   3.215   3.198
   33CHL1  H15B 2388   2.133   3.168   3.195
   33CHL1   C16 2389   2.069   3.301   3.362
   33CHL1  H16A 2390   1.970   3.287   3.411
   33CHL1  H16B 2391   2.143   3.245   3.423
   33CHL1   C17 2392   2.102   3.453   3.352
   33CHL1   H17 2393   2.213   3.460   3.341
   33CHL1   C13 2394   2.043   3.492   3.216
   33CHL1   C18 2395   1.889   3.489   3.229
   33CHL1  H18A 2396   1.849   3.394   3.269
   33CHL1  H18B 2397   1.859   3.571   3.298
   33CHL1  H18C 2398   1.839   3.507   3.131
   33CHL1   C12 2399   2.093   3.621   3.148
   33CHL1  H12A 2400   2.062   3.712   3.204
   33CHL1  H12B 2401   2.204   3.619   3.143
   33CHL1   C11 2402   2.037   3.634   3.006
   33CHL1  H11A 2403   1.928   3.657   3.014
   33CHL1  H11B 2404   2.085   3.721   2.956
   33CHL1    C9 2405   2.060   3.508   2.918
   33CHL1    H9 2406   2.170   3.506   2.901
   33CHL1   C10 2407   1.995   3.517   2.778
   33CHL1   C19 2408   1.843   3.545   2.792
   33CHL1  H19A 2409   1.825   3.647   2.834
   33CHL1  H19B 2410   1.792   3.540   2.694
   33CHL1  H19C 2411   1.795   3.470   2.859
   33CHL1    C1 2412   2.062   3.631   2.695
   33CHL1   H1A 2413   2.038   3.729   2.742
   33CHL1   H1B 2414   2.173   3.617   2.700
   33CHL1    C2 2415   2.021   3.636   2.547
   33CHL1   H2A 2416   2.078   3.715   2.494
   33CHL1   H2B 2417   1.913   3.659   2.539
   33CHL1   C20 2418   2.063   3.533   3.477
   33CHL1   H20 2419   1.953   3.529   3.491
   33CHL1   C21 2420   2.107   3.681   3.463
   33CHL1  H21A 2421   2.206   3.689   3.415
   33CHL1  H21B 2422   2.112   3.732   3.562
   33CHL1  H21C 2423   2.033   3.737   3.402
   33CHL1   C22 2424   2.126   3.475   3.606
   33CHL1  H22A 2425   2.110   3.365   3.608
   33CHL1  H22B 2426   2.235   3.493   3.604
   33CHL1   C23 2427   2.066   3.526   3.738
   33CHL1  H23A 2428   2.051   3.636   3.736
   33CHL1  H23B 2429   1.967   3.479   3.751
   33CHL1   C24 2430   2.158   3.492   3.855
   33CHL1  H24A 2431   2.204   3.392   3.838
   33CHL1  H24B 2432   2.241   3.567   3.856
   33CHL1   C25 2433   2.090   3.493   3.993
   33CHL1   H25 2434   2.031   3.587   4.000
   33CHL1   C26 2435   1.998   3.371   4.010
   33CHL1  H26A 2436   2.057   3.277   4.006
   33CHL1  H26B 2437   1.946   3.375   4.108
   33CHL1  H26C 2438   1.921   3.367   3.930
   33CHL1   C27 2439   2.195   3.493   4.104
   33CHL1  H27A 2440   2.292   3.532   4.066
   33CHL1  H27B 2441   2.162   3.555   4.191
   33CHL1  H27C 2442   2.212   3.389   4.139
   34CHL1    C3 2443   4.522   5.046   2.520
   34CHL1    H3 2444   4.560   4.946   2.550
   34CHL1    O3 2445   4.482   5.039   2.384
   34CHL1   H3' 2446   4.528   4.961   2.352
   34CHL1    C4 2447   4.405   5.085   2.612
   34CHL1   H4A 2448   4.365   5.184   2.581
   34CHL1   H4B 2449   4.323   5.012   2.597
   34CHL1    C5 2450   4.453   5.089   2.757
   34CHL1    C6 2451   4.404   5.005   2.850
   34CHL1    H6 2452   4.324   4.935   2.823
   34CHL1    C7 2453   4.446   5.007   2.994
   34CHL1   H7A 2454   4.357   4.993   3.060
   34CHL1   H7B 2455   4.515   4.922   3.014
   34CHL1    C8 2456   4.517   5.139   3.033
   34CHL1    H8 2457   4.442   5.221   3.031
   34CHL1   C14 2458   4.575   5.129   3.174
   34CHL1   H14 2459   4.646   5.044   3.173
   34CHL1   C15 2460   4.477   5.099   3.289
   34CHL1  H15A 2461   4.387   5.163   3.279
   34CHL1  H15B 2462   4.445   4.993   3.290
   34CHL1   C16 2463   4.556   5.137   3.416
   34CHL1  H16A 2464   4.492   5.201   3.481
   34CHL1  H16B 2465   4.586   5.047   3.473
   34CHL1   C17 2466   4.683   5.215   3.370
   34CHL1   H17 2467   4.766   5.141   3.369
   34CHL1   C13 2468   4.656   5.251   3.220
   34CHL1   C18 2469   4.569   5.379   3.217
   34CHL1  H18A 2470   4.485   5.372   3.290
   34CHL1  H18B 2471   4.631   5.467   3.244
   34CHL1  H18C 2472   4.527   5.397   3.117
   34CHL1   C12 2473   4.776   5.259   3.123
   34CHL1  H12A 2474   4.843   5.345   3.149
   34CHL1  H12B 2475   4.836   5.166   3.131
   34CHL1   C11 2476   4.729   5.277   2.977
   34CHL1  H11A 2477   4.684   5.378   2.970
   34CHL1  H11B 2478   4.817   5.276   2.910
   34CHL1    C9 2479   4.627   5.169   2.930
   34CHL1    H9 2480   4.685   5.074   2.925
   34CHL1   C10 2481   4.568   5.188   2.786
   34CHL1   C19 2482   4.520   5.334   2.771
   34CHL1  H19A 2483   4.452   5.362   2.854
   34CHL1  H19B 2484   4.606   5.404   2.773
   34CHL1  H19C 2485   4.467   5.351   2.675
   34CHL1    C1 2486   4.679   5.160   2.680
   34CHL1   H1A 2487   4.756   5.240   2.688
   34CHL1   H1B 2488   4.726   5.063   2.706
   34CHL1    C2 2489   4.634   5.150   2.534
   34CHL1   H2A 2490   4.719   5.119   2.470
   34CHL1   H2B 2491   4.598   5.249   2.499
   34CHL1   C20 2492   4.724   5.329   3.468
   34CHL1   H20 2493   4.648   5.410   3.465
   34CHL1   C21 2494   4.860   5.384   3.421
   34CHL1  H21A 2495   4.932   5.300   3.405
   34CHL1  H21B 2496   4.904   5.452   3.497
   34CHL1  H21C 2497   4.850   5.442   3.327
   34CHL1   C22 2498   4.737   5.284   3.617
   34CHL1  H22A 2499   4.651   5.221   3.648
   34CHL1  H22B 2500   4.828   5.220   3.618
   34CHL1   C23 2501   4.755   5.395   3.725
   34CHL1  H23A 2502   4.806   5.482   3.678
   34CHL1  H23B 2503   4.655   5.431   3.756
   34CHL1   C24 2504   4.845   5.355   3.846
   34CHL1  H24A 2505   4.886   5.253   3.830
   34CHL1  H24B 2506   4.935   5.421   3.843
   34CHL1   C25 2507   4.793   5.362   3.993
   34CHL1   H25 2508   4.837   5.453   4.038
   34CHL1   C26 2509   4.641   5.370   4.009
   34CHL1  H26A 2510   4.614   5.375   4.116
   34CHL1  H26B 2511   4.599   5.459   3.957
   34CHL1  H26C 2512   4.599   5.277   3.966
   34CHL1   C27 2513   4.838   5.241   4.077
   34CHL1  H27A 2514   4.776   5.152   4.052
   34CHL1  H27B 2515   4.945   5.215   4.060
   34CHL1  H27C 2516   4.824   5.261   4.185
   35CHL1    C3 2517   2.415   4.948   2.499
   35CHL1    H3 2518   2.320   4.892   2.483
   35CHL1    O3 2519   2.475   4.975   2.373
   35CHL1   H3' 2520   2.488   4.889   2.334
   35CHL1    C4 2521   2.384   5.080   2.573
   35CHL1   H4A 2522   2.476   5.142   2.572
   35CHL1   H4B 2523   2.309   5.135   2.511
   35CHL1    C5 2524   2.336   5.060   2.716
   35CHL1    C6 2525   2.221   5.113   2.760
   35CHL1    H6 2526   2.159   5.173   2.693
   35CHL1    C7 2527   2.174   5.102   2.903
   35CHL1   H7A 2528   2.135   5.199   2.940
   35CHL1   H7B 2529   2.086   5.034   2.908
   35CHL1    C8 2530   2.285   5.053   3.000
   35CHL1    H8 2531   2.355   5.138   3.014
   35CHL1   C14 2532   2.226   5.013   3.135
   35CHL1   H14 2533   2.157   4.928   3.114
   35CHL1   C15 2534   2.142   5.118   3.210
   35CHL1  H15A 2535   2.195   5.215   3.207
   35CHL1  H15B 2536   2.041   5.130   3.166
   35CHL1   C16 2537   2.139   5.066   3.355
   35CHL1  H16A 2538   2.175   5.146   3.422
   35CHL1  H16B 2539   2.038   5.036   3.388
   35CHL1   C17 2540   2.237   4.944   3.360
   35CHL1   H17 2541   2.176   4.853   3.340
   35CHL1   C13 2542   2.328   4.961   3.236
   35CHL1   C18 2543   2.433   5.071   3.269
   35CHL1  H18A 2544   2.509   5.032   3.340
   35CHL1  H18B 2545   2.487   5.103   3.177
   35CHL1  H18C 2546   2.386   5.160   3.314
   35CHL1   C12 2547   2.391   4.834   3.175
   35CHL1  H12A 2548   2.468   4.790   3.242
   35CHL1  H12B 2549   2.311   4.758   3.161
   35CHL1   C11 2550   2.457   4.865   3.040
   35CHL1  H11A 2551   2.545   4.930   3.061
   35CHL1  H11B 2552   2.495   4.770   2.996
   35CHL1    C9 2553   2.362   4.935   2.938
   35CHL1    H9 2554   2.284   4.859   2.916
   35CHL1   C10 2555   2.428   4.971   2.802
   35CHL1   C19 2556   2.559   5.049   2.829
   35CHL1  H19A 2557   2.634   4.983   2.878
   35CHL1  H19B 2558   2.606   5.084   2.735
   35CHL1  H19C 2559   2.541   5.137   2.894
   35CHL1    C1 2560   2.458   4.839   2.724
   35CHL1   H1A 2561   2.533   4.780   2.781
   35CHL1   H1B 2562   2.365   4.779   2.719
   35CHL1    C2 2563   2.511   4.861   2.581
   35CHL1   H2A 2564   2.524   4.762   2.531
   35CHL1   H2B 2565   2.610   4.910   2.586
   35CHL1   C20 2566   2.299   4.928   3.499
   35CHL1   H20 2567   2.351   5.022   3.526
   35CHL1   C21 2568   2.403   4.814   3.501
   35CHL1  H21A 2569   2.445   4.799   3.602
   35CHL1  H21B 2570   2.490   4.840   3.437
   35CHL1  H21C 2571   2.358   4.719   3.466
   35CHL1   C22 2572   2.190   4.902   3.607
   35CHL1  H22A 2573   2.115   4.984   3.606
   35CHL1  H22B 2574   2.137   4.808   3.580
   35CHL1   C23 2575   2.242   4.888   3.751
   35CHL1  H23A 2576   2.157   4.856   3.815
   35CHL1  H23B 2577   2.317   4.807   3.758
   35CHL1   C24 2578   2.301   5.018   3.809
   35CHL1  H24A 2579   2.367   5.067   3.734
   35CHL1  H24B 2580   2.219   5.090   3.829
   35CHL1   C25 2581   2.386   4.999   3.937
   35CHL1   H25 2582   2.486   4.964   3.904
   35CHL1   C26 2583   2.403   5.133   4.012
   35CHL1  H26A 2584   2.304   5.169   4.047
   35CHL1  H26B 2585   2.468   5.120   4.101
   35CHL1  H26C 2586   2.448   5.210   3.945
   35CHL1   C27 2587   2.331   4.894   4.034
   35CHL1  H27A 2588   2.300   4.801   3.982
   35CHL1  H27B 2589   2.411   4.865   4.107
   35CHL1  H27C 2590   2.245   4.933   4.092
   36CHL1    C3 2591   3.325   1.842   2.516
   36CHL1    H3 2592   3.216   1.853   2.529
   36CHL1    O3 2593   3.357   1.841   2.377
   36CHL1   H3' 2594   3.355   1.749   2.351
   36CHL1    C4 2595   3.396   1.961   2.586
   36CHL1   H4A 2596   3.500   1.966   2.547
   36CHL1   H4B 2597   3.346   2.054   2.550
   36CHL1    C5 2598   3.400   1.956   2.738
   36CHL1    C6 2599   3.365   2.058   2.818
   36CHL1    H6 2600   3.331   2.153   2.773
   36CHL1    C7 2601   3.379   2.056   2.969
   36CHL1   H7A 2602   3.423   2.151   3.005
   36CHL1   H7B 2603   3.279   2.045   3.015
   36CHL1    C8 2604   3.469   1.939   3.019
   36CHL1    H8 2605   3.574   1.966   2.991
   36CHL1   C14 2606   3.462   1.920   3.171
   36CHL1   H14 2607   3.357   1.891   3.193
   36CHL1   C15 2608   3.492   2.039   3.263
   36CHL1  H15A 2609   3.582   2.092   3.226
   36CHL1  H15B 2610   3.407   2.111   3.266
   36CHL1   C16 2611   3.521   1.975   3.400
   36CHL1  H16A 2612   3.615   2.019   3.440
   36CHL1  H16B 2613   3.439   1.995   3.472
   36CHL1   C17 2614   3.534   1.821   3.377
   36CHL1   H17 2615   3.431   1.783   3.396
   36CHL1   C13 2616   3.550   1.805   3.224
   36CHL1   C18 2617   3.697   1.830   3.185
   36CHL1  H18A 2618   3.762   1.750   3.226
   36CHL1  H18B 2619   3.712   1.831   3.075
   36CHL1  H18C 2620   3.731   1.928   3.224
   36CHL1   C12 2621   3.494   1.677   3.161
   36CHL1  H12A 2622   3.550   1.587   3.195
   36CHL1  H12B 2623   3.388   1.666   3.194
   36CHL1   C11 2624   3.498   1.682   3.008
   36CHL1  H11A 2625   3.605   1.675   2.979
   36CHL1  H11B 2626   3.449   1.591   2.968
   36CHL1    C9 2627   3.430   1.809   2.948
   36CHL1    H9 2628   3.322   1.797   2.969
   36CHL1   C10 2629   3.444   1.820   2.793
   36CHL1   C19 2630   3.593   1.802   2.756
   36CHL1  H19A 2631   3.615   1.824   2.650
   36CHL1  H19B 2632   3.660   1.864   2.820
   36CHL1  H19C 2633   3.616   1.694   2.771
   36CHL1    C1 2634   3.361   1.707   2.726
   36CHL1   H1A 2635   3.400   1.609   2.761
   36CHL1   H1B 2636   3.255   1.715   2.759
   36CHL1    C2 2637   3.368   1.707   2.573
   36CHL1   H2A 2638   3.304   1.626   2.533
   36CHL1   H2B 2639   3.472   1.684   2.542
   36CHL1   C20 2640   3.629   1.747   3.476
   36CHL1   H20 2641   3.730   1.793   3.468
   36CHL1   C21 2642   3.649   1.600   3.439
   36CHL1  H21A 2643   3.714   1.549   3.513
   36CHL1  H21B 2644   3.700   1.589   3.341
   36CHL1  H21C 2645   3.552   1.547   3.434
   36CHL1   C22 2646   3.583   1.758   3.626
   36CHL1  H22A 2647   3.625   1.854   3.664
   36CHL1  H22B 2648   3.473   1.771   3.625
   36CHL1   C23 2649   3.609   1.647   3.733
   36CHL1  H23A 2650   3.546   1.674   3.821
   36CHL1  H23B 2651   3.567   1.550   3.697
   36CHL1   C24 2652   3.751   1.618   3.790
   36CHL1  H24A 2653   3.783   1.523   3.742
   36CHL1  H24B 2654   3.824   1.696   3.759
   36CHL1   C25 2655   3.756   1.597   3.945
   36CHL1   H25 2656   3.657   1.560   3.977
   36CHL1   C26 2657   3.858   1.491   3.991
   36CHL1  H26A 2658   3.962   1.526   3.972
   36CHL1  H26B 2659   3.849   1.474   4.100
   36CHL1  H26C 2660   3.842   1.394   3.939
   36CHL1   C27 2661   3.788   1.725   4.023
   36CHL1  H27A 2662   3.809   1.703   4.130
   36CHL1  H27B 2663   3.879   1.774   3.980
   36CHL1  H27C 2664   3.704   1.797   4.019
   37CHL1    C3 2665   5.447   4.476   2.488
   37CHL1    H3 2666   5.483   4.579   2.467
   37CHL1    O3 2667   5.421   4.408   2.365
   37CHL1   H3' 2668   5.430   4.473   2.295
   37CHL1    C4 2669   5.555   4.399   2.564
   37CHL1   H4A 2670   5.526   4.292   2.567
   37CHL1   H4B 2671   5.649   4.403   2.505
   37CHL1    C5 2672   5.576   4.447   2.706
   37CHL1    C6 2673   5.696   4.485   2.751
   37CHL1    H6 2674   5.784   4.480   2.684
   37CHL1    C7 2675   5.724   4.521   2.894
   37CHL1   H7A 2676   5.819   4.477   2.928
   37CHL1   H7B 2677   5.733   4.632   2.905
   37CHL1    C8 2678   5.609   4.471   2.986
   37CHL1    H8 2679   5.613   4.359   2.986
   37CHL1   C14 2680   5.631   4.518   3.128
   37CHL1   H14 2681   5.633   4.629   3.123
   37CHL1   C15 2682   5.762   4.477   3.195
   37CHL1  H15A 2683   5.777   4.368   3.184
   37CHL1  H15B 2684   5.850   4.531   3.153
   37CHL1   C16 2685   5.738   4.512   3.342
   37CHL1  H16A 2686   5.775   4.430   3.407
   37CHL1  H16B 2687   5.790   4.606   3.371
   37CHL1   C17 2688   5.584   4.532   3.358
   37CHL1   H17 2689   5.566   4.641   3.350
   37CHL1   C13 2690   5.519   4.482   3.227
   37CHL1   C18 2691   5.497   4.329   3.234
   37CHL1  H18A 2692   5.583   4.278   3.283
   37CHL1  H18B 2693   5.405   4.306   3.291
   37CHL1  H18C 2694   5.483   4.285   3.133
   37CHL1   C12 2695   5.394   4.557   3.175
   37CHL1  H12A 2696   5.308   4.538   3.243
   37CHL1  H12B 2697   5.415   4.666   3.174
   37CHL1   C11 2698   5.357   4.512   3.032
   37CHL1  H11A 2699   5.317   4.409   3.042
   37CHL1  H11B 2700   5.274   4.576   2.996
   37CHL1    C9 2701   5.474   4.518   2.930
   37CHL1    H9 2702   5.488   4.627   2.911
   37CHL1   C10 2703   5.447   4.452   2.792
   37CHL1   C19 2704   5.395   4.307   2.815
   37CHL1  H19A 2705   5.384   4.251   2.720
   37CHL1  H19B 2706   5.463   4.250   2.881
   37CHL1  H19C 2707   5.294   4.310   2.862
   37CHL1    C1 2708   5.342   4.534   2.712
   37CHL1   H1A 2709   5.246   4.531   2.770
   37CHL1   H1B 2710   5.375   4.640   2.708
   37CHL1    C2 2711   5.316   4.483   2.569
   37CHL1   H2A 2712   5.244   4.548   2.517
   37CHL1   H2B 2713   5.272   4.381   2.574
   37CHL1   C20 2714   5.542   4.493   3.502
   37CHL1   H20 2715   5.589   4.396   3.530
   37CHL1   C21 2716   5.391   4.468   3.515
   37CHL1  H21A 2717   5.365   4.365   3.482
   37CHL1  H21B 2718   5.335   4.537   3.447
   37CHL1  H21C 2719   5.353   4.478   3.619
   37CHL1   C22 2720   5.602   4.602   3.596
   37CHL1  H22A 2721   5.709   4.580   3.612
   37CHL1  H22B 2722   5.598   4.699   3.542
   37CHL1   C23 2723   5.539   4.636   3.732
   37CHL1  H23A 2724   5.428   4.629   3.728
   37CHL1  H23B 2725   5.574   4.566   3.810
   37CHL1   C24 2726   5.568   4.783   3.771
   37CHL1  H24A 2727   5.521   4.849   3.694
   37CHL1  H24B 2728   5.514   4.810   3.865
   37CHL1   C25 2729   5.715   4.828   3.781
   37CHL1   H25 2730   5.756   4.831   3.678
   37CHL1   C26 2731   5.726   4.970   3.841
   37CHL1  H26A 2732   5.687   4.971   3.944
   37CHL1  H26B 2733   5.832   5.002   3.843
   37CHL1  H26C 2734   5.668   5.043   3.780
   37CHL1   C27 2735   5.800   4.732   3.863
   37CHL1  H27A 2736   5.794   4.630   3.821
   37CHL1  H27B 2737   5.906   4.765   3.862
   37CHL1  H27C 2738   5.766   4.729   3.969
   38CHL1    C3 2739   2.961   5.595   2.504
   38CHL1    H3 2740   3.027   5.679   2.532
   38CHL1    O3 2741   2.948   5.595   2.363
   38CHL1   H3' 2742   2.910   5.510   2.338
   38CHL1    C4 2743   3.022   5.463   2.554
   38CHL1   H4A 2744   2.954   5.379   2.527
   38CHL1   H4B 2745   3.117   5.446   2.500
   38CHL1    C5 2746   3.043   5.468   2.705
   38CHL1    C6 2747   3.166   5.453   2.758
   38CHL1    H6 2748   3.252   5.431   2.693
   38CHL1    C7 2749   3.195   5.459   2.905
   38CHL1   H7A 2750   3.260   5.374   2.935
   38CHL1   H7B 2751   3.253   5.552   2.925
   38CHL1    C8 2752   3.068   5.459   2.994
   38CHL1    H8 2753   3.035   5.353   3.002
   38CHL1   C14 2754   3.101   5.515   3.131
   38CHL1   H14 2755   3.123   5.623   3.115
   38CHL1   C15 2756   3.226   5.463   3.204
   38CHL1  H15A 2757   3.232   5.352   3.197
   38CHL1  H15B 2758   3.320   5.505   3.162
   38CHL1   C16 2759   3.203   5.505   3.349
   38CHL1  H16A 2760   3.214   5.416   3.415
   38CHL1  H16B 2761   3.277   5.582   3.381
   38CHL1   C17 2762   3.057   5.562   3.359
   38CHL1   H17 2763   3.066   5.672   3.349
   38CHL1   C13 2764   2.986   5.512   3.231
   38CHL1   C18 2765   2.936   5.367   3.256
   38CHL1  H18A 2766   3.017   5.306   3.303
   38CHL1  H18B 2767   2.849   5.367   3.324
   38CHL1  H18C 2768   2.905   5.318   3.162
   38CHL1   C12 2769   2.874   5.601   3.174
   38CHL1  H12A 2770   2.784   5.599   3.239
   38CHL1  H12B 2771   2.911   5.706   3.169
   38CHL1   C11 2772   2.834   5.556   3.032
   38CHL1  H11A 2773   2.783   5.457   3.041
   38CHL1  H11B 2774   2.760   5.628   2.991
   38CHL1    C9 2775   2.955   5.543   2.934
   38CHL1    H9 2776   2.997   5.646   2.927
   38CHL1   C10 2777   2.918   5.503   2.788
   38CHL1   C19 2778   2.827   5.378   2.791
   38CHL1  H19A 2779   2.876   5.295   2.846
   38CHL1  H19B 2780   2.730   5.401   2.841
   38CHL1  H19C 2781   2.802   5.343   2.689
   38CHL1    C1 2782   2.841   5.623   2.723
   38CHL1   H1A 2783   2.740   5.632   2.770
   38CHL1   H1B 2784   2.896   5.716   2.746
   38CHL1    C2 2785   2.824   5.615   2.570
   38CHL1   H2A 2786   2.777   5.709   2.533
   38CHL1   H2B 2787   2.756   5.531   2.544
   38CHL1   C20 2788   2.994   5.532   3.495
   38CHL1   H20 2789   2.987   5.421   3.506
   38CHL1   C21 2790   2.852   5.591   3.509
   38CHL1  H21A 2791   2.815   5.577   3.612
   38CHL1  H21B 2792   2.780   5.540   3.441
   38CHL1  H21C 2793   2.853   5.700   3.486
   38CHL1   C22 2794   3.080   5.582   3.613
   38CHL1  H22A 2795   3.187   5.591   3.585
   38CHL1  H22B 2796   3.047   5.683   3.643
   38CHL1   C23 2797   3.074   5.487   3.733
   38CHL1  H23A 2798   2.969   5.479   3.769
   38CHL1  H23B 2799   3.106   5.385   3.700
   38CHL1   C24 2800   3.166   5.534   3.844
   38CHL1  H24A 2801   3.269   5.542   3.802
   38CHL1  H24B 2802   3.136   5.635   3.879
   38CHL1   C25 2803   3.171   5.438   3.963
   38CHL1   H25 2804   3.191   5.336   3.925
   38CHL1   C26 2805   3.287   5.479   4.054
   38CHL1  H26A 2806   3.294   5.406   4.138
   38CHL1  H26B 2807   3.383   5.478   3.999
   38CHL1  H26C 2808   3.270   5.581   4.095
   38CHL1   C27 2809   3.039   5.435   4.042
   38CHL1  H27A 2810   2.956   5.397   3.979
   38CHL1  H27B 2811   3.049   5.369   4.131
   38CHL1  H27C 2812   3.013   5.537   4.077
   39CHL1    C3 2813   4.261   6.078   2.496
   39CHL1    H3 2814   4.297   6.182   2.506
   39CHL1    O3 2815   4.259   6.042   2.359
   39CHL1   H3' 2816   4.166   6.027   2.340
   39CHL1    C4 2817   4.357   5.983   2.572
   39CHL1   H4A 2818   4.327   5.878   2.548
   39CHL1   H4B 2819   4.458   5.997   2.530
   39CHL1    C5 2820   4.355   6.002   2.722
   39CHL1    C6 2821   4.468   6.019   2.793
   39CHL1    H6 2822   4.565   6.018   2.742
   39CHL1    C7 2823   4.471   6.027   2.944
   39CHL1   H7A 2824   4.551   5.962   2.985
   39CHL1   H7B 2825   4.495   6.132   2.974
   39CHL1    C8 2826   4.335   5.988   3.009
   39CHL1    H8 2827   4.324   5.878   3.004
   39CHL1   C14 2828   4.335   6.028   3.155
   39CHL1   H14 2829   4.356   6.137   3.156
   39CHL1   C15 2830   4.443   5.963   3.246
   39CHL1  H15A 2831   4.459   5.857   3.217
   39CHL1  H15B 2832   4.539   6.018   3.238
   39CHL1   C16 2833   4.382   5.972   3.387
   39CHL1  H16A 2834   4.358   5.870   3.424
   39CHL1  H16B 2835   4.453   6.015   3.461
   39CHL1   C17 2836   4.251   6.054   3.369
   39CHL1   H17 2837   4.279   6.161   3.359
   39CHL1   C13 2838   4.202   6.012   3.229
   39CHL1   C18 2839   4.157   5.864   3.233
   39CHL1  H18A 2840   4.135   5.829   3.131
   39CHL1  H18B 2841   4.233   5.796   3.275
   39CHL1  H18C 2842   4.064   5.854   3.294
   39CHL1   C12 2843   4.098   6.100   3.157
   39CHL1  H12A 2844   3.998   6.091   3.204
   39CHL1  H12B 2845   4.130   6.206   3.163
   39CHL1   C11 2846   4.085   6.059   3.008
   39CHL1  H11A 2847   4.037   5.959   3.004
   39CHL1  H11B 2848   4.016   6.130   2.959
   39CHL1    C9 2849   4.221   6.057   2.932
   39CHL1    H9 2850   4.250   6.164   2.927
   39CHL1   C10 2851   4.214   6.006   2.786
   39CHL1   C19 2852   4.161   5.860   2.783
   39CHL1  H19A 2853   4.156   5.820   2.680
   39CHL1  H19B 2854   4.227   5.793   2.842
   39CHL1  H19C 2855   4.058   5.855   2.824
   39CHL1    C1 2856   4.119   6.097   2.703
   39CHL1   H1A 2857   4.015   6.084   2.741
   39CHL1   H1B 2858   4.148   6.203   2.720
   39CHL1    C2 2859   4.119   6.068   2.552
   39CHL1   H2A 2860   4.052   6.140   2.500
   39CHL1   H2B 2861   4.078   5.966   2.535
   39CHL1   C20 2862   4.163   6.050   3.495
   39CHL1   H20 2863   4.148   5.945   3.527
   39CHL1   C21 2864   4.026   6.118   3.473
   39CHL1  H21A 2865   4.039   6.219   3.430
   39CHL1  H21B 2866   3.973   6.127   3.570
   39CHL1  H21C 2867   3.963   6.057   3.405
   39CHL1   C22 2868   4.231   6.130   3.607
   39CHL1  H22A 2869   4.339   6.149   3.585
   39CHL1  H22B 2870   4.183   6.230   3.610
   39CHL1   C23 2871   4.225   6.071   3.748
   39CHL1  H23A 2872   4.122   6.040   3.774
   39CHL1  H23B 2873   4.291   5.982   3.753
   39CHL1   C24 2874   4.275   6.179   3.844
   39CHL1  H24A 2875   4.356   6.236   3.793
   39CHL1  H24B 2876   4.192   6.251   3.864
   39CHL1   C25 2877   4.334   6.129   3.975
   39CHL1   H25 2878   4.418   6.061   3.951
   39CHL1   C26 2879   4.389   6.250   4.052
   39CHL1  H26A 2880   4.476   6.220   4.115
   39CHL1  H26B 2881   4.426   6.328   3.982
   39CHL1  H26C 2882   4.311   6.295   4.117
   39CHL1   C27 2883   4.229   6.051   4.055
   39CHL1  H27A 2884   4.142   6.117   4.074
   39CHL1  H27B 2885   4.193   5.962   3.998
   39CHL1  H27C 2886   4.266   6.016   4.154
   40CHL1    C3 2887   5.960   2.957   2.502
   40CHL1    H3 2888   6.005   3.056   2.525
   40CHL1    O3 2889   5.987   2.926   2.366
   40CHL1   H3' 2890   5.921   2.860   2.341
   40CHL1    C4 2891   6.022   2.850   2.594
   40CHL1   H4A 2892   5.982   2.750   2.565
   40CHL1   H4B 2893   6.131   2.847   2.574
   40CHL1    C5 2894   5.991   2.880   2.739
   40CHL1    C6 2895   6.089   2.900   2.828
   40CHL1    H6 2896   6.194   2.890   2.796
   40CHL1    C7 2897   6.066   2.932   2.973
   40CHL1   H7A 2898   6.141   2.881   3.037
   40CHL1   H7B 2899   6.078   3.041   2.991
   40CHL1    C8 2900   5.923   2.898   3.019
   40CHL1    H8 2901   5.915   2.788   3.020
   40CHL1   C14 2902   5.897   2.958   3.157
   40CHL1   H14 2903   5.898   3.068   3.144
   40CHL1   C15 2904   5.997   2.932   3.271
   40CHL1  H15A 2905   6.014   2.823   3.284
   40CHL1  H15B 2906   6.095   2.983   3.256
   40CHL1   C16 2907   5.923   2.980   3.395
   40CHL1  H16A 2908   5.948   2.912   3.479
   40CHL1  H16B 2909   5.954   3.084   3.422
   40CHL1   C17 2910   5.770   2.980   3.360
   40CHL1   H17 2911   5.740   3.086   3.355
   40CHL1   C13 2912   5.760   2.924   3.215
   40CHL1   C18 2913   5.743   2.770   3.223
   40CHL1  H18A 2914   5.760   2.720   3.125
   40CHL1  H18B 2915   5.815   2.726   3.295
   40CHL1  H18C 2916   5.640   2.743   3.254
   40CHL1   C12 2917   5.657   2.988   3.119
   40CHL1  H12A 2918   5.553   2.965   3.151
   40CHL1  H12B 2919   5.670   3.099   3.121
   40CHL1   C11 2920   5.675   2.938   2.974
   40CHL1  H11A 2921   5.649   2.830   2.974
   40CHL1  H11B 2922   5.604   2.990   2.907
   40CHL1    C9 2923   5.820   2.952   2.919
   40CHL1    H9 2924   5.840   3.062   2.913
   40CHL1   C10 2925   5.841   2.897   2.774
   40CHL1   C19 2926   5.776   2.757   2.763
   40CHL1  H19A 2927   5.813   2.691   2.845
   40CHL1  H19B 2928   5.665   2.764   2.772
   40CHL1  H19C 2929   5.797   2.707   2.666
   40CHL1    C1 2930   5.776   2.995   2.672
   40CHL1   H1A 2931   5.666   2.993   2.686
   40CHL1   H1B 2932   5.811   3.097   2.694
   40CHL1    C2 2933   5.808   2.965   2.524
   40CHL1   H2A 2934   5.765   3.044   2.459
   40CHL1   H2B 2935   5.762   2.868   2.495
   40CHL1   C20 2936   5.683   2.911   3.467
   40CHL1   H20 2937   5.697   2.801   3.461
   40CHL1   C21 2938   5.536   2.943   3.434
   40CHL1  H21A 2939   5.507   2.899   3.337
   40CHL1  H21B 2940   5.519   3.053   3.431
   40CHL1  H21C 2941   5.467   2.899   3.510
   40CHL1   C22 2942   5.714   2.943   3.615
   40CHL1  H22A 2943   5.823   2.939   3.637
   40CHL1  H22B 2944   5.678   3.046   3.640
   40CHL1   C23 2945   5.648   2.839   3.707
   40CHL1  H23A 2946   5.538   2.846   3.687
   40CHL1  H23B 2947   5.680   2.737   3.676
   40CHL1   C24 2948   5.672   2.856   3.857
   40CHL1  H24A 2949   5.780   2.845   3.880
   40CHL1  H24B 2950   5.643   2.960   3.884
   40CHL1   C25 2951   5.589   2.760   3.946
   40CHL1   H25 2952   5.578   2.810   4.044
   40CHL1   C26 2953   5.450   2.733   3.889
   40CHL1  H26A 2954   5.403   2.828   3.856
   40CHL1  H26B 2955   5.454   2.664   3.802
   40CHL1  H26C 2956   5.385   2.686   3.966
   40CHL1   C27 2957   5.656   2.624   3.970
   40CHL1  H27A 2958   5.601   2.568   4.049
   40CHL1  H27B 2959   5.653   2.563   3.877
   40CHL1  H27C 2960   5.762   2.636   4.002
   41CHL1    C3 2961   4.987   5.902   2.513
   41CHL1    H3 2962   4.923   5.991   2.498
   41CHL1    O3 2963   5.034   5.856   2.387
   41CHL1   H3' 2964   5.021   5.761   2.390
   41CHL1    C4 2965   5.107   5.940   2.602
   41CHL1   H4A 2966   5.182   5.859   2.598
   41CHL1   H4B 2967   5.155   6.029   2.555
   41CHL1    C5 2968   5.069   5.967   2.747
   41CHL1    C6 2969   5.101   6.081   2.811
   41CHL1    H6 2970   5.159   6.159   2.758
   41CHL1    C7 2971   5.073   6.106   2.957
   41CHL1   H7A 2972   5.162   6.149   3.007
   41CHL1   H7B 2973   4.990   6.179   2.967
   41CHL1    C8 2974   5.033   5.976   3.032
   41CHL1    H8 2975   5.126   5.915   3.040
   41CHL1   C14 2976   4.980   6.004   3.172
   41CHL1   H14 2977   4.891   6.069   3.160
   41CHL1   C15 2978   5.073   6.080   3.270
   41CHL1  H15A 2979   5.176   6.042   3.260
   41CHL1  H15B 2980   5.072   6.189   3.252
   41CHL1   C16 2981   5.017   6.044   3.409
   41CHL1  H16A 2982   5.100   6.000   3.469
   41CHL1  H16B 2983   4.977   6.132   3.463
   41CHL1   C17 2984   4.904   5.937   3.388
   41CHL1   H17 2985   4.809   5.993   3.379
   41CHL1   C13 2986   4.933   5.880   3.248
   41CHL1   C18 2987   5.050   5.780   3.262
   41CHL1  H18A 2988   5.016   5.686   3.310
   41CHL1  H18B 2989   5.090   5.754   3.162
   41CHL1  H18C 2990   5.133   5.821   3.322
   41CHL1   C12 2991   4.814   5.823   3.169
   41CHL1  H12A 2992   4.770   5.732   3.217
   41CHL1  H12B 2993   4.734   5.900   3.164
   41CHL1   C11 2994   4.857   5.783   3.027
   41CHL1  H11A 2995   4.923   5.695   3.037
   41CHL1  H11B 2996   4.767   5.751   2.971
   41CHL1    C9 2997   4.928   5.899   2.950
   41CHL1    H9 2998   4.848   5.973   2.931
   41CHL1   C10 2999   4.984   5.856   2.812
   41CHL1   C19 3000   5.073   5.731   2.830
   41CHL1  H19A 3001   5.127   5.706   2.736
   41CHL1  H19B 3002   5.149   5.746   2.910
   41CHL1  H19C 3003   5.012   5.642   2.856
   41CHL1    C1 3004   4.864   5.822   2.718
   41CHL1   H1A 3005   4.808   5.736   2.760
   41CHL1   H1B 3006   4.795   5.909   2.716
   41CHL1    C2 3007   4.905   5.788   2.574
   41CHL1   H2A 3008   4.814   5.770   2.513
   41CHL1   H2B 3009   4.964   5.694   2.575
   41CHL1   C20 3010   4.890   5.839   3.506
   41CHL1   H20 3011   4.988   5.789   3.524
   41CHL1   C21 3012   4.787   5.729   3.478
   41CHL1  H21A 3013   4.689   5.772   3.448
   41CHL1  H21B 3014   4.771   5.667   3.570
   41CHL1  H21C 3015   4.823   5.659   3.399
   41CHL1   C22 3016   4.849   5.910   3.637
   41CHL1  H22A 3017   4.792   6.003   3.614
   41CHL1  H22B 3018   4.781   5.844   3.694
   41CHL1   C23 3019   4.965   5.943   3.732
   41CHL1  H23A 3020   5.041   6.006   3.681
   41CHL1  H23B 3021   4.924   6.003   3.816
   41CHL1   C24 3022   5.031   5.818   3.792
   41CHL1  H24A 3023   4.951   5.752   3.833
   41CHL1  H24B 3024   5.086   5.760   3.715
   41CHL1   C25 3025   5.128   5.856   3.905
   41CHL1   H25 3026   5.081   5.937   3.965
   41CHL1   C26 3027   5.152   5.739   3.999
   41CHL1  H26A 3028   5.055   5.697   4.034
   41CHL1  H26B 3029   5.208   5.659   3.946
   41CHL1  H26C 3030   5.211   5.770   4.088
   41CHL1   C27 3031   5.260   5.907   3.847
   41CHL1  H27A 3032   5.311   5.825   3.791
   41CHL1  H27B 3033   5.242   5.990   3.775
   41CHL1  H27C 3034   5.326   5.943   3.928
   42CHL1    C3 3035   5.953   4.971   2.517
   42CHL1    H3 3036   5.849   4.970   2.557
   42CHL1    O3 3037   5.948   4.962   2.376
   42CHL1   H3' 3038   5.923   4.870   2.361
   42CHL1    C4 3039   6.024   5.101   2.560
   42CHL1   H4A 3040   6.125   5.102   2.514
   42CHL1   H4B 3041   5.968   5.187   2.517
   42CHL1    C5 3042   6.034   5.108   2.711
   42CHL1    C6 3043   5.981   5.211   2.778
   42CHL1    H6 3044   5.933   5.293   2.724
   42CHL1    C7 3045   5.991   5.226   2.927
   42CHL1   H7A 3046   6.024   5.329   2.954
   42CHL1   H7B 3047   5.892   5.207   2.974
   42CHL1    C8 3048   6.093   5.130   2.992
   42CHL1    H8 3049   6.194   5.170   2.967
   42CHL1   C14 3050   6.074   5.125   3.142
   42CHL1   H14 3051   5.974   5.080   3.158
   42CHL1   C15 3052   6.069   5.256   3.222
   42CHL1  H15A 3053   6.153   5.321   3.189
   42CHL1  H15B 3054   5.974   5.311   3.206
   42CHL1   C16 3055   6.089   5.211   3.368
   42CHL1  H16A 3056   6.158   5.279   3.420
   42CHL1  H16B 3057   5.993   5.209   3.424
   42CHL1   C17 3058   6.141   5.064   3.363
   42CHL1   H17 3059   6.054   4.999   3.385
   42CHL1   C13 3060   6.173   5.036   3.214
   42CHL1   C18 3061   6.316   5.084   3.178
   42CHL1  H18A 3062   6.343   5.057   3.074
   42CHL1  H18B 3063   6.322   5.195   3.185
   42CHL1  H18C 3064   6.396   5.043   3.244
   42CHL1   C12 3065   6.139   4.895   3.166
   42CHL1  H12A 3066   6.205   4.824   3.220
   42CHL1  H12B 3067   6.035   4.870   3.194
   42CHL1   C11 3068   6.154   4.880   3.013
   42CHL1  H11A 3069   6.263   4.882   2.990
   42CHL1  H11B 3070   6.116   4.780   2.983
   42CHL1    C9 3071   6.078   4.990   2.933
   42CHL1    H9 3072   5.970   4.965   2.949
   42CHL1   C10 3073   6.101   4.987   2.780
   42CHL1   C19 3074   6.253   4.995   2.750
   42CHL1  H19A 3075   6.306   4.905   2.788
   42CHL1  H19B 3076   6.274   4.998   2.641
   42CHL1  H19C 3077   6.299   5.085   2.796
   42CHL1    C1 3078   6.041   4.855   2.724
   42CHL1   H1A 3079   6.104   4.770   2.757
   42CHL1   H1B 3080   5.940   4.840   2.768
   42CHL1    C2 3081   6.029   4.850   2.571
   42CHL1   H2A 3082   5.976   4.756   2.543
   42CHL1   H2B 3083   6.131   4.848   2.529
   42CHL1   C20 3084   6.244   5.033   3.473
   42CHL1   H20 3085   6.328   5.106   3.467
   42CHL1   C21 3086   6.308   4.895   3.455
   42CHL1  H21A 3087   6.390   4.876   3.528
   42CHL1  H21B 3088   6.355   4.884   3.354
   42CHL1  H21C 3089   6.229   4.818   3.468
   42CHL1   C22 3090   6.181   5.041   3.615
   42CHL1  H22A 3091   6.140   5.143   3.631
   42CHL1  H22B 3092   6.098   4.968   3.621
   42CHL1   C23 3093   6.281   5.010   3.728
   42CHL1  H23A 3094   6.323   4.908   3.717
   42CHL1  H23B 3095   6.366   5.082   3.719
   42CHL1   C24 3096   6.222   5.018   3.869
   42CHL1  H24A 3097   6.153   5.105   3.874
   42CHL1  H24B 3098   6.162   4.927   3.890
   42CHL1   C25 3099   6.331   5.037   3.975
   42CHL1   H25 3100   6.390   5.126   3.945
   42CHL1   C26 3101   6.272   5.064   4.114
   42CHL1  H26A 3102   6.194   5.142   4.107
   42CHL1  H26B 3103   6.226   4.972   4.156
   42CHL1  H26C 3104   6.351   5.100   4.183
   42CHL1   C27 3105   6.433   4.923   3.980
   42CHL1  H27A 3106   6.474   4.901   3.879
   42CHL1  H27B 3107   6.518   4.953   4.044
   42CHL1  H27C 3108   6.386   4.831   4.021
   43CHL1    C3 3109   2.694   6.365   2.494
   43CHL1    H3 3110   2.591   6.408   2.485
   43CHL1    O3 3111   2.739   6.325   2.365
   43CHL1   H3' 3112   2.709   6.395   2.307
   43CHL1    C4 3113   2.790   6.470   2.550
   43CHL1   H4A 3114   2.892   6.428   2.550
   43CHL1   H4B 3115   2.792   6.557   2.480
   43CHL1    C5 3116   2.751   6.510   2.690
   43CHL1    C6 3117   2.723   6.637   2.720
   43CHL1    H6 3118   2.731   6.715   2.642
   43CHL1    C7 3119   2.696   6.686   2.859
   43CHL1   H7A 3120   2.754   6.778   2.880
   43CHL1   H7B 3121   2.588   6.711   2.870
   43CHL1    C8 3122   2.734   6.579   2.965
   43CHL1    H8 3123   2.844   6.573   2.971
   43CHL1   C14 3124   2.680   6.623   3.099
   43CHL1   H14 3125   2.570   6.631   3.087
   43CHL1   C15 3126   2.726   6.760   3.149
   43CHL1  H15A 3127   2.835   6.773   3.133
   43CHL1  H15B 3128   2.670   6.841   3.097
   43CHL1   C16 3129   2.694   6.756   3.299
   43CHL1  H16A 3130   2.786   6.779   3.357
   43CHL1  H16B 3131   2.615   6.829   3.325
   43CHL1   C17 3132   2.647   6.609   3.329
   43CHL1   H17 3133   2.536   6.609   3.316
   43CHL1   C13 3134   2.703   6.524   3.214
   43CHL1   C18 3135   2.854   6.500   3.238
   43CHL1  H18A 3136   2.907   6.594   3.264
   43CHL1  H18B 3137   2.869   6.428   3.321
   43CHL1  H18C 3138   2.903   6.458   3.147
   43CHL1   C12 3139   2.627   6.395   3.177
   43CHL1  H12A 3140   2.640   6.318   3.255
   43CHL1  H12B 3141   2.519   6.419   3.168
   43CHL1   C11 3142   2.677   6.339   3.042
   43CHL1  H11A 3143   2.780   6.301   3.060
   43CHL1  H11B 3144   2.614   6.252   3.014
   43CHL1    C9 3145   2.676   6.443   2.926
   43CHL1    H9 3146   2.568   6.462   2.906
   43CHL1   C10 3147   2.737   6.394   2.792
   43CHL1   C19 3148   2.876   6.332   2.821
   43CHL1  H19A 3149   2.864   6.236   2.876
   43CHL1  H19B 3150   2.932   6.309   2.728
   43CHL1  H19C 3151   2.937   6.401   2.883
   43CHL1    C1 3152   2.645   6.288   2.728
   43CHL1   H1A 3153   2.640   6.199   2.795
   43CHL1   H1B 3154   2.542   6.330   2.720
   43CHL1    C2 3155   2.689   6.244   2.588
   43CHL1   H2A 3156   2.619   6.169   2.548
   43CHL1   H2B 3157   2.790   6.197   2.593
   43CHL1   C20 3158   2.675   6.569   3.474
   43CHL1   H20 3159   2.784   6.583   3.494
   43CHL1   C21 3160   2.636   6.423   3.503
   43CHL1  H21A 3161   2.639   6.404   3.613
   43CHL1  H21B 3162   2.705   6.352   3.454
   43CHL1  H21C 3163   2.532   6.404   3.468
   43CHL1   C22 3164   2.596   6.660   3.570
   43CHL1  H22A 3165   2.586   6.763   3.529
   43CHL1  H22B 3166   2.493   6.621   3.579
   43CHL1   C23 3167   2.658   6.671   3.709
   43CHL1  H23A 3168   2.578   6.650   3.784
   43CHL1  H23B 3169   2.738   6.596   3.725
   43CHL1   C24 3170   2.711   6.812   3.730
   43CHL1  H24A 3171   2.810   6.822   3.679
   43CHL1  H24B 3172   2.643   6.886   3.683
   43CHL1   C25 3173   2.722   6.850   3.877
   43CHL1   H25 3174   2.671   6.774   3.940
   43CHL1   C26 3175   2.866   6.860   3.917
   43CHL1  H26A 3176   2.869   6.907   4.017
   43CHL1  H26B 3177   2.916   6.761   3.918
   43CHL1  H26C 3178   2.919   6.927   3.845
   43CHL1   C27 3179   2.660   6.988   3.904
   43CHL1  H27A 3180   2.731   7.066   3.869
   43CHL1  H27B 3181   2.565   7.000   3.849
   43CHL1  H27C 3182   2.643   7.005   4.013
   44CHL1    C3 3183   5.774   5.684   2.500
   44CHL1    H3 3184   5.664   5.698   2.495
   44CHL1    O3 3185   5.830   5.697   2.370
   44CHL1   H3' 3186   5.792   5.627   2.317
   44CHL1    C4 3187   5.833   5.794   2.593
   44CHL1   H4A 3188   5.943   5.792   2.581
   44CHL1   H4B 3189   5.798   5.892   2.553
   44CHL1    C5 3190   5.797   5.777   2.739
   44CHL1    C6 3191   5.737   5.874   2.811
   44CHL1    H6 3192   5.715   5.970   2.762
   44CHL1    C7 3193   5.703   5.862   2.958
   44CHL1   H7A 3194   5.730   5.954   3.013
   44CHL1   H7B 3195   5.593   5.845   2.968
   44CHL1    C8 3196   5.774   5.745   3.028
   44CHL1    H8 3197   5.880   5.774   3.039
   44CHL1   C14 3198   5.712   5.718   3.167
   44CHL1   H14 3199   5.606   5.691   3.148
   44CHL1   C15 3200   5.707   5.832   3.271
   44CHL1  H15A 3201   5.804   5.885   3.273
   44CHL1  H15B 3202   5.626   5.905   3.249
   44CHL1   C16 3203   5.683   5.759   3.405
   44CHL1  H16A 3204   5.757   5.796   3.480
   44CHL1  H16B 3205   5.581   5.776   3.444
   44CHL1   C17 3206   5.704   5.606   3.379
   44CHL1   H17 3207   5.603   5.561   3.366
   44CHL1   C13 3208   5.773   5.600   3.241
   44CHL1   C18 3209   5.923   5.626   3.267
   44CHL1  H18A 3210   5.939   5.708   3.340
   44CHL1  H18B 3211   5.974   5.535   3.305
   44CHL1  H18C 3212   5.973   5.655   3.173
   44CHL1   C12 3213   5.746   5.477   3.151
   44CHL1  H12A 3214   5.780   5.382   3.196
   44CHL1  H12B 3215   5.637   5.467   3.135
   44CHL1   C11 3216   5.816   5.496   3.016
   44CHL1  H11A 3217   5.926   5.504   3.035
   44CHL1  H11B 3218   5.802   5.406   2.953
   44CHL1    C9 3219   5.765   5.620   2.940
   44CHL1    H9 3220   5.656   5.603   2.926
   44CHL1   C10 3221   5.825   5.638   2.798
   44CHL1   C19 3222   5.978   5.619   2.804
   44CHL1  H19A 3223   6.022   5.692   2.875
   44CHL1  H19B 3224   6.005   5.516   2.835
   44CHL1  H19C 3225   6.026   5.636   2.705
   44CHL1    C1 3226   5.761   5.535   2.702
   44CHL1   H1A 3227   5.778   5.432   2.740
   44CHL1   H1B 3228   5.651   5.554   2.704
   44CHL1    C2 3229   5.805   5.544   2.555
   44CHL1   H2A 3230   5.751   5.468   2.494
   44CHL1   H2B 3231   5.914   5.524   2.547
   44CHL1   C20 3232   5.773   5.531   3.495
   44CHL1   H20 3233   5.875   5.574   3.509
   44CHL1   C21 3234   5.787   5.382   3.461
   44CHL1  H21A 3235   5.831   5.323   3.544
   44CHL1  H21B 3236   5.858   5.370   3.376
   44CHL1  H21C 3237   5.688   5.339   3.434
   44CHL1   C22 3238   5.702   5.545   3.632
   44CHL1  H22A 3239   5.689   5.652   3.656
   44CHL1  H22B 3240   5.602   5.498   3.625
   44CHL1   C23 3241   5.780   5.479   3.748
   44CHL1  H23A 3242   5.724   5.487   3.843
   44CHL1  H23B 3243   5.790   5.370   3.730
   44CHL1   C24 3244   5.918   5.542   3.772
   44CHL1  H24A 3245   5.983   5.519   3.685
   44CHL1  H24B 3246   5.909   5.652   3.778
   44CHL1   C25 3247   5.989   5.490   3.898
   44CHL1   H25 3248   6.096   5.514   3.880
   44CHL1   C26 3249   5.948   5.563   4.027
   44CHL1  H26A 3250   5.850   5.527   4.062
   44CHL1  H26B 3251   6.022   5.542   4.107
   44CHL1  H26C 3252   5.944   5.673   4.011
   44CHL1   C27 3253   5.977   5.338   3.916
   44CHL1  H27A 3254   5.871   5.309   3.933
   44CHL1  H27B 3255   6.014   5.286   3.825
   44CHL1  H27C 3256   6.036   5.304   4.004
   45CHL1    C3 3257   0.895   5.123   2.526
   45CHL1    H3 3258   0.825   5.044   2.559
   45CHL1    O3 3259   0.905   5.115   2.385
   45CHL1   H3' 3260   0.945   5.197   2.357
   45CHL1    C4 3261   0.842   5.261   2.567
   45CHL1   H4A 3262   0.913   5.341   2.534
   45CHL1   H4B 3263   0.747   5.279   2.514
   45CHL1    C5 3264   0.825   5.259   2.718
   45CHL1    C6 3265   0.703   5.267   2.771
   45CHL1    H6 3266   0.618   5.288   2.706
   45CHL1    C7 3267   0.674   5.238   2.915
   45CHL1   H7A 3268   0.579   5.283   2.948
   45CHL1   H7B 3269   0.662   5.128   2.929
   45CHL1    C8 3270   0.794   5.283   2.999
   45CHL1    H8 3271   0.804   5.393   2.984
   45CHL1   C14 3272   0.773   5.251   3.146
   45CHL1   H14 3273   0.775   5.140   3.155
   45CHL1   C15 3274   0.641   5.289   3.212
   45CHL1  H15A 3275   0.624   5.397   3.195
   45CHL1  H15B 3276   0.553   5.232   3.176
   45CHL1   C16 3277   0.672   5.270   3.360
   45CHL1  H16A 3278   0.606   5.333   3.423
   45CHL1  H16B 3279   0.651   5.163   3.384
   45CHL1   C17 3280   0.825   5.288   3.380
   45CHL1   H17 3281   0.859   5.187   3.411
   45CHL1   C13 3282   0.883   5.307   3.236
   45CHL1   C18 3283   0.910   5.457   3.211
   45CHL1  H18A 3284   0.821   5.518   3.239
   45CHL1  H18B 3285   0.997   5.490   3.271
   45CHL1  H18C 3286   0.937   5.479   3.106
   45CHL1   C12 3287   1.005   5.223   3.201
   45CHL1  H12A 3288   1.090   5.257   3.263
   45CHL1  H12B 3289   0.982   5.117   3.225
   45CHL1   C11 3290   1.040   5.231   3.051
   45CHL1  H11A 3291   1.088   5.330   3.036
   45CHL1  H11B 3292   1.114   5.151   3.029
   45CHL1    C9 3293   0.920   5.210   2.953
   45CHL1    H9 3294   0.894   5.103   2.963
   45CHL1   C10 3295   0.952   5.231   2.801
   45CHL1   C19 3296   1.043   5.355   2.786
   45CHL1  H19A 3297   1.143   5.335   2.831
   45CHL1  H19B 3298   1.062   5.381   2.680
   45CHL1  H19C 3299   0.998   5.443   2.836
   45CHL1    C1 3300   1.022   5.103   2.745
   45CHL1   H1A 3301   1.122   5.094   2.790
   45CHL1   H1B 3302   0.963   5.015   2.776
   45CHL1    C2 3303   1.032   5.098   2.591
   45CHL1   H2A 3304   1.072   4.999   2.559
   45CHL1   H2B 3305   1.104   5.176   2.556
   45CHL1   C20 3306   0.872   5.384   3.493
   45CHL1   H20 3307   0.910   5.480   3.452
   45CHL1   C21 3308   0.991   5.314   3.560
   45CHL1  H21A 3309   1.067   5.285   3.484
   45CHL1  H21B 3310   0.956   5.223   3.613
   45CHL1  H21C 3311   1.041   5.381   3.634
   45CHL1   C22 3312   0.765   5.428   3.597
   45CHL1  H22A 3313   0.703   5.510   3.554
   45CHL1  H22B 3314   0.696   5.344   3.618
   45CHL1   C23 3315   0.815   5.480   3.733
   45CHL1  H23A 3316   0.876   5.401   3.782
   45CHL1  H23B 3317   0.880   5.569   3.719
   45CHL1   C24 3318   0.697   5.513   3.826
   45CHL1  H24A 3319   0.658   5.614   3.803
   45CHL1  H24B 3320   0.616   5.441   3.805
   45CHL1   C25 3321   0.731   5.503   3.976
   45CHL1   H25 3322   0.790   5.410   3.991
   45CHL1   C26 3323   0.816   5.621   4.023
   45CHL1  H26A 3324   0.842   5.609   4.131
   45CHL1  H26B 3325   0.911   5.626   3.965
   45CHL1  H26C 3326   0.761   5.716   4.010
   45CHL1   C27 3327   0.602   5.488   4.059
   45CHL1  H27A 3328   0.542   5.401   4.026
   45CHL1  H27B 3329   0.628   5.473   4.166
   45CHL1  H27C 3330   0.539   5.579   4.050
   46CHL1    C3 3331   4.737   6.620   2.496
   46CHL1    H3 3332   4.661   6.702   2.498
   46CHL1    O3 3333   4.798   6.615   2.368
   46CHL1   H3' 3334   4.850   6.696   2.365
   46CHL1    C4 3335   4.846   6.649   2.600
   46CHL1   H4A 3336   4.927   6.574   2.588
   46CHL1   H4B 3337   4.891   6.747   2.577
   46CHL1    C5 3338   4.793   6.643   2.741
   46CHL1    C6 3339   4.806   6.748   2.824
   46CHL1    H6 3340   4.857   6.839   2.790
   46CHL1    C7 3341   4.767   6.744   2.969
   46CHL1   H7A 3342   4.844   6.794   3.032
   46CHL1   H7B 3343   4.672   6.800   2.985
   46CHL1    C8 3344   4.749   6.598   3.016
   46CHL1    H8 3345   4.848   6.548   3.014
   46CHL1   C14 3346   4.700   6.594   3.160
   46CHL1   H14 3347   4.603   6.648   3.161
   46CHL1   C15 3348   4.789   6.663   3.266
   46CHL1  H15A 3349   4.896   6.649   3.242
   46CHL1  H15B 3350   4.766   6.772   3.272
   46CHL1   C16 3351   4.754   6.591   3.397
   46CHL1  H16A 3352   4.843   6.535   3.433
   46CHL1  H16B 3353   4.723   6.659   3.479
   46CHL1   C17 3354   4.642   6.489   3.360
   46CHL1   H17 3355   4.549   6.550   3.353
   46CHL1   C13 3356   4.672   6.453   3.213
   46CHL1   C18 3357   4.802   6.367   3.204
   46CHL1  H18A 3358   4.836   6.355   3.099
   46CHL1  H18B 3359   4.886   6.411   3.261
   46CHL1  H18C 3360   4.785   6.264   3.242
   46CHL1   C12 3361   4.557   6.397   3.126
   46CHL1  H12A 3362   4.529   6.294   3.159
   46CHL1  H12B 3363   4.468   6.462   3.138
   46CHL1   C11 3364   4.596   6.390   2.977
   46CHL1  H11A 3365   4.670   6.308   2.969
   46CHL1  H11B 3366   4.508   6.361   2.917
   46CHL1    C9 3367   4.655   6.523   2.920
   46CHL1    H9 3368   4.567   6.590   2.909
   46CHL1   C10 3369   4.720   6.511   2.779
   46CHL1   C19 3370   4.820   6.392   2.781
   46CHL1  H19A 3371   4.884   6.389   2.690
   46CHL1  H19B 3372   4.887   6.396   2.869
   46CHL1  H19C 3373   4.765   6.295   2.784
   46CHL1    C1 3374   4.612   6.484   2.671
   46CHL1   H1A 3375   4.565   6.386   2.691
   46CHL1   H1B 3376   4.533   6.562   2.680
   46CHL1    C2 3377   4.667   6.486   2.526
   46CHL1   H2A 3378   4.584   6.471   2.454
   46CHL1   H2B 3379   4.739   6.403   2.513
   46CHL1   C20 3380   4.618   6.384   3.470
   46CHL1   H20 3381   4.714   6.367   3.523
   46CHL1   C21 3382   4.572   6.247   3.420
   46CHL1  H21A 3383   4.479   6.255   3.359
   46CHL1  H21B 3384   4.550   6.185   3.509
   46CHL1  H21C 3385   4.649   6.193   3.361
   46CHL1   C22 3386   4.514   6.431   3.576
   46CHL1  H22A 3387   4.511   6.355   3.657
   46CHL1  H22B 3388   4.550   6.526   3.623
   46CHL1   C23 3389   4.371   6.450   3.522
   46CHL1  H23A 3390   4.370   6.530   3.444
   46CHL1  H23B 3391   4.334   6.357   3.473
   46CHL1   C24 3392   4.270   6.489   3.630
   46CHL1  H24A 3393   4.257   6.406   3.703
   46CHL1  H24B 3394   4.309   6.576   3.686
   46CHL1   C25 3395   4.135   6.530   3.571
   46CHL1   H25 3396   4.116   6.468   3.481
   46CHL1   C26 3397   4.019   6.505   3.668
   46CHL1  H26A 3398   4.033   6.410   3.723
   46CHL1  H26B 3399   4.011   6.588   3.742
   46CHL1  H26C 3400   3.923   6.499   3.613
   46CHL1   C27 3401   4.145   6.678   3.531
   46CHL1  H27A 3402   4.224   6.693   3.454
   46CHL1  H27B 3403   4.050   6.716   3.490
   46CHL1  H27C 3404   4.171   6.740   3.619
   47CHL1    C3 3405   1.354   1.557   2.506
   47CHL1    H3 3406   1.278   1.628   2.545
   47CHL1    O3 3407   1.374   1.583   2.368
   47CHL1   H3' 3408   1.444   1.522   2.342
   47CHL1    C4 3409   1.486   1.575   2.582
   47CHL1   H4A 3410   1.564   1.511   2.536
   47CHL1   H4B 3411   1.519   1.681   2.567
   47CHL1    C5 3412   1.471   1.541   2.730
   47CHL1    C6 3413   1.496   1.633   2.823
   47CHL1    H6 3414   1.531   1.732   2.792
   47CHL1    C7 3415   1.484   1.610   2.970
   47CHL1   H7A 3416   1.573   1.651   3.023
   47CHL1   H7B 3417   1.396   1.665   3.008
   47CHL1    C8 3418   1.468   1.460   3.009
   47CHL1    H8 3419   1.566   1.410   3.002
   47CHL1   C14 3420   1.417   1.452   3.152
   47CHL1   H14 3421   1.317   1.500   3.150
   47CHL1   C15 3422   1.496   1.532   3.257
   47CHL1  H15A 3423   1.604   1.511   3.247
   47CHL1  H15B 3424   1.478   1.641   3.248
   47CHL1   C16 3425   1.442   1.477   3.389
   47CHL1  H16A 3426   1.528   1.444   3.451
   47CHL1  H16B 3427   1.386   1.555   3.444
   47CHL1   C17 3428   1.349   1.355   3.355
   47CHL1   H17 3429   1.245   1.394   3.348
   47CHL1   C13 3430   1.390   1.313   3.212
   47CHL1   C18 3431   1.516   1.225   3.229
   47CHL1  H18A 3432   1.564   1.210   3.130
   47CHL1  H18B 3433   1.589   1.271   3.299
   47CHL1  H18C 3434   1.490   1.125   3.267
   47CHL1   C12 3435   1.291   1.243   3.116
   47CHL1  H12A 3436   1.275   1.138   3.148
   47CHL1  H12B 3437   1.194   1.296   3.120
   47CHL1   C11 3438   1.344   1.245   2.969
   47CHL1  H11A 3439   1.438   1.185   2.964
   47CHL1  H11B 3440   1.270   1.193   2.904
   47CHL1    C9 3441   1.372   1.388   2.914
   47CHL1    H9 3442   1.276   1.443   2.923
   47CHL1   C10 3443   1.416   1.401   2.764
   47CHL1   C19 3444   1.527   1.298   2.733
   47CHL1  H19A 3445   1.615   1.313   2.799
   47CHL1  H19B 3446   1.490   1.194   2.747
   47CHL1  H19C 3447   1.562   1.307   2.628
   47CHL1    C1 3448   1.294   1.374   2.673
   47CHL1   H1A 3449   1.271   1.265   2.677
   47CHL1   H1B 3450   1.209   1.430   2.718
   47CHL1    C2 3451   1.306   1.413   2.524
   47CHL1   H2A 3452   1.207   1.401   2.474
   47CHL1   H2B 3453   1.378   1.345   2.475
   47CHL1   C20 3454   1.354   1.253   3.471
   47CHL1   H20 3455   1.458   1.216   3.482
   47CHL1   C21 3456   1.263   1.133   3.442
   47CHL1  H21A 3457   1.258   1.069   3.532
   47CHL1  H21B 3458   1.301   1.071   3.358
   47CHL1  H21C 3459   1.160   1.167   3.417
   47CHL1   C22 3460   1.314   1.317   3.607
   47CHL1  H22A 3461   1.343   1.424   3.610
   47CHL1  H22B 3462   1.204   1.313   3.618
   47CHL1   C23 3463   1.382   1.255   3.730
   47CHL1  H23A 3464   1.336   1.155   3.751
   47CHL1  H23B 3465   1.490   1.240   3.711
   47CHL1   C24 3466   1.366   1.350   3.851
   47CHL1  H24A 3467   1.419   1.444   3.826
   47CHL1  H24B 3468   1.258   1.374   3.863
   47CHL1   C25 3469   1.420   1.299   3.986
   47CHL1   H25 3470   1.526   1.269   3.972
   47CHL1   C26 3471   1.412   1.409   4.092
   47CHL1  H26A 3472   1.306   1.441   4.106
   47CHL1  H26B 3473   1.450   1.372   4.190
   47CHL1  H26C 3474   1.472   1.497   4.062
   47CHL1   C27 3475   1.345   1.175   4.034
   47CHL1  H27A 3476   1.380   1.144   4.135
   47CHL1  H27B 3477   1.236   1.194   4.038
   47CHL1  H27C 3478   1.365   1.092   3.962
   48CHL1    C3 3479   6.815   2.769   2.438
   48CHL1    H3 3480   6.729   2.834   2.467
   48CHL1    O3 3481   6.817   2.758   2.297
   48CHL1   H3' 3482   6.863   2.838   2.270
   48CHL1    C4 3483   6.947   2.832   2.487
   48CHL1   H4A 3484   7.032   2.773   2.447
   48CHL1   H4B 3485   6.955   2.934   2.443
   48CHL1    C5 3486   6.957   2.840   2.638
   48CHL1    C6 3487   6.983   2.954   2.703
   48CHL1    H6 3488   7.002   3.045   2.644
   48CHL1    C7 3489   6.991   2.969   2.853
   48CHL1   H7A 3490   7.078   3.032   2.882
   48CHL1   H7B 3491   6.900   3.018   2.891
   48CHL1    C8 3492   7.005   2.831   2.922
   48CHL1    H8 3493   7.110   2.799   2.905
   48CHL1   C14 3494   6.974   2.838   3.072
   48CHL1   H14 3495   6.865   2.862   3.080
   48CHL1   C15 3496   7.044   2.941   3.160
   48CHL1  H15A 3497   7.152   2.948   3.136
   48CHL1  H15B 3498   6.999   3.042   3.147
   48CHL1   C16 3499   7.023   2.883   3.302
   48CHL1  H16A 3500   7.119   2.885   3.357
   48CHL1  H16B 3501   6.945   2.943   3.355
   48CHL1   C17 3502   6.966   2.739   3.289
   48CHL1   H17 3503   6.856   2.748   3.299
   48CHL1   C13 3504   6.995   2.705   3.144
   48CHL1   C18 3505   7.144   2.671   3.131
   48CHL1  H18A 3506   7.209   2.754   3.167
   48CHL1  H18B 3507   7.170   2.582   3.192
   48CHL1  H18C 3508   7.174   2.650   3.026
   48CHL1   C12 3509   6.899   2.604   3.086
   48CHL1  H12A 3510   6.903   2.504   3.133
   48CHL1  H12B 3511   6.799   2.647   3.110
   48CHL1   C11 3512   6.920   2.590   2.937
   48CHL1  H11A 3513   7.020   2.543   2.923
   48CHL1  H11B 3514   6.846   2.518   2.895
   48CHL1    C9 3515   6.912   2.725   2.861
   48CHL1    H9 3516   6.810   2.764   2.878
   48CHL1   C10 3517   6.927   2.707   2.709
   48CHL1   C19 3518   7.047   2.613   2.681
   48CHL1  H19A 3519   7.072   2.605   2.573
   48CHL1  H19B 3520   7.138   2.646   2.735
   48CHL1  H19C 3521   7.023   2.509   2.713
   48CHL1    C1 3522   6.795   2.644   2.654
   48CHL1   H1A 3523   6.782   2.543   2.697
   48CHL1   H1B 3524   6.710   2.706   2.688
   48CHL1    C2 3525   6.791   2.632   2.501
   48CHL1   H2A 3526   6.693   2.591   2.470
   48CHL1   H2B 3527   6.870   2.560   2.469
   48CHL1   C20 3528   7.015   2.640   3.396
   48CHL1   H20 3529   7.122   2.616   3.381
   48CHL1   C21 3530   6.935   2.507   3.405
   48CHL1  H21A 3531   6.826   2.525   3.419
   48CHL1  H21B 3532   6.970   2.448   3.493
   48CHL1  H21C 3533   6.945   2.441   3.316
   48CHL1   C22 3534   7.007   2.701   3.535
   48CHL1  H22A 3535   7.041   2.621   3.603
   48CHL1  H22B 3536   7.080   2.784   3.548
   48CHL1   C23 3537   6.865   2.742   3.573
   48CHL1  H23A 3538   6.843   2.848   3.550
   48CHL1  H23B 3539   6.785   2.687   3.518
   48CHL1   C24 3540   6.847   2.713   3.720
   48CHL1  H24A 3541   6.825   2.605   3.735
   48CHL1  H24B 3542   6.942   2.734   3.773
   48CHL1   C25 3543   6.739   2.799   3.780
   48CHL1   H25 3544   6.767   2.905   3.761
   48CHL1   C26 3545   6.601   2.782   3.716
   48CHL1  H26A 3546   6.521   2.828   3.778
   48CHL1  H26B 3547   6.599   2.830   3.615
   48CHL1  H26C 3548   6.579   2.674   3.704
   48CHL1   C27 3549   6.740   2.770   3.929
   48CHL1  H27A 3550   6.752   2.661   3.945
   48CHL1  H27B 3551   6.826   2.821   3.978
   48CHL1  H27C 3552   6.646   2.802   3.978
   49CHL1    C3 3553   0.696   5.910   2.499
   49CHL1    H3 3554   0.795   5.960   2.505
   49CHL1    O3 3555   0.688   5.841   2.375
   49CHL1   H3' 3556   0.753   5.770   2.379
   49CHL1    C4 3557   0.682   5.810   2.615
   49CHL1   H4A 3558   0.594   5.745   2.595
   49CHL1   H4B 3559   0.770   5.743   2.613
   49CHL1    C5 3560   0.666   5.880   2.749
   49CHL1    C6 3561   0.749   5.855   2.851
   49CHL1    H6 3562   0.829   5.780   2.839
   49CHL1    C7 3563   0.733   5.914   2.987
   49CHL1   H7A 3564   0.752   5.837   3.064
   49CHL1   H7B 3565   0.807   5.996   3.005
   49CHL1    C8 3566   0.590   5.970   3.007
   49CHL1    H8 3567   0.519   5.885   3.002
   49CHL1   C14 3568   0.576   6.041   3.141
   49CHL1   H14 3569   0.627   6.139   3.129
   49CHL1   C15 3570   0.643   5.979   3.263
   49CHL1  H15A 3571   0.610   5.873   3.266
   49CHL1  H15B 3572   0.754   5.984   3.260
   49CHL1   C16 3573   0.583   6.059   3.379
   49CHL1  H16A 3574   0.581   5.996   3.470
   49CHL1  H16B 3575   0.647   6.147   3.400
   49CHL1   C17 3576   0.443   6.111   3.332
   49CHL1   H17 3577   0.451   6.222   3.331
   49CHL1   C13 3578   0.430   6.068   3.181
   49CHL1   C18 3579   0.339   5.944   3.175
   49CHL1  H18A 3580   0.235   5.971   3.202
   49CHL1  H18B 3581   0.334   5.897   3.075
   49CHL1  H18C 3582   0.375   5.869   3.248
   49CHL1   C12 3583   0.388   6.172   3.077
   49CHL1  H12A 3584   0.284   6.207   3.095
   49CHL1  H12B 3585   0.457   6.258   3.092
   49CHL1   C11 3586   0.403   6.123   2.930
   49CHL1  H11A 3587   0.323   6.046   2.920
   49CHL1  H11B 3588   0.381   6.205   2.859
   49CHL1    C9 3589   0.543   6.060   2.894
   49CHL1    H9 3590   0.615   6.144   2.889
   49CHL1   C10 3591   0.551   5.984   2.757
   49CHL1   C19 3592   0.416   5.913   2.731
   49CHL1  H19A 3593   0.341   5.988   2.699
   49CHL1  H19B 3594   0.420   5.839   2.649
   49CHL1  H19C 3595   0.378   5.862   2.822
   49CHL1    C1 3596   0.576   6.084   2.641
   49CHL1   H1A 3597   0.492   6.157   2.640
   49CHL1   H1B 3598   0.669   6.141   2.661
   49CHL1    C2 3599   0.587   6.018   2.502
   49CHL1   H2A 3600   0.608   6.095   2.425
   49CHL1   H2B 3601   0.490   5.971   2.476
   49CHL1   C20 3602   0.328   6.080   3.431
   49CHL1   H20 3603   0.293   5.975   3.419
   49CHL1   C21 3604   0.211   6.174   3.402
   49CHL1  H21A 3605   0.191   6.182   3.293
   49CHL1  H21B 3606   0.234   6.276   3.441
   49CHL1  H21C 3607   0.118   6.138   3.452
   49CHL1   C22 3608   0.367   6.093   3.581
   49CHL1  H22A 3609   0.431   6.007   3.609
   49CHL1  H22B 3610   0.426   6.187   3.596
   49CHL1   C23 3611   0.250   6.095   3.681
   49CHL1  H23A 3612   0.192   6.189   3.670
   49CHL1  H23B 3613   0.182   6.009   3.659
   49CHL1   C24 3614   0.299   6.084   3.826
   49CHL1  H24A 3615   0.343   5.983   3.843
   49CHL1  H24B 3616   0.380   6.159   3.841
   49CHL1   C25 3617   0.192   6.110   3.934
   49CHL1   H25 3618   0.152   6.213   3.919
   49CHL1   C26 3619   0.074   6.012   3.926
   49CHL1  H26A 3620   0.112   5.908   3.936
   49CHL1  H26B 3621   0.002   6.031   4.009
   49CHL1  H26C 3622   0.020   6.021   3.830
   49CHL1   C27 3623   0.255   6.104   4.074
   49CHL1  H27A 3624   0.293   6.002   4.095
   49CHL1  H27B 3625   0.341   6.175   4.080
   49CHL1  H27C 3626   0.181   6.131   4.152
   50CHL1    C3 3627   5.374   7.238   2.471
   50CHL1    H3 3628   5.280   7.295   2.484
   50CHL1    O3 3629   5.409   7.236   2.334
   50CHL1   H3' 3630   5.497   7.273   2.332
   50CHL1    C4 3631   5.488   7.306   2.546
   50CHL1   H4A 3632   5.585   7.256   2.525
   50CHL1   H4B 3633   5.498   7.410   2.508
   50CHL1    C5 3634   5.461   7.304   2.695
   50CHL1    C6 3635   5.450   7.420   2.762
   50CHL1    H6 3636   5.463   7.516   2.710
   50CHL1    C7 3637   5.424   7.426   2.908
   50CHL1   H7A 3638   5.484   7.508   2.953
   50CHL1   H7B 3639   5.316   7.451   2.925
   50CHL1    C8 3640   5.458   7.293   2.979
   50CHL1    H8 3641   5.568   7.284   2.984
   50CHL1   C14 3642   5.399   7.298   3.117
   50CHL1   H14 3643   5.289   7.293   3.102
   50CHL1   C15 3644   5.421   7.426   3.197
   50CHL1  H15A 3645   5.525   7.464   3.181
   50CHL1  H15B 3646   5.348   7.505   3.169
   50CHL1   C16 3647   5.403   7.381   3.341
   50CHL1  H16A 3648   5.499   7.387   3.395
   50CHL1  H16B 3649   5.331   7.445   3.396
   50CHL1   C17 3650   5.361   7.231   3.333
   50CHL1   H17 3651   5.253   7.229   3.307
   50CHL1   C13 3652   5.432   7.179   3.207
   50CHL1   C18 3653   5.584   7.171   3.235
   50CHL1  H18A 3654   5.605   7.099   3.317
   50CHL1  H18B 3655   5.639   7.137   3.145
   50CHL1  H18C 3656   5.625   7.270   3.264
   50CHL1   C12 3657   5.378   7.052   3.139
   50CHL1  H12A 3658   5.414   6.963   3.195
   50CHL1  H12B 3659   5.267   7.055   3.141
   50CHL1   C11 3660   5.426   7.040   2.992
   50CHL1  H11A 3661   5.535   7.019   2.997
   50CHL1  H11B 3662   5.376   6.954   2.944
   50CHL1    C9 3663   5.401   7.170   2.908
   50CHL1    H9 3664   5.290   7.180   2.910
   50CHL1   C10 3665   5.438   7.164   2.757
   50CHL1   C19 3666   5.567   7.082   2.749
   50CHL1  H19A 3667   5.547   6.974   2.768
   50CHL1  H19B 3668   5.619   7.090   2.651
   50CHL1  H19C 3669   5.633   7.120   2.830
   50CHL1    C1 3670   5.326   7.094   2.675
   50CHL1   H1A 3671   5.315   6.990   2.711
   50CHL1   H1B 3672   5.230   7.147   2.694
   50CHL1    C2 3673   5.353   7.094   2.523
   50CHL1   H2A 3674   5.267   7.048   2.469
   50CHL1   H2B 3675   5.443   7.034   2.501
   50CHL1   C20 3676   5.373   7.166   3.470
   50CHL1   H20 3677   5.471   7.191   3.516
   50CHL1   C21 3678   5.361   7.013   3.468
   50CHL1  H21A 3679   5.445   6.969   3.410
   50CHL1  H21B 3680   5.264   6.984   3.423
   50CHL1  H21C 3681   5.366   6.971   3.571
   50CHL1   C22 3682   5.259   7.225   3.556
   50CHL1  H22A 3683   5.271   7.335   3.558
   50CHL1  H22B 3684   5.162   7.204   3.506
   50CHL1   C23 3685   5.254   7.179   3.700
   50CHL1  H23A 3686   5.177   7.101   3.715
   50CHL1  H23B 3687   5.353   7.136   3.728
   50CHL1   C24 3688   5.226   7.301   3.786
   50CHL1  H24A 3689   5.316   7.366   3.777
   50CHL1  H24B 3690   5.140   7.359   3.745
   50CHL1   C25 3691   5.200   7.275   3.934
   50CHL1   H25 3692   5.090   7.274   3.952
   50CHL1   C26 3693   5.259   7.142   3.984
   50CHL1  H26A 3694   5.190   7.058   3.965
   50CHL1  H26B 3695   5.356   7.122   3.934
   50CHL1  H26C 3696   5.281   7.148   4.093
   50CHL1   C27 3697   5.261   7.391   4.009
   50CHL1  H27A 3698   5.371   7.383   3.999
   50CHL1  H27B 3699   5.232   7.489   3.965
   50CHL1  H27C 3700   5.234   7.391   4.117
   51CHL1    C3 3701   1.136   6.768   2.529
   51CHL1    H3 3702   1.092   6.869   2.520
   51CHL1    O3 3703   1.145   6.710   2.399
   51CHL1   H3' 3704   1.072   6.647   2.398
   51CHL1    C4 3705   1.275   6.775   2.593
   51CHL1   H4A 3706   1.318   6.673   2.589
   51CHL1   H4B 3707   1.339   6.839   2.528
   51CHL1    C5 3708   1.274   6.825   2.736
   51CHL1    C6 3709   1.350   6.929   2.775
   51CHL1    H6 3710   1.418   6.976   2.703
   51CHL1    C7 3711   1.351   6.986   2.915
   51CHL1   H7A 3712   1.455   6.998   2.951
   51CHL1   H7B 3713   1.306   7.087   2.913
   51CHL1    C8 3714   1.274   6.899   3.018
   51CHL1    H8 3715   1.343   6.817   3.047
   51CHL1   C14 3716   1.235   6.982   3.140
   51CHL1   H14 3717   1.159   7.055   3.106
   51CHL1   C15 3718   1.343   7.068   3.208
   51CHL1  H15A 3719   1.437   7.008   3.218
   51CHL1  H15B 3720   1.365   7.160   3.151
   51CHL1   C16 3721   1.285   7.098   3.347
   51CHL1  H16A 3722   1.362   7.075   3.423
   51CHL1  H16B 3723   1.256   7.204   3.356
   51CHL1   C17 3724   1.159   7.007   3.366
   51CHL1   H17 3725   1.070   7.070   3.346
   51CHL1   C13 3726   1.167   6.902   3.252
   51CHL1   C18 3727   1.258   6.787   3.298
   51CHL1  H18A 3728   1.208   6.726   3.377
   51CHL1  H18B 3729   1.281   6.717   3.215
   51CHL1  H18C 3730   1.354   6.826   3.339
   51CHL1   C12 3731   1.034   6.849   3.194
   51CHL1  H12A 3732   0.979   6.788   3.268
   51CHL1  H12B 3733   0.969   6.936   3.167
   51CHL1   C11 3734   1.059   6.764   3.067
   51CHL1  H11A 3735   1.108   6.670   3.099
   51CHL1  H11B 3736   0.960   6.737   3.024
   51CHL1    C9 3737   1.146   6.837   2.960
   51CHL1    H9 3738   1.083   6.923   2.931
   51CHL1   C10 3739   1.172   6.755   2.830
   51CHL1   C19 3740   1.233   6.618   2.867
   51CHL1  H19A 3741   1.260   6.559   2.776
   51CHL1  H19B 3742   1.325   6.631   2.928
   51CHL1  H19C 3743   1.161   6.557   2.925
   51CHL1    C1 3744   1.035   6.734   2.757
   51CHL1   H1A 3745   0.973   6.665   2.818
   51CHL1   H1B 3746   0.982   6.832   2.753
   51CHL1    C2 3747   1.044   6.679   2.614
   51CHL1   H2A 3748   0.943   6.674   2.570
   51CHL1   H2B 3749   1.086   6.576   2.618
   51CHL1   C20 3750   1.147   6.954   3.511
   51CHL1   H20 3751   1.232   6.884   3.529
   51CHL1   C21 3752   1.016   6.876   3.532
   51CHL1  H21A 3753   1.005   6.848   3.638
   51CHL1  H21B 3754   1.015   6.782   3.472
   51CHL1  H21C 3755   0.928   6.938   3.503
   51CHL1   C22 3756   1.160   7.061   3.622
   51CHL1  H22A 3757   1.216   7.151   3.588
   51CHL1  H22B 3758   1.058   7.095   3.651
   51CHL1   C23 3759   1.235   7.004   3.744
   51CHL1  H23A 3760   1.186   6.910   3.777
   51CHL1  H23B 3761   1.337   6.978   3.711
   51CHL1   C24 3762   1.247   7.100   3.864
   51CHL1  H24A 3763   1.321   7.059   3.936
   51CHL1  H24B 3764   1.287   7.197   3.827
   51CHL1   C25 3765   1.116   7.126   3.940
   51CHL1   H25 3766   1.039   7.151   3.863
   51CHL1   C26 3767   1.064   7.002   4.014
   51CHL1  H26A 3768   1.139   6.969   4.090
   51CHL1  H26B 3769   0.969   7.026   4.067
   51CHL1  H26C 3770   1.044   6.918   3.944
   51CHL1   C27 3771   1.131   7.244   4.036
   51CHL1  H27A 3772   1.035   7.264   4.089
   51CHL1  H27B 3773   1.209   7.223   4.112
   51CHL1  H27C 3774   1.160   7.336   3.981
   52CHL1    C3 3775   6.576   0.823   2.523
   52CHL1    H3 3776   6.598   0.931   2.533
   52CHL1    O3 3777   6.565   0.791   2.384
   52CHL1   H3' 3778   6.485   0.835   2.354
   52CHL1    C4 3779   6.690   0.740   2.585
   52CHL1   H4A 3780   6.668   0.633   2.568
   52CHL1   H4B 3781   6.784   0.763   2.531
   52CHL1    C5 3782   6.701   0.767   2.734
   52CHL1    C6 3783   6.814   0.821   2.783
   52CHL1    H6 3784   6.899   0.839   2.716
   52CHL1    C7 3785   6.834   0.855   2.927
   52CHL1   H7A 3786   6.936   0.827   2.959
   52CHL1   H7B 3787   6.825   0.965   2.940
   52CHL1    C8 3788   6.732   0.785   3.020
   52CHL1    H8 3789   6.764   0.679   3.026
   52CHL1   C14 3790   6.730   0.850   3.157
   52CHL1   H14 3791   6.675   0.946   3.146
   52CHL1   C15 3792   6.864   0.891   3.216
   52CHL1  H15A 3793   6.933   0.805   3.207
   52CHL1  H15B 3794   6.908   0.980   3.166
   52CHL1   C16 3795   6.833   0.918   3.363
   52CHL1  H16A 3796   6.909   0.867   3.426
   52CHL1  H16B 3797   6.834   1.027   3.386
   52CHL1   C17 3798   6.690   0.860   3.390
   52CHL1   H17 3799   6.620   0.946   3.385
   52CHL1   C13 3800   6.654   0.775   3.265
   52CHL1   C18 3801   6.710   0.633   3.284
   52CHL1  H18A 3802   6.694   0.572   3.193
   52CHL1  H18B 3803   6.819   0.636   3.307
   52CHL1  H18C 3804   6.659   0.580   3.367
   52CHL1   C12 3805   6.507   0.776   3.218
   52CHL1  H12A 3806   6.443   0.717   3.287
   52CHL1  H12B 3807   6.472   0.881   3.220
   52CHL1   C11 3808   6.491   0.723   3.072
   52CHL1  H11A 3809   6.511   0.614   3.077
   52CHL1  H11B 3810   6.386   0.738   3.039
   52CHL1    C9 3811   6.588   0.789   2.967
   52CHL1    H9 3812   6.560   0.896   2.965
   52CHL1   C10 3813   6.574   0.740   2.819
   52CHL1   C19 3814   6.542   0.589   2.822
   52CHL1  H19A 3815   6.530   0.550   2.719
   52CHL1  H19B 3816   6.622   0.532   2.873
   52CHL1  H19C 3817   6.445   0.570   2.872
   52CHL1    C1 3818   6.457   0.814   2.748
   52CHL1   H1A 3819   6.361   0.786   2.797
   52CHL1   H1B 3820   6.472   0.923   2.763
   52CHL1    C2 3821   6.445   0.790   2.595
   52CHL1   H2A 3822   6.362   0.852   2.555
   52CHL1   H2B 3823   6.421   0.684   2.577
   52CHL1   C20 3824   6.684   0.803   3.534
   52CHL1   H20 3825   6.761   0.725   3.544
   52CHL1   C21 3826   6.548   0.738   3.566
   52CHL1  H21A 3827   6.514   0.668   3.487
   52CHL1  H21B 3828   6.470   0.817   3.580
   52CHL1  H21C 3829   6.555   0.681   3.661
   52CHL1   C22 3830   6.718   0.918   3.634
   52CHL1  H22A 3831   6.825   0.946   3.623
   52CHL1  H22B 3832   6.658   1.007   3.607
   52CHL1   C23 3833   6.692   0.892   3.783
   52CHL1  H23A 3834   6.584   0.867   3.797
   52CHL1  H23B 3835   6.752   0.806   3.818
   52CHL1   C24 3836   6.726   1.017   3.867
   52CHL1  H24A 3837   6.833   1.041   3.854
   52CHL1  H24B 3838   6.668   1.104   3.827
   52CHL1   C25 3839   6.692   1.004   4.017
   52CHL1   H25 3840   6.743   0.914   4.057
   52CHL1   C26 3841   6.735   1.126   4.100
   52CHL1  H26A 3842   6.827   1.104   4.158
   52CHL1  H26B 3843   6.752   1.214   4.034
   52CHL1  H26C 3844   6.657   1.153   4.175
   52CHL1   C27 3845   6.543   0.989   4.036
   52CHL1  H27A 3846   6.525   0.982   4.146
   52CHL1  H27B 3847   6.490   1.079   3.997
   52CHL1  H27C 3848   6.502   0.897   3.988
   53CHL1    C3 3849   1.705   0.004   2.500
   53CHL1    H3 3850   1.610   0.040   2.545
   53CHL1    O3 3851   1.702   0.039   2.362
   53CHL1   H3' 3852   1.792   0.036   2.332
   53CHL1    C4 3853   1.824   0.071   2.568
   53CHL1   H4A 3854   1.919   0.032   2.524
   53CHL1   H4B 3855   1.822   0.180   2.547
   53CHL1    C5 3856   1.818   0.041   2.716
   53CHL1    C6 3857   1.803   0.141   2.804
   53CHL1    H6 3858   1.802   0.245   2.768
   53CHL1    C7 3859   1.793   0.121   2.951
   53CHL1   H7A 3860   1.855   0.195   3.006
   53CHL1   H7B 3861   1.687   0.137   2.983
   53CHL1    C8 3862   1.837  -0.020   2.996
   53CHL1    H8 3863   1.948  -0.026   2.991
   53CHL1   C14 3864   1.791  -0.042   3.139
   53CHL1   H14 3865   1.680  -0.048   3.133
   53CHL1   C15 3866   1.820   0.070   3.240
   53CHL1  H15A 3867   1.927   0.100   3.234
   53CHL1  H15B 3868   1.756   0.160   3.225
   53CHL1   C16 3869   1.792   0.002   3.374
   53CHL1  H16A 3870   1.879   0.019   3.441
   53CHL1  H16B 3871   1.701   0.042   3.423
   53CHL1   C17 3872   1.774  -0.151   3.344
   53CHL1   H17 3873   1.665  -0.169   3.331
   53CHL1   C13 3874   1.837  -0.172   3.203
   53CHL1   C18 3875   1.991  -0.178   3.216
   53CHL1  H18A 3876   2.023  -0.273   3.263
   53CHL1  H18B 3877   2.041  -0.173   3.116
   53CHL1  H18C 3878   2.031  -0.095   3.278
   53CHL1   C12 3879   1.783  -0.287   3.115
   53CHL1  H12A 3880   1.824  -0.384   3.149
   53CHL1  H12B 3881   1.672  -0.291   3.124
   53CHL1   C11 3882   1.820  -0.270   2.965
   53CHL1  H11A 3883   1.930  -0.284   2.959
   53CHL1  H11B 3884   1.772  -0.351   2.906
   53CHL1    C9 3885   1.782  -0.131   2.906
   53CHL1    H9 3886   1.672  -0.124   2.915
   53CHL1   C10 3887   1.816  -0.109   2.755
   53CHL1   C19 3888   1.956  -0.167   2.726
   53CHL1  H19A 3889   2.034  -0.116   2.787
   53CHL1  H19B 3890   1.961  -0.276   2.745
   53CHL1  H19C 3891   1.983  -0.153   2.619
   53CHL1    C1 3892   1.711  -0.184   2.668
   53CHL1   H1A 3893   1.726  -0.294   2.680
   53CHL1   H1B 3894   1.609  -0.160   2.706
   53CHL1    C2 3895   1.714  -0.148   2.518
   53CHL1   H2A 3896   1.629  -0.197   2.465
   53CHL1   H2B 3897   1.808  -0.185   2.472
   53CHL1   C20 3898   1.820  -0.233   3.465
   53CHL1   H20 3899   1.926  -0.207   3.483
   53CHL1   C21 3900   1.812  -0.383   3.436
   53CHL1  H21A 3901   1.866  -0.410   3.343
   53CHL1  H21B 3902   1.705  -0.415   3.428
   53CHL1  H21C 3903   1.860  -0.442   3.517
   53CHL1   C22 3904   1.740  -0.194   3.593
   53CHL1  H22A 3905   1.763  -0.090   3.622
   53CHL1  H22B 3906   1.633  -0.199   3.566
   53CHL1   C23 3907   1.757  -0.283   3.718
   53CHL1  H23A 3908   1.659  -0.283   3.770
   53CHL1  H23B 3909   1.778  -0.389   3.691
   53CHL1   C24 3910   1.861  -0.238   3.823
   53CHL1  H24A 3911   1.964  -0.244   3.782
   53CHL1  H24B 3912   1.840  -0.132   3.849
   53CHL1   C25 3913   1.850  -0.324   3.952
   53CHL1   H25 3914   1.747  -0.363   3.957
   53CHL1   C26 3915   1.945  -0.444   3.949
   53CHL1  H26A 3916   1.937  -0.501   3.854
   53CHL1  H26B 3917   2.050  -0.408   3.960
   53CHL1  H26C 3918   1.924  -0.513   4.034
   53CHL1   C27 3919   1.873  -0.241   4.079
   53CHL1  H27A 3920   1.972  -0.191   4.077
   53CHL1  H27B 3921   1.794  -0.163   4.088
   53CHL1  H27C 3922   1.868  -0.307   4.168
   54CHL1    C3 3923   0.467   6.552   2.507
   54CHL1    H3 3924   0.560   6.612   2.513
   54CHL1    O3 3925   0.450   6.510   2.373
   54CHL1   H3' 3926   0.359   6.533   2.350
   54CHL1    C4 3927   0.479   6.430   2.600
   54CHL1   H4A 3928   0.391   6.364   2.585
   54CHL1   H4B 3929   0.567   6.372   2.568
   54CHL1    C5 3930   0.489   6.474   2.745
   54CHL1    C6 3931   0.595   6.441   2.820
   54CHL1    H6 3932   0.675   6.378   2.778
   54CHL1    C7 3933   0.608   6.477   2.966
   54CHL1   H7A 3934   0.645   6.388   3.022
   54CHL1   H7B 3935   0.680   6.559   2.980
   54CHL1    C8 3936   0.471   6.519   3.025
   54CHL1    H8 3937   0.405   6.429   3.020
   54CHL1   C14 3938   0.483   6.565   3.169
   54CHL1   H14 3939   0.535   6.663   3.166
   54CHL1   C15 3940   0.569   6.480   3.265
   54CHL1  H15A 3941   0.561   6.372   3.239
   54CHL1  H15B 3942   0.676   6.509   3.259
   54CHL1   C16 3943   0.510   6.506   3.404
   54CHL1  H16A 3944   0.474   6.410   3.447
   54CHL1  H16B 3945   0.585   6.549   3.474
   54CHL1   C17 3946   0.389   6.603   3.386
   54CHL1   H17 3947   0.429   6.706   3.398
   54CHL1   C13 3948   0.348   6.589   3.237
   54CHL1   C18 3949   0.255   6.466   3.223
   54CHL1  H18A 3950   0.161   6.479   3.280
   54CHL1  H18B 3951   0.225   6.446   3.118
   54CHL1  H18C 3952   0.308   6.376   3.261
   54CHL1   C12 3953   0.290   6.712   3.163
   54CHL1  H12A 3954   0.191   6.739   3.205
   54CHL1  H12B 3955   0.359   6.797   3.180
   54CHL1   C11 3956   0.275   6.686   3.011
   54CHL1  H11A 3957   0.186   6.620   3.002
   54CHL1  H11B 3958   0.249   6.782   2.960
   54CHL1    C9 3959   0.399   6.623   2.939
   54CHL1    H9 3960   0.473   6.705   2.928
   54CHL1   C10 3961   0.373   6.564   2.796
   54CHL1   C19 3962   0.243   6.479   2.797
   54CHL1  H19A 3963   0.247   6.401   2.877
   54CHL1  H19B 3964   0.154   6.543   2.814
   54CHL1  H19C 3965   0.225   6.427   2.701
   54CHL1    C1 3966   0.358   6.681   2.695
   54CHL1   H1A 3967   0.267   6.738   2.725
   54CHL1   H1B 3968   0.445   6.749   2.706
   54CHL1    C2 3969   0.348   6.638   2.548
   54CHL1   H2A 3970   0.346   6.726   2.480
   54CHL1   H2B 3971   0.254   6.581   2.533
   54CHL1   C20 3972   0.283   6.580   3.495
   54CHL1   H20 3973   0.241   6.478   3.485
   54CHL1   C21 3974   0.170   6.682   3.477
   54CHL1  H21A 3975   0.215   6.783   3.467
   54CHL1  H21B 3976   0.100   6.683   3.563
   54CHL1  H21C 3977   0.110   6.661   3.386
   54CHL1   C22 3978   0.337   6.591   3.640
   54CHL1  H22A 3979   0.436   6.543   3.651
   54CHL1  H22B 3980   0.349   6.699   3.665
   54CHL1   C23 3981   0.244   6.525   3.745
   54CHL1  H23A 3982   0.138   6.542   3.717
   54CHL1  H23B 3983   0.261   6.415   3.744
   54CHL1   C24 3984   0.267   6.580   3.887
   54CHL1  H24A 3985   0.375   6.577   3.910
   54CHL1  H24B 3986   0.235   6.686   3.888
   54CHL1   C25 3987   0.191   6.506   3.999
   54CHL1   H25 3988   0.237   6.405   4.010
   54CHL1   C26 3989   0.207   6.580   4.133
   54CHL1  H26A 3990   0.162   6.682   4.126
   54CHL1  H26B 3991   0.156   6.525   4.214
   54CHL1  H26C 3992   0.315   6.591   4.159
   54CHL1   C27 3993   0.042   6.487   3.969
   54CHL1  H27A 3994   0.028   6.427   3.877
   54CHL1  H27B 3995  -0.008   6.434   4.053
   54CHL1  H27C 3996  -0.008   6.586   3.956
   55CHL1    C3 3997   6.969   6.698   2.482
   55CHL1    H3 3998   6.997   6.591   2.491
   55CHL1    O3 3999   7.005   6.745   2.353
   55CHL1   H3' 4000   6.959   6.830   2.346
   55CHL1    C4 4001   6.817   6.714   2.502
   55CHL1   H4A 4002   6.788   6.818   2.477
   55CHL1   H4B 4003   6.767   6.649   2.428
   55CHL1    C5 4004   6.772   6.682   2.643
   55CHL1    C6 4005   6.673   6.595   2.668
   55CHL1    H6 4006   6.619   6.547   2.584
   55CHL1    C7 4007   6.624   6.557   2.805
   55CHL1   H7A 4008   6.513   6.560   2.809
   55CHL1   H7B 4009   6.654   6.453   2.829
   55CHL1    C8 4010   6.681   6.651   2.915
   55CHL1    H8 4011   6.621   6.744   2.909
   55CHL1   C14 4012   6.665   6.587   3.051
   55CHL1   H14 4013   6.730   6.497   3.052
   55CHL1   C15 4014   6.525   6.537   3.091
   55CHL1  H15A 4015   6.448   6.608   3.057
   55CHL1  H15B 4016   6.504   6.437   3.046
   55CHL1   C16 4017   6.530   6.532   3.244
   55CHL1  H16A 4018   6.447   6.593   3.286
   55CHL1  H16B 4019   6.516   6.427   3.278
   55CHL1   C17 4020   6.671   6.589   3.286
   55CHL1   H17 4021   6.739   6.501   3.285
   55CHL1   C13 4022   6.713   6.675   3.166
   55CHL1   C18 4023   6.633   6.807   3.172
   55CHL1  H18A 4024   6.678   6.877   3.245
   55CHL1  H18B 4025   6.632   6.860   3.074
   55CHL1  H18C 4026   6.527   6.789   3.202
   55CHL1   C12 4027   6.863   6.702   3.150
   55CHL1  H12A 4028   6.898   6.768   3.232
   55CHL1  H12B 4029   6.918   6.606   3.156
   55CHL1   C11 4030   6.889   6.767   3.013
   55CHL1  H11A 4031   6.844   6.868   3.016
   55CHL1  H11B 4032   6.999   6.779   3.001
   55CHL1    C9 4033   6.829   6.686   2.894
   55CHL1    H9 4034   6.881   6.588   2.895
   55CHL1   C10 4035   6.855   6.749   2.755
   55CHL1   C19 4036   6.812   6.898   2.759
   55CHL1  H19A 4037   6.814   6.945   2.658
   55CHL1  H19B 4038   6.709   6.907   2.800
   55CHL1  H19C 4039   6.880   6.957   2.824
   55CHL1    C1 4040   7.008   6.739   2.726
   55CHL1   H1A 4041   7.063   6.803   2.798
   55CHL1   H1B 4042   7.040   6.634   2.743
   55CHL1    C2 4043   7.047   6.780   2.584
   55CHL1   H2A 4044   7.156   6.765   2.569
   55CHL1   H2B 4045   7.025   6.888   2.570
   55CHL1   C20 4046   6.685   6.657   3.423
   55CHL1   H20 4047   6.698   6.766   3.412
   55CHL1   C21 4048   6.818   6.609   3.487
   55CHL1  H21A 4049   6.814   6.501   3.513
   55CHL1  H21B 4050   6.840   6.665   3.580
   55CHL1  H21C 4051   6.903   6.624   3.417
   55CHL1   C22 4052   6.560   6.641   3.514
   55CHL1  H22A 4053   6.480   6.708   3.476
   55CHL1  H22B 4054   6.521   6.537   3.509
   55CHL1   C23 4055   6.583   6.670   3.662
   55CHL1  H23A 4056   6.487   6.649   3.714
   55CHL1  H23B 4057   6.657   6.597   3.701
   55CHL1   C24 4058   6.625   6.814   3.698
   55CHL1  H24A 4059   6.716   6.843   3.640
   55CHL1  H24B 4060   6.544   6.883   3.668
   55CHL1   C25 4061   6.652   6.829   3.849
   55CHL1   H25 4062   6.556   6.801   3.897
   55CHL1   C26 4063   6.763   6.735   3.901
   55CHL1  H26A 4064   6.731   6.629   3.896
   55CHL1  H26B 4065   6.856   6.746   3.841
   55CHL1  H26C 4066   6.787   6.759   4.007
   55CHL1   C27 4067   6.678   6.973   3.896
   55CHL1  H27A 4068   6.612   6.996   3.983
   55CHL1  H27B 4069   6.782   6.985   3.934
   55CHL1  H27C 4070   6.659   7.046   3.815
   56CHL1    C3 4071   0.210   0.736   2.484
   56CHL1    H3 4072   0.252   0.639   2.519
   56CHL1    O3 4073   0.244   0.754   2.347
   56CHL1   H3' 4074   0.338   0.773   2.351
   56CHL1    C4 4075   0.057   0.737   2.503
   56CHL1   H4A 4076   0.019   0.831   2.457
   56CHL1   H4B 4077   0.015   0.653   2.443
   56CHL1    C5 4078   0.012   0.730   2.648
   56CHL1    C6 4079  -0.086   0.650   2.690
   56CHL1    H6 4080  -0.138   0.585   2.618
   56CHL1    C7 4081  -0.136   0.647   2.832
   56CHL1   H7A 4082  -0.246   0.660   2.834
   56CHL1   H7B 4083  -0.112   0.547   2.875
   56CHL1    C8 4084  -0.077   0.748   2.931
   56CHL1    H8 4085  -0.139   0.840   2.922
   56CHL1   C14 4086  -0.079   0.698   3.076
   56CHL1   H14 4087   0.002   0.622   3.081
   56CHL1   C15 4088  -0.200   0.622   3.129
   56CHL1  H15A 4089  -0.296   0.661   3.089
   56CHL1  H15B 4090  -0.183   0.515   3.101
   56CHL1   C16 4091  -0.192   0.627   3.280
   56CHL1  H16A 4092  -0.286   0.672   3.320
   56CHL1  H16B 4093  -0.181   0.526   3.325
   56CHL1   C17 4094  -0.070   0.716   3.313
   56CHL1   H17 4095   0.018   0.648   3.325
   56CHL1   C13 4096  -0.041   0.799   3.184
   56CHL1   C18 4097  -0.133   0.924   3.183
   56CHL1  H18A 4098  -0.155   0.962   3.081
   56CHL1  H18B 4099  -0.229   0.902   3.234
   56CHL1  H18C 4100  -0.085   1.008   3.239
   56CHL1   C12 4101   0.105   0.837   3.150
   56CHL1  H12A 4102   0.136   0.924   3.212
   56CHL1  H12B 4103   0.172   0.752   3.172
   56CHL1   C11 4104   0.120   0.879   3.002
   56CHL1  H11A 4105   0.049   0.964   2.990
   56CHL1  H11B 4106   0.223   0.913   2.981
   56CHL1    C9 4107   0.067   0.779   2.896
   56CHL1    H9 4108   0.126   0.686   2.908
   56CHL1   C10 4109   0.084   0.822   2.746
   56CHL1   C19 4110   0.009   0.954   2.722
   56CHL1  H19A 4111  -0.102   0.943   2.729
   56CHL1  H19B 4112   0.038   1.026   2.801
   56CHL1  H19C 4113   0.033   0.998   2.623
   56CHL1    C1 4114   0.236   0.834   2.715
   56CHL1   H1A 4115   0.278   0.921   2.770
   56CHL1   H1B 4116   0.287   0.743   2.754
   56CHL1    C2 4117   0.273   0.849   2.566
   56CHL1   H2A 4118   0.383   0.848   2.555
   56CHL1   H2B 4119   0.235   0.946   2.529
   56CHL1   C20 4120  -0.095   0.785   3.447
   56CHL1   H20 4121  -0.185   0.850   3.439
   56CHL1   C21 4122   0.023   0.875   3.476
   56CHL1  H21A 4123   0.113   0.815   3.502
   56CHL1  H21B 4124  -0.007   0.939   3.561
   56CHL1  H21C 4125   0.046   0.945   3.393
   56CHL1   C22 4126  -0.122   0.684   3.564
   56CHL1  H22A 4127  -0.229   0.655   3.560
   56CHL1  H22B 4128  -0.062   0.593   3.549
   56CHL1   C23 4129  -0.091   0.737   3.706
   56CHL1  H23A 4130   0.019   0.736   3.722
   56CHL1  H23B 4131  -0.125   0.843   3.712
   56CHL1   C24 4132  -0.159   0.660   3.821
   56CHL1  H24A 4133  -0.269   0.677   3.810
   56CHL1  H24B 4134  -0.140   0.551   3.810
   56CHL1   C25 4135  -0.117   0.704   3.963
   56CHL1   H25 4136  -0.089   0.811   3.957
   56CHL1   C26 4137  -0.234   0.693   4.063
   56CHL1  H26A 4138  -0.321   0.753   4.029
   56CHL1  H26B 4139  -0.266   0.587   4.074
   56CHL1  H26C 4140  -0.202   0.731   4.163
   56CHL1   C27 4141   0.005   0.627   4.014
   56CHL1  H27A 4142   0.087   0.632   3.938
   56CHL1  H27B 4143   0.042   0.672   4.109
   56CHL1  H27C 4144  -0.020   0.521   4.032
   57SAPC     N 4145   4.097   3.317   6.439
   57SAPC   C12 4146   4.223   3.232   6.452
   57SAPC  H12A 4147   4.206   3.152   6.523
   57SAPC  H12B 4148   4.301   3.294   6.492
   57SAPC   C13 4149   4.002   3.257   6.340
   57SAPC  H13A 4150   3.975   3.155   6.365
   57SAPC  H13B 4151   3.912   3.316   6.329
   57SAPC  H13C 4152   4.048   3.254   6.243
   57SAPC   C14 4153   4.029   3.334   6.571
   57SAPC  H14A 4154   4.002   3.238   6.612
   57SAPC  H14B 4155   4.095   3.385   6.641
   57SAPC  H14C 4156   3.939   3.393   6.560
   57SAPC   C15 4157   4.138   3.451   6.384
   57SAPC  H15A 4158   4.209   3.500   6.449
   57SAPC  H15B 4159   4.189   3.433   6.290
   57SAPC  H15C 4160   4.054   3.515   6.364
   57SAPC   C11 4161   4.281   3.169   6.323
   57SAPC  H11A 4162   4.211   3.092   6.283
   57SAPC  H11B 4163   4.376   3.118   6.347
   57SAPC     P 4164   4.272   3.257   6.076
   57SAPC   O13 4165   4.345   3.140   6.023
   57SAPC   O14 4166   4.125   3.257   6.069
   57SAPC   O12 4167   4.308   3.272   6.229
   57SAPC   O11 4168   4.329   3.392   6.017
   57SAPC    C1 4169   4.367   3.500   6.102
   57SAPC    HA 4170   4.277   3.558   6.132
   57SAPC    HB 4171   4.419   3.466   6.195
   57SAPC    C2 4172   4.468   3.596   6.033
   57SAPC    HS 4173   4.468   3.693   6.086
   57SAPC   O21 4174   4.433   3.618   5.895
   57SAPC   C21 4175   4.315   3.676   5.877
   57SAPC   O22 4176   4.247   3.727   5.964
   57SAPC   C22 4177   4.273   3.664   5.730
   57SAPC   H2R 4178   4.259   3.556   5.708
   57SAPC   H2S 4179   4.176   3.717   5.720
   57SAPC    C3 4180   4.612   3.537   6.044
   57SAPC    HX 4181   4.642   3.545   6.151
   57SAPC    HY 4182   4.684   3.601   5.987
   57SAPC   O31 4183   4.625   3.399   6.006
   57SAPC   C31 4184   4.651   3.381   5.877
   57SAPC   O32 4185   4.653   3.468   5.793
   57SAPC   C32 4186   4.699   3.237   5.858
   57SAPC   H2X 4187   4.619   3.169   5.893
   57SAPC   H2Y 4188   4.787   3.224   5.926
   57SAPC   C23 4189   4.374   3.726   5.631
   57SAPC   H3R 4190   4.475   3.680   5.646
   57SAPC   H3S 4191   4.384   3.834   5.653
   57SAPC   C24 4192   4.330   3.708   5.485
   57SAPC   H4R 4193   4.396   3.772   5.422
   57SAPC   H4S 4194   4.228   3.751   5.473
   57SAPC   C25 4195   4.334   3.568   5.432
   57SAPC   H5R 4196   4.236   3.521   5.412
   57SAPC   C26 4197   4.445   3.497   5.406
   57SAPC   H6R 4198   4.435   3.394   5.368
   57SAPC   C27 4199   4.588   3.541   5.426
   57SAPC   H7R 4200   4.655   3.465   5.379
   57SAPC   H7S 4201   4.611   3.535   5.534
   57SAPC   C28 4202   4.632   3.677   5.376
   57SAPC   H8R 4203   4.648   3.751   5.455
   57SAPC   C29 4204   4.650   3.713   5.248
   57SAPC   H9R 4205   4.690   3.813   5.224
   57SAPC  C210 4206   4.632   3.626   5.129
   57SAPC  H10R 4207   4.561   3.674   5.058
   57SAPC  H10S 4208   4.586   3.529   5.160
   57SAPC  C211 4209   4.764   3.600   5.063
   57SAPC  H11R 4210   4.851   3.657   5.097
   57SAPC  C212 4211   4.777   3.512   4.965
   57SAPC  H12R 4212   4.874   3.506   4.914
   57SAPC  C213 4213   4.665   3.429   4.909
   57SAPC  H13R 4214   4.581   3.418   4.982
   57SAPC  H13S 4215   4.698   3.324   4.891
   57SAPC  C214 4216   4.610   3.496   4.786
   57SAPC  H14R 4217   4.603   3.606   4.792
   57SAPC  C215 4218   4.567   3.436   4.675
   57SAPC  H15R 4219   4.529   3.499   4.594
   57SAPC  C216 4220   4.563   3.289   4.644
   57SAPC  H16R 4221   4.459   3.257   4.623
   57SAPC  H16S 4222   4.600   3.226   4.728
   57SAPC  C217 4223   4.650   3.260   4.520
   57SAPC  H17R 4224   4.644   3.151   4.500
   57SAPC  H17S 4225   4.756   3.285   4.541
   57SAPC  C218 4226   4.604   3.336   4.395
   57SAPC  H18R 4227   4.612   3.446   4.410
   57SAPC  H18S 4228   4.497   3.312   4.376
   57SAPC  C219 4229   4.688   3.300   4.273
   57SAPC  H19R 4230   4.713   3.192   4.276
   57SAPC  H19S 4231   4.783   3.357   4.277
   57SAPC  C220 4232   4.615   3.328   4.143
   57SAPC  H20R 4233   4.561   3.424   4.158
   57SAPC  H20S 4234   4.538   3.251   4.120
   57SAPC  H20T 4235   4.685   3.337   4.057
   57SAPC   C33 4236   4.745   3.205   5.714
   57SAPC   H3X 4237   4.786   3.102   5.713
   57SAPC   H3Y 4238   4.826   3.274   5.683
   57SAPC   C34 4239   4.632   3.209   5.610
   57SAPC   H4X 4240   4.676   3.191   5.509
   57SAPC   H4Y 4241   4.586   3.311   5.607
   57SAPC   C35 4242   4.522   3.106   5.637
   57SAPC   H5X 4243   4.483   3.119   5.740
   57SAPC   H5Y 4244   4.566   3.004   5.629
   57SAPC   C36 4245   4.402   3.117   5.541
   57SAPC   H6X 4246   4.354   3.216   5.555
   57SAPC   H6Y 4247   4.328   3.039   5.569
   57SAPC   C37 4248   4.441   3.100   5.393
   57SAPC   H7X 4249   4.507   3.012   5.383
   57SAPC   H7Y 4250   4.500   3.189   5.362
   57SAPC   C38 4251   4.318   3.083   5.303
   57SAPC   H8X 4252   4.249   3.168   5.320
   57SAPC   H8Y 4253   4.264   2.991   5.333
   57SAPC   C39 4254   4.353   3.073   5.153
   57SAPC   H9X 4255   4.259   3.060   5.095
   57SAPC   H9Y 4256   4.417   2.984   5.137
   57SAPC  C310 4257   4.430   3.193   5.096
   57SAPC  H10X 4258   4.454   3.175   4.989
   57SAPC  H10Y 4259   4.527   3.201   5.149
   57SAPC  C311 4260   4.355   3.325   5.109
   57SAPC  H11X 4261   4.430   3.406   5.122
   57SAPC  H11Y 4262   4.291   3.328   5.200
   57SAPC  C312 4263   4.271   3.361   4.986
   57SAPC  H12X 4264   4.192   3.286   4.969
   57SAPC  H12Y 4265   4.338   3.362   4.897
   57SAPC  C313 4266   4.209   3.499   5.010
   57SAPC  H13X 4267   4.278   3.560   5.072
   57SAPC  H13Y 4268   4.117   3.482   5.071
   57SAPC  C314 4269   4.176   3.581   4.885
   57SAPC  H14X 4270   4.141   3.681   4.921
   57SAPC  H14Y 4271   4.092   3.533   4.832
   57SAPC  C315 4272   4.294   3.605   4.789
   57SAPC  H15X 4273   4.320   3.509   4.741
   57SAPC  H15Y 4274   4.381   3.640   4.849
   57SAPC  C316 4275   4.263   3.708   4.679
   57SAPC  H16X 4276   4.241   3.805   4.729
   57SAPC  H16Y 4277   4.170   3.680   4.625
   57SAPC  C317 4278   4.372   3.727   4.573
   57SAPC  H17X 4279   4.473   3.711   4.618
   57SAPC  H17Y 4280   4.369   3.833   4.539
   57SAPC  C318 4281   4.354   3.640   4.448
   57SAPC  H18X 4282   4.349   3.532   4.476
   57SAPC  H18Y 4283   4.439   3.655   4.378
   57SAPC  H18Z 4284   4.260   3.667   4.396
   58SAPC     N 4285   3.498   2.105   6.139
   58SAPC   C12 4286   3.513   2.065   6.285
   58SAPC  H12A 4287   3.526   2.155   6.344
   58SAPC  H12B 4288   3.603   2.008   6.295
   58SAPC   C13 4289   3.503   1.982   6.054
   58SAPC  H13A 4290   3.478   2.003   5.951
   58SAPC  H13B 4291   3.601   1.937   6.057
   58SAPC  H13C 4292   3.433   1.909   6.094
   58SAPC   C14 4293   3.367   2.175   6.118
   58SAPC  H14A 4294   3.362   2.265   6.177
   58SAPC  H14B 4295   3.355   2.202   6.014
   58SAPC  H14C 4296   3.286   2.110   6.147
   58SAPC   C15 4297   3.609   2.199   6.099
   58SAPC  H15A 4298   3.601   2.228   5.996
   58SAPC  H15B 4299   3.607   2.290   6.157
   58SAPC  H15C 4300   3.706   2.154   6.113
   58SAPC   C11 4301   3.399   1.982   6.351
   58SAPC  H11A 4302   3.303   2.038   6.347
   58SAPC  H11B 4303   3.426   1.972   6.459
   58SAPC     P 4304   3.332   1.730   6.374
   58SAPC   O13 4305   3.441   1.686   6.464
   58SAPC   O14 4306   3.202   1.763   6.438
   58SAPC   O12 4307   3.383   1.855   6.289
   58SAPC   O11 4308   3.304   1.621   6.262
   58SAPC    C1 4309   3.228   1.657   6.147
   58SAPC    HA 4310   3.120   1.653   6.171
   58SAPC    HB 4311   3.249   1.760   6.110
   58SAPC    C2 4312   3.256   1.561   6.027
   58SAPC    HS 4313   3.267   1.457   6.065
   58SAPC   O21 4314   3.372   1.609   5.958
   58SAPC   C21 4315   3.485   1.547   5.988
   58SAPC   O22 4316   3.496   1.450   6.062
   58SAPC   C22 4317   3.602   1.613   5.915
   58SAPC   H2R 4318   3.653   1.681   5.987
   58SAPC   H2S 4319   3.672   1.530   5.890
   58SAPC    C3 4320   3.134   1.560   5.930
   58SAPC    HX 4321   3.051   1.507   5.980
   58SAPC    HY 4322   3.157   1.499   5.839
   58SAPC   O31 4323   3.091   1.694   5.899
   58SAPC   C31 4324   3.154   1.749   5.795
   58SAPC   O32 4325   3.223   1.691   5.714
   58SAPC   C32 4326   3.126   1.899   5.795
   58SAPC   H2X 4327   3.112   1.933   5.900
   58SAPC   H2Y 4328   3.030   1.914   5.739
   58SAPC   C23 4329   3.562   1.690   5.787
   58SAPC   H3R 4330   3.504   1.781   5.814
   58SAPC   H3S 4331   3.495   1.628   5.724
   58SAPC   C24 4332   3.682   1.733   5.699
   58SAPC   H4R 4333   3.748   1.801   5.758
   58SAPC   H4S 4334   3.642   1.793   5.615
   58SAPC   C25 4335   3.762   1.615   5.650
   58SAPC   H5R 4336   3.823   1.566   5.727
   58SAPC   C26 4337   3.764   1.563   5.525
   58SAPC   H6R 4338   3.825   1.474   5.506
   58SAPC   C27 4339   3.684   1.613   5.408
   58SAPC   H7R 4340   3.673   1.724   5.414
   58SAPC   H7S 4341   3.580   1.576   5.416
   58SAPC   C28 4342   3.741   1.578   5.273
   58SAPC   H8R 4343   3.850   1.573   5.266
   58SAPC   C29 4344   3.667   1.556   5.163
   58SAPC   H9R 4345   3.718   1.532   5.069
   58SAPC  C210 4346   3.516   1.564   5.159
   58SAPC  H10R 4347   3.480   1.661   5.198
   58SAPC  H10S 4348   3.473   1.488   5.228
   58SAPC  C211 4349   3.460   1.539   5.021
   58SAPC  H11R 4350   3.524   1.479   4.955
   58SAPC  C212 4351   3.341   1.580   4.973
   58SAPC  H12R 4352   3.318   1.550   4.870
   58SAPC  C213 4353   3.232   1.659   5.043
   58SAPC  H13R 4354   3.262   1.766   5.048
   58SAPC  H13S 4355   3.227   1.625   5.148
   58SAPC  C214 4356   3.093   1.649   4.983
   58SAPC  H14R 4357   3.018   1.614   5.055
   58SAPC  C215 4358   3.050   1.674   4.856
   58SAPC  H15R 4359   2.944   1.658   4.833
   58SAPC  C216 4360   3.131   1.719   4.737
   58SAPC  H16R 4361   3.216   1.780   4.776
   58SAPC  H16S 4362   3.073   1.788   4.672
   58SAPC  C217 4363   3.196   1.607   4.653
   58SAPC  H17R 4364   3.212   1.518   4.716
   58SAPC  H17S 4365   3.296   1.643   4.621
   58SAPC  C218 4366   3.125   1.555   4.526
   58SAPC  H18R 4367   3.122   1.444   4.534
   58SAPC  H18S 4368   3.189   1.578   4.438
   58SAPC  C219 4369   2.985   1.605   4.494
   58SAPC  H19R 4370   2.990   1.712   4.465
   58SAPC  H19S 4371   2.919   1.597   4.583
   58SAPC  C220 4372   2.927   1.522   4.380
   58SAPC  H20R 4373   2.931   1.413   4.404
   58SAPC  H20S 4374   2.988   1.536   4.287
   58SAPC  H20T 4375   2.822   1.550   4.359
   58SAPC   C33 4376   3.238   1.980   5.727
   58SAPC   H3X 4377   3.248   1.948   5.621
   58SAPC   H3Y 4378   3.335   1.959   5.778
   58SAPC   C34 4379   3.212   2.131   5.733
   58SAPC   H4X 4380   3.186   2.160   5.837
   58SAPC   H4Y 4381   3.126   2.158   5.667
   58SAPC   C35 4382   3.330   2.215   5.684
   58SAPC   H5X 4383   3.423   2.179   5.733
   58SAPC   H5Y 4384   3.314   2.320   5.716
   58SAPC   C36 4385   3.346   2.212   5.531
   58SAPC   H6X 4386   3.280   2.289   5.487
   58SAPC   H6Y 4387   3.312   2.114   5.490
   58SAPC   C37 4388   3.491   2.236   5.487
   58SAPC   H7X 4389   3.535   2.317   5.548
   58SAPC   H7Y 4390   3.491   2.271   5.381
   58SAPC   C38 4391   3.580   2.111   5.498
   58SAPC   H8X 4392   3.576   2.072   5.602
   58SAPC   H8Y 4393   3.685   2.142   5.478
   58SAPC   C39 4394   3.543   1.998   5.401
   58SAPC   H9X 4395   3.442   1.957   5.421
   58SAPC   H9Y 4396   3.616   1.916   5.419
   58SAPC  C310 4397   3.553   2.039   5.253
   58SAPC  H10X 4398   3.651   2.090   5.241
   58SAPC  H10Y 4399   3.473   2.112   5.227
   58SAPC  C311 4400   3.550   1.922   5.155
   58SAPC  H11X 4401   3.447   1.880   5.147
   58SAPC  H11Y 4402   3.615   1.842   5.196
   58SAPC  C312 4403   3.604   1.958   5.015
   58SAPC  H12X 4404   3.646   1.867   4.968
   58SAPC  H12Y 4405   3.689   2.029   5.028
   58SAPC  C313 4406   3.500   2.020   4.921
   58SAPC  H13X 4407   3.549   2.094   4.854
   58SAPC  H13Y 4408   3.425   2.074   4.981
   58SAPC  C314 4409   3.431   1.914   4.834
   58SAPC  H14X 4410   3.336   1.955   4.795
   58SAPC  H14Y 4411   3.407   1.828   4.900
   58SAPC  C315 4412   3.516   1.863   4.716
   58SAPC  H15X 4413   3.487   1.758   4.693
   58SAPC  H15Y 4414   3.623   1.862   4.744
   58SAPC  C316 4415   3.496   1.948   4.590
   58SAPC  H16X 4416   3.512   2.054   4.617
   58SAPC  H16Y 4417   3.391   1.938   4.555
   58SAPC  C317 4418   3.591   1.911   4.475
   58SAPC  H17X 4419   3.696   1.914   4.514
   58SAPC  H17Y 4420   3.583   1.989   4.396
   58SAPC  C318 4421   3.566   1.774   4.412
   58SAPC  H18X 4422   3.461   1.767   4.376
   58SAPC  H18Y 4423   3.584   1.694   4.486
   58SAPC  H18Z 4424   3.634   1.758   4.326
   59SAPC     N 4425   1.611   4.175   6.465
   59SAPC   C12 4426   1.461   4.153   6.465
   59SAPC  H12A 4427   1.416   4.211   6.544
   59SAPC  H12B 4428   1.441   4.049   6.484
   59SAPC   C13 4429   1.676   4.090   6.360
   59SAPC  H13A 4430   1.784   4.098   6.360
   59SAPC  H13B 4431   1.646   3.987   6.368
   59SAPC  H13C 4432   1.641   4.123   6.263
   59SAPC   C14 4433   1.640   4.319   6.432
   59SAPC  H14A 4434   1.591   4.388   6.498
   59SAPC  H14B 4435   1.746   4.339   6.431
   59SAPC  H14C 4436   1.603   4.340   6.333
   59SAPC   C15 4437   1.667   4.136   6.598
   59SAPC  H15A 4438   1.650   4.030   6.614
   59SAPC  H15B 4439   1.774   4.155   6.599
   59SAPC  H15C 4440   1.621   4.191   6.678
   59SAPC   C11 4441   1.386   4.187   6.335
   59SAPC  H11A 4442   1.409   4.290   6.302
   59SAPC  H11B 4443   1.277   4.186   6.358
   59SAPC     P 4444   1.456   4.129   6.090
   59SAPC   O13 4445   1.579   4.212   6.103
   59SAPC   O14 4446   1.462   4.010   6.005
   59SAPC   O12 4447   1.413   4.087   6.237
   59SAPC   O11 4448   1.331   4.218   6.049
   59SAPC    C1 4449   1.203   4.158   6.069
   59SAPC    HA 4450   1.201   4.051   6.038
   59SAPC    HB 4451   1.174   4.160   6.176
   59SAPC    C2 4452   1.092   4.235   5.993
   59SAPC    HS 4453   0.997   4.181   6.014
   59SAPC   O21 4454   1.120   4.234   5.851
   59SAPC   C21 4455   1.108   4.115   5.794
   59SAPC   O22 4456   1.060   4.016   5.846
   59SAPC   C22 4457   1.136   4.125   5.643
   59SAPC   H2R 4458   1.064   4.198   5.600
   59SAPC   H2S 4459   1.238   4.165   5.630
   59SAPC    C3 4460   1.074   4.380   6.053
   59SAPC    HX 4461   1.130   4.383   6.149
   59SAPC    HY 4462   0.968   4.394   6.081
   59SAPC   O31 4463   1.120   4.489   5.972
   59SAPC   C31 4464   1.037   4.522   5.874
   59SAPC   O32 4465   0.932   4.463   5.851
   59SAPC   C32 4466   1.093   4.640   5.793
   59SAPC   H2X 4467   1.150   4.704   5.863
   59SAPC   H2Y 4468   1.008   4.699   5.753
   59SAPC   C23 4469   1.120   3.986   5.575
   59SAPC   H3R 4470   1.017   3.947   5.590
   59SAPC   H3S 4471   1.189   3.915   5.625
   59SAPC   C24 4472   1.152   3.980   5.424
   59SAPC   H4R 4473   1.151   3.873   5.395
   59SAPC   H4S 4474   1.257   4.012   5.406
   59SAPC   C25 4475   1.066   4.063   5.332
   59SAPC   H5R 4476   1.058   4.169   5.360
   59SAPC   C26 4477   1.008   4.020   5.218
   59SAPC   H6R 4478   0.951   4.091   5.157
   59SAPC   C27 4479   1.017   3.880   5.161
   59SAPC   H7R 4480   0.920   3.858   5.110
   59SAPC   H7S 4481   1.021   3.807   5.245
   59SAPC   C28 4482   1.132   3.847   5.069
   59SAPC   H8R 4483   1.218   3.797   5.116
   59SAPC   C29 4484   1.136   3.876   4.938
   59SAPC   H9R 4485   1.224   3.848   4.877
   59SAPC  C210 4486   1.024   3.946   4.868
   59SAPC  H10R 4487   0.998   4.036   4.928
   59SAPC  H10S 4488   0.935   3.880   4.872
   59SAPC  C211 4489   1.046   3.986   4.724
   59SAPC  H11R 4490   1.087   3.907   4.659
   59SAPC  C212 4491   1.019   4.107   4.670
   59SAPC  H12R 4492   1.045   4.123   4.564
   59SAPC  C213 4493   0.963   4.227   4.742
   59SAPC  H13R 4494   0.989   4.222   4.850
   59SAPC  H13S 4495   0.852   4.220   4.739
   59SAPC  C214 4496   1.001   4.366   4.696
   59SAPC  H14R 4497   1.047   4.428   4.774
   59SAPC  C215 4498   0.983   4.422   4.574
   59SAPC  H15R 4499   1.013   4.527   4.561
   59SAPC  C216 4500   0.922   4.359   4.452
   59SAPC  H16R 4501   0.932   4.248   4.452
   59SAPC  H16S 4502   0.975   4.394   4.361
   59SAPC  C217 4503   0.772   4.389   4.435
   59SAPC  H17R 4504   0.749   4.497   4.443
   59SAPC  H17S 4505   0.718   4.345   4.522
   59SAPC  C218 4506   0.717   4.337   4.302
   59SAPC  H18R 4507   0.607   4.319   4.312
   59SAPC  H18S 4508   0.765   4.240   4.278
   59SAPC  C219 4509   0.738   4.438   4.189
   59SAPC  H19R 4510   0.846   4.465   4.184
   59SAPC  H19S 4511   0.681   4.529   4.215
   59SAPC  C220 4512   0.691   4.391   4.052
   59SAPC  H20R 4513   0.702   4.472   3.976
   59SAPC  H20S 4514   0.584   4.362   4.058
   59SAPC  H20T 4515   0.750   4.303   4.018
   59SAPC   C33 4516   1.186   4.594   5.678
   59SAPC   H3X 4517   1.232   4.684   5.631
   59SAPC   H3Y 4518   1.131   4.538   5.601
   59SAPC   C34 4519   1.296   4.509   5.740
   59SAPC   H4X 4520   1.252   4.421   5.790
   59SAPC   H4Y 4521   1.346   4.570   5.819
   59SAPC   C35 4522   1.402   4.449   5.649
   59SAPC   H5X 4523   1.459   4.531   5.600
   59SAPC   H5Y 4524   1.356   4.385   5.571
   59SAPC   C36 4525   1.494   4.371   5.744
   59SAPC   H6X 4526   1.462   4.394   5.848
   59SAPC   H6Y 4527   1.596   4.415   5.737
   59SAPC   C37 4528   1.498   4.217   5.743
   59SAPC   H7X 4529   1.398   4.176   5.768
   59SAPC   H7Y 4530   1.564   4.190   5.828
   59SAPC   C38 4531   1.560   4.145   5.623
   59SAPC   H8X 4532   1.595   4.046   5.659
   59SAPC   H8Y 4533   1.651   4.196   5.587
   59SAPC   C39 4534   1.465   4.121   5.507
   59SAPC   H9X 4535   1.402   4.210   5.485
   59SAPC   H9Y 4536   1.400   4.038   5.541
   59SAPC  C310 4537   1.539   4.080   5.380
   59SAPC  H10X 4538   1.496   3.985   5.341
   59SAPC  H10Y 4539   1.645   4.061   5.409
   59SAPC  C311 4540   1.544   4.185   5.268
   59SAPC  H11X 4541   1.616   4.149   5.191
   59SAPC  H11Y 4542   1.585   4.280   5.310
   59SAPC  C312 4543   1.411   4.212   5.197
   59SAPC  H12X 4544   1.422   4.301   5.131
   59SAPC  H12Y 4545   1.335   4.237   5.274
   59SAPC  C313 4546   1.363   4.093   5.113
   59SAPC  H13X 4547   1.252   4.100   5.104
   59SAPC  H13Y 4548   1.385   3.997   5.165
   59SAPC  C314 4549   1.420   4.088   4.970
   59SAPC  H14X 4550   1.399   3.986   4.930
   59SAPC  H14Y 4551   1.530   4.100   4.971
   59SAPC  C315 4552   1.353   4.191   4.879
   59SAPC  H15X 4553   1.407   4.288   4.884
   59SAPC  H15Y 4554   1.250   4.209   4.918
   59SAPC  C316 4555   1.334   4.146   4.733
   59SAPC  H16X 4556   1.255   4.210   4.688
   59SAPC  H16Y 4557   1.302   4.040   4.730
   59SAPC  C317 4558   1.456   4.164   4.644
   59SAPC  H17X 4559   1.535   4.097   4.683
   59SAPC  H17Y 4560   1.488   4.270   4.652
   59SAPC  C318 4561   1.432   4.131   4.496
   59SAPC  H18X 4562   1.349   4.193   4.455
   59SAPC  H18Y 4563   1.406   4.024   4.486
   59SAPC  H18Z 4564   1.524   4.151   4.437
   60SAPC     N 4565   0.959   4.838   6.483
   60SAPC   C12 4566   0.846   4.788   6.393
   60SAPC  H12A 4567   0.761   4.764   6.454
   60SAPC  H12B 4568   0.878   4.698   6.344
   60SAPC   C13 4569   0.960   4.988   6.486
   60SAPC  H13A 4570   0.980   5.025   6.386
   60SAPC  H13B 4571   0.865   5.029   6.515
   60SAPC  H13C 4572   1.036   5.027   6.553
   60SAPC   C14 4573   0.941   4.787   6.622
   60SAPC  H14A 4574   0.935   4.679   6.624
   60SAPC  H14B 4575   1.023   4.819   6.684
   60SAPC  H14C 4576   0.852   4.829   6.667
   60SAPC   C15 4577   1.092   4.793   6.429
   60SAPC  H15A 4578   1.174   4.825   6.491
   60SAPC  H15B 4579   1.097   4.686   6.414
   60SAPC  H15C 4580   1.110   4.835   6.331
   60SAPC   C11 4581   0.794   4.880   6.278
   60SAPC  H11A 4582   0.747   4.970   6.323
   60SAPC  H11B 4583   0.714   4.828   6.222
   60SAPC     P 4584   0.973   4.804   6.108
   60SAPC   O13 4585   1.117   4.821   6.134
   60SAPC   O14 4586   0.912   4.673   6.143
   60SAPC   O12 4587   0.898   4.920   6.189
   60SAPC   O11 4588   0.941   4.840   5.959
   60SAPC    C1 4589   0.981   4.965   5.903
   60SAPC    HA 4590   1.032   5.033   5.974
   60SAPC    HB 4591   1.054   4.943   5.822
   60SAPC    C2 4592   0.861   5.042   5.839
   60SAPC    HS 4593   0.810   5.100   5.919
   60SAPC   O21 4594   0.770   4.949   5.778
   60SAPC   C21 4595   0.682   4.893   5.857
   60SAPC   O22 4596   0.646   4.932   5.967
   60SAPC   C22 4597   0.624   4.771   5.786
   60SAPC   H2R 4598   0.579   4.706   5.865
   60SAPC   H2S 4599   0.544   4.809   5.719
   60SAPC    C3 4600   0.910   5.141   5.731
   60SAPC    HX 4601   0.968   5.221   5.782
   60SAPC    HY 4602   0.823   5.190   5.682
   60SAPC   O31 4603   0.993   5.080   5.632
   60SAPC   C31 4604   0.931   5.023   5.529
   60SAPC   O32 4605   0.812   5.025   5.506
   60SAPC   C32 4606   1.033   4.956   5.438
   60SAPC   H2X 4607   1.032   5.011   5.342
   60SAPC   H2Y 4608   0.998   4.852   5.420
   60SAPC   C23 4609   0.729   4.690   5.707
   60SAPC   H3R 4610   0.798   4.650   5.784
   60SAPC   H3S 4611   0.788   4.755   5.640
   60SAPC   C24 4612   0.669   4.576   5.621
   60SAPC   H4R 4613   0.641   4.616   5.521
   60SAPC   H4S 4614   0.577   4.538   5.670
   60SAPC   C25 4615   0.770   4.465   5.612
   60SAPC   H5R 4616   0.765   4.397   5.698
   60SAPC   C26 4617   0.868   4.445   5.523
   60SAPC   H6R 4618   0.938   4.362   5.542
   60SAPC   C27 4619   0.903   4.530   5.403
   60SAPC   H7R 4620   0.961   4.618   5.438
   60SAPC   H7S 4621   0.811   4.570   5.356
   60SAPC   C28 4622   0.981   4.447   5.304
   60SAPC   H8R 4623   0.955   4.340   5.300
   60SAPC   C29 4624   1.079   4.488   5.222
   60SAPC   H9R 4625   1.127   4.415   5.155
   60SAPC  C210 4626   1.132   4.627   5.213
   60SAPC  H10R 4627   1.235   4.630   5.255
   60SAPC  H10S 4628   1.072   4.698   5.275
   60SAPC  C211 4629   1.136   4.677   5.071
   60SAPC  H11R 4630   1.234   4.667   5.023
   60SAPC  C212 4631   1.035   4.733   5.002
   60SAPC  H12R 4632   1.056   4.768   4.900
   60SAPC  C213 4633   0.895   4.760   5.050
   60SAPC  H13R 4634   0.882   4.734   5.157
   60SAPC  H13S 4635   0.827   4.692   4.993
   60SAPC  C214 4636   0.852   4.902   5.027
   60SAPC  H14R 4637   0.845   4.965   5.117
   60SAPC  C215 4638   0.821   4.957   4.908
   60SAPC  H15R 4639   0.792   5.063   4.903
   60SAPC  C216 4640   0.823   4.889   4.774
   60SAPC  H16R 4641   0.885   4.797   4.775
   60SAPC  H16S 4642   0.869   4.958   4.700
   60SAPC  C217 4643   0.685   4.848   4.720
   60SAPC  H17R 4644   0.609   4.926   4.743
   60SAPC  H17S 4645   0.652   4.754   4.771
   60SAPC  C218 4646   0.687   4.827   4.568
   60SAPC  H18R 4647   0.681   4.928   4.522
   60SAPC  H18S 4648   0.595   4.773   4.537
   60SAPC  C219 4649   0.811   4.752   4.517
   60SAPC  H19R 4650   0.815   4.655   4.571
   60SAPC  H19S 4651   0.904   4.808   4.542
   60SAPC  C220 4652   0.812   4.726   4.366
   60SAPC  H20R 4653   0.837   4.817   4.307
   60SAPC  H20S 4654   0.712   4.692   4.334
   60SAPC  H20T 4655   0.888   4.648   4.340
   60SAPC   C33 4656   1.176   4.955   5.498
   60SAPC   H3X 4657   1.173   4.911   5.600
   60SAPC   H3Y 4658   1.212   5.060   5.509
   60SAPC   C34 4659   1.277   4.876   5.415
   60SAPC   H4X 4660   1.251   4.768   5.423
   60SAPC   H4Y 4661   1.378   4.888   5.460
   60SAPC   C35 4662   1.281   4.916   5.267
   60SAPC   H5X 4663   1.182   4.895   5.220
   60SAPC   H5Y 4664   1.357   4.853   5.215
   60SAPC   C36 4665   1.312   5.064   5.245
   60SAPC   H6X 4666   1.404   5.090   5.301
   60SAPC   H6Y 4667   1.229   5.124   5.286
   60SAPC   C37 4668   1.332   5.098   5.097
   60SAPC   H7X 4669   1.407   5.029   5.053
   60SAPC   H7Y 4670   1.374   5.201   5.090
   60SAPC   C38 4671   1.203   5.094   5.014
   60SAPC   H8X 4672   1.126   5.157   5.064
   60SAPC   H8Y 4673   1.163   4.990   5.008
   60SAPC   C39 4674   1.227   5.149   4.873
   60SAPC   H9X 4675   1.300   5.084   4.819
   60SAPC   H9Y 4676   1.275   5.248   4.884
   60SAPC  C310 4677   1.101   5.166   4.787
   60SAPC  H10X 4678   1.015   5.194   4.851
   60SAPC  H10Y 4679   1.077   5.070   4.736
   60SAPC  C311 4680   1.125   5.278   4.685
   60SAPC  H11X 4681   1.221   5.257   4.632
   60SAPC  H11Y 4682   1.138   5.372   4.743
   60SAPC  C312 4683   1.017   5.302   4.579
   60SAPC  H12X 4684   1.049   5.386   4.513
   60SAPC  H12Y 4685   0.924   5.334   4.630
   60SAPC  C313 4686   0.992   5.178   4.493
   60SAPC  H13X 4687   0.935   5.106   4.556
   60SAPC  H13Y 4688   1.090   5.130   4.471
   60SAPC  C314 4689   0.916   5.201   4.361
   60SAPC  H14X 4690   0.983   5.240   4.282
   60SAPC  H14Y 4691   0.841   5.282   4.377
   60SAPC  C315 4692   0.846   5.071   4.319
   60SAPC  H15X 4693   0.816   5.018   4.411
   60SAPC  H15Y 4694   0.916   5.002   4.266
   60SAPC  C316 4695   0.722   5.085   4.230
   60SAPC  H16X 4696   0.752   5.042   4.132
   60SAPC  H16Y 4697   0.696   5.192   4.219
   60SAPC  C317 4698   0.598   5.006   4.275
   60SAPC  H17X 4699   0.560   5.047   4.371
   60SAPC  H17Y 4700   0.625   4.900   4.293
   60SAPC  C318 4701   0.486   5.011   4.171
   60SAPC  H18X 4702   0.397   4.955   4.206
   60SAPC  H18Y 4703   0.521   4.963   4.077
   60SAPC  H18Z 4704   0.456   5.115   4.149
   61SAPC     N 4705   6.445   4.483   6.198
   61SAPC   C12 4706   6.469   4.627   6.154
   61SAPC  H12A 4707   6.423   4.695   6.224
   61SAPC  H12B 4708   6.421   4.645   6.059
   61SAPC   C13 4709   6.297   4.459   6.204
   61SAPC  H13A 4710   6.250   4.484   6.109
   61SAPC  H13B 4711   6.273   4.357   6.227
   61SAPC  H13C 4712   6.252   4.523   6.279
   61SAPC   C14 4713   6.513   4.389   6.102
   61SAPC  H14A 4714   6.488   4.412   6.000
   61SAPC  H14B 4715   6.620   4.397   6.110
   61SAPC  H14C 4716   6.488   4.285   6.118
   61SAPC   C15 4717   6.506   4.468   6.333
   61SAPC  H15A 4718   6.611   4.493   6.325
   61SAPC  H15B 4719   6.466   4.543   6.400
   61SAPC  H15C 4720   6.494   4.370   6.377
   61SAPC   C11 4721   6.616   4.672   6.143
   61SAPC  H11A 4722   6.621   4.770   6.091
   61SAPC  H11B 4723   6.670   4.599   6.078
   61SAPC     P 4724   6.650   4.792   6.371
   61SAPC   O13 4725   6.528   4.751   6.444
   61SAPC   O14 4726   6.768   4.817   6.457
   61SAPC   O12 4727   6.683   4.676   6.269
   61SAPC   O11 4728   6.617   4.916   6.281
   61SAPC    C1 4729   6.681   5.044   6.299
   61SAPC    HA 4730   6.617   5.106   6.365
   61SAPC    HB 4731   6.782   5.034   6.344
   61SAPC    C2 4732   6.702   5.124   6.167
   61SAPC    HS 4733   6.705   5.232   6.192
   61SAPC   O21 4734   6.593   5.097   6.079
   61SAPC   C21 4735   6.599   5.166   5.966
   61SAPC   O22 4736   6.670   5.263   5.945
   61SAPC   C22 4737   6.514   5.090   5.865
   61SAPC   H2R 4738   6.501   4.987   5.903
   61SAPC   H2S 4739   6.414   5.139   5.859
   61SAPC    C3 4740   6.838   5.086   6.101
   61SAPC    HX 4741   6.923   5.121   6.164
   61SAPC    HY 4742   6.857   5.142   6.006
   61SAPC   O31 4743   6.849   4.943   6.088
   61SAPC   C31 4744   6.847   4.899   5.964
   61SAPC   O32 4745   6.829   4.966   5.865
   61SAPC   C32 4746   6.874   4.749   5.963
   61SAPC   H2X 4747   6.859   4.710   6.065
   61SAPC   H2Y 4748   6.981   4.734   5.936
   61SAPC   C23 4749   6.580   5.083   5.725
   61SAPC   H3R 4750   6.690   5.100   5.730
   61SAPC   H3S 4751   6.539   5.164   5.662
   61SAPC   C24 4752   6.554   4.944   5.667
   61SAPC   H4R 4753   6.447   4.921   5.687
   61SAPC   H4S 4754   6.612   4.872   5.729
   61SAPC   C25 4755   6.580   4.914   5.522
   61SAPC   H5R 4756   6.539   4.816   5.495
   61SAPC   C26 4757   6.647   4.978   5.425
   61SAPC   H6R 4758   6.643   4.931   5.326
   61SAPC   C27 4759   6.724   5.108   5.422
   61SAPC   H7R 4760   6.829   5.089   5.454
   61SAPC   H7S 4761   6.684   5.180   5.496
   61SAPC   C28 4762   6.721   5.166   5.283
   61SAPC   H8R 4763   6.678   5.268   5.280
   61SAPC   C29 4764   6.767   5.114   5.166
   61SAPC   H9R 4765   6.753   5.175   5.076
   61SAPC  C210 4766   6.837   4.981   5.138
   61SAPC  H10R 4767   6.820   4.910   5.222
   61SAPC  H10S 4768   6.946   5.000   5.135
   61SAPC  C211 4769   6.798   4.914   5.009
   61SAPC  H11R 4770   6.691   4.934   4.989
   61SAPC  C212 4771   6.863   4.838   4.916
   61SAPC  H12R 4772   6.799   4.802   4.834
   61SAPC  C213 4773   7.005   4.786   4.899
   61SAPC  H13R 4774   7.059   4.835   4.983
   61SAPC  H13S 4775   7.055   4.827   4.808
   61SAPC  C214 4776   7.024   4.635   4.913
   61SAPC  H14R 4777   7.002   4.615   5.018
   61SAPC  C215 4778   7.058   4.518   4.845
   61SAPC  H15R 4779   7.044   4.434   4.914
   61SAPC  C216 4780   7.104   4.452   4.713
   61SAPC  H16R 4781   7.103   4.344   4.738
   61SAPC  H16S 4782   7.212   4.479   4.703
   61SAPC  C217 4783   7.058   4.434   4.562
   61SAPC  H17R 4784   7.154   4.426   4.506
   61SAPC  H17S 4785   7.010   4.527   4.524
   61SAPC  C218 4786   6.975   4.316   4.506
   61SAPC  H18R 4787   6.906   4.274   4.583
   61SAPC  H18S 4788   7.046   4.234   4.482
   61SAPC  C219 4789   6.897   4.352   4.375
   61SAPC  H19R 4790   6.926   4.277   4.298
   61SAPC  H19S 4791   6.932   4.450   4.335
   61SAPC  C220 4792   6.743   4.359   4.377
   61SAPC  H20R 4793   6.700   4.305   4.464
   61SAPC  H20S 4794   6.700   4.314   4.285
   61SAPC  H20T 4795   6.706   4.464   4.382
   61SAPC   C33 4796   6.783   4.680   5.860
   61SAPC   H3X 4797   6.679   4.717   5.868
   61SAPC   H3Y 4798   6.780   4.571   5.881
   61SAPC   C34 4799   6.833   4.700   5.717
   61SAPC   H4X 4800   6.938   4.667   5.708
   61SAPC   H4Y 4801   6.831   4.808   5.690
   61SAPC   C35 4802   6.747   4.625   5.616
   61SAPC   H5X 4803   6.641   4.659   5.623
   61SAPC   H5Y 4804   6.748   4.516   5.638
   61SAPC   C36 4805   6.801   4.647   5.476
   61SAPC   H6X 4806   6.911   4.634   5.478
   61SAPC   H6Y 4807   6.780   4.752   5.444
   61SAPC   C37 4808   6.742   4.550   5.377
   61SAPC   H7X 4809   6.753   4.448   5.418
   61SAPC   H7Y 4810   6.803   4.559   5.284
   61SAPC   C38 4811   6.594   4.572   5.342
   61SAPC   H8X 4812   6.532   4.594   5.432
   61SAPC   H8Y 4813   6.557   4.477   5.299
   61SAPC   C39 4814   6.572   4.674   5.231
   61SAPC   H9X 4815   6.670   4.689   5.180
   61SAPC   H9Y 4816   6.541   4.772   5.273
   61SAPC  C310 4817   6.469   4.630   5.126
   61SAPC  H10X 4818   6.366   4.633   5.168
   61SAPC  H10Y 4819   6.488   4.526   5.094
   61SAPC  C311 4820   6.483   4.726   5.008
   61SAPC  H11X 4821   6.592   4.745   4.999
   61SAPC  H11Y 4822   6.435   4.822   5.034
   61SAPC  C312 4823   6.443   4.680   4.867
   61SAPC  H12X 4824   6.334   4.698   4.851
   61SAPC  H12Y 4825   6.463   4.571   4.855
   61SAPC  C313 4826   6.527   4.755   4.762
   61SAPC  H13X 4827   6.495   4.729   4.659
   61SAPC  H13Y 4828   6.632   4.722   4.777
   61SAPC  C314 4829   6.519   4.906   4.782
   61SAPC  H14X 4830   6.533   4.930   4.890
   61SAPC  H14Y 4831   6.414   4.932   4.758
   61SAPC  C315 4832   6.613   5.005   4.712
   61SAPC  H15X 4833   6.581   5.018   4.606
   61SAPC  H15Y 4834   6.718   4.970   4.716
   61SAPC  C316 4835   6.610   5.140   4.786
   61SAPC  H16X 4836   6.686   5.145   4.867
   61SAPC  H16Y 4837   6.511   5.147   4.837
   61SAPC  C317 4838   6.612   5.265   4.699
   61SAPC  H17X 4839   6.547   5.335   4.756
   61SAPC  H17Y 4840   6.563   5.243   4.602
   61SAPC  C318 4841   6.746   5.335   4.682
   61SAPC  H18X 4842   6.827   5.264   4.656
   61SAPC  H18Y 4843   6.768   5.390   4.776
   61SAPC  H18Z 4844   6.746   5.415   4.605
   62SAPC     N 4845   0.861   2.733   6.375
   62SAPC   C12 4846   0.762   2.850   6.379
   62SAPC  H12A 4847   0.809   2.936   6.424
   62SAPC  H12B 4848   0.679   2.825   6.444
   62SAPC   C13 4849   0.928   2.722   6.508
   62SAPC  H13A 4850   0.983   2.813   6.529
   62SAPC  H13B 4851   0.855   2.712   6.586
   62SAPC  H13C 4852   0.995   2.638   6.511
   62SAPC   C14 4853   0.788   2.606   6.340
   62SAPC  H14A 4854   0.853   2.520   6.332
   62SAPC  H14B 4855   0.708   2.585   6.409
   62SAPC  H14C 4856   0.738   2.621   6.246
   62SAPC   C15 4857   0.960   2.760   6.266
   62SAPC  H15A 4858   0.907   2.775   6.173
   62SAPC  H15B 4859   1.016   2.851   6.285
   62SAPC  H15C 4860   1.029   2.679   6.250
   62SAPC   C11 4861   0.697   2.892   6.246
   62SAPC  H11A 4862   0.773   2.923   6.172
   62SAPC  H11B 4863   0.631   2.980   6.262
   62SAPC     P 4864   0.481   2.748   6.250
   62SAPC   O13 4865   0.460   2.603   6.232
   62SAPC   O14 4866   0.471   2.801   6.388
   62SAPC   O12 4867   0.624   2.782   6.194
   62SAPC   O11 4868   0.392   2.835   6.153
   62SAPC    C1 4869   0.355   2.792   6.023
   62SAPC    HA 4870   0.307   2.692   6.026
   62SAPC    HB 4871   0.275   2.862   5.989
   62SAPC    C2 4872   0.470   2.795   5.916
   62SAPC    HS 4873   0.423   2.778   5.817
   62SAPC   O21 4874   0.563   2.690   5.943
   62SAPC   C21 4875   0.518   2.567   5.925
   62SAPC   O22 4876   0.415   2.535   5.868
   62SAPC   C22 4877   0.620   2.471   5.984
   62SAPC   H2R 4878   0.677   2.523   6.064
   62SAPC   H2S 4879   0.562   2.388   6.030
   62SAPC    C3 4880   0.546   2.933   5.911
   62SAPC    HX 4881   0.593   2.945   6.011
   62SAPC    HY 4882   0.470   3.014   5.904
   62SAPC   O31 4883   0.650   2.951   5.809
   62SAPC   C31 4884   0.601   2.963   5.685
   62SAPC   O32 4885   0.487   2.938   5.654
   62SAPC   C32 4886   0.700   3.023   5.584
   62SAPC   H2X 4887   0.760   2.940   5.540
   62SAPC   H2Y 4888   0.766   3.096   5.635
   62SAPC   C23 4889   0.715   2.413   5.877
   62SAPC   H3R 4890   0.654   2.366   5.797
   62SAPC   H3S 4891   0.774   2.332   5.925
   62SAPC   C24 4892   0.818   2.513   5.817
   62SAPC   H4R 4893   0.882   2.455   5.748
   62SAPC   H4S 4894   0.883   2.547   5.900
   62SAPC   C25 4895   0.761   2.634   5.746
   62SAPC   H5R 4896   0.748   2.722   5.811
   62SAPC   C26 4897   0.729   2.645   5.616
   62SAPC   H6R 4898   0.681   2.737   5.580
   62SAPC   C27 4899   0.742   2.540   5.511
   62SAPC   H7R 4900   0.846   2.502   5.510
   62SAPC   H7S 4901   0.724   2.584   5.411
   62SAPC   C28 4902   0.647   2.426   5.536
   62SAPC   H8R 4903   0.688   2.344   5.597
   62SAPC   C29 4904   0.522   2.412   5.489
   62SAPC   H9R 4905   0.464   2.323   5.518
   62SAPC  C210 4906   0.449   2.508   5.401
   62SAPC  H10R 4907   0.363   2.457   5.352
   62SAPC  H10S 4908   0.515   2.540   5.318
   62SAPC  C211 4909   0.400   2.626   5.481
   62SAPC  H11R 4910   0.369   2.606   5.585
   62SAPC  C212 4911   0.393   2.752   5.434
   62SAPC  H12R 4912   0.352   2.831   5.498
   62SAPC  C213 4913   0.432   2.795   5.295
   62SAPC  H13R 4914   0.532   2.754   5.268
   62SAPC  H13S 4915   0.439   2.905   5.289
   62SAPC  C214 4916   0.326   2.747   5.200
   62SAPC  H14R 4917   0.223   2.762   5.237
   62SAPC  C215 4918   0.344   2.686   5.083
   62SAPC  H15R 4919   0.256   2.657   5.022
   62SAPC  C216 4920   0.475   2.651   5.021
   62SAPC  H16R 4921   0.463   2.556   4.965
   62SAPC  H16S 4922   0.554   2.634   5.096
   62SAPC  C217 4923   0.516   2.767   4.929
   62SAPC  H17R 4924   0.610   2.735   4.879
   62SAPC  H17S 4925   0.538   2.858   4.988
   62SAPC  C218 4926   0.418   2.801   4.817
   62SAPC  H18R 4927   0.330   2.857   4.855
   62SAPC  H18S 4928   0.380   2.705   4.776
   62SAPC  C219 4929   0.489   2.879   4.706
   62SAPC  H19R 4930   0.598   2.859   4.713
   62SAPC  H19S 4931   0.479   2.989   4.723
   62SAPC  C220 4932   0.442   2.838   4.568
   62SAPC  H20R 4933   0.375   2.911   4.518
   62SAPC  H20S 4934   0.386   2.742   4.571
   62SAPC  H20T 4935   0.529   2.824   4.500
   62SAPC   C33 4936   0.613   3.091   5.474
   62SAPC   H3X 4937   0.553   3.169   5.525
   62SAPC   H3Y 4938   0.542   3.017   5.432
   62SAPC   C34 4939   0.681   3.159   5.355
   62SAPC   H4X 4940   0.728   3.253   5.390
   62SAPC   H4Y 4941   0.604   3.186   5.280
   62SAPC   C35 4942   0.787   3.075   5.285
   62SAPC   H5X 4943   0.862   3.051   5.364
   62SAPC   H5Y 4944   0.836   3.136   5.206
   62SAPC   C36 4945   0.746   2.943   5.221
   62SAPC   H6X 4946   0.669   2.961   5.143
   62SAPC   H6Y 4947   0.704   2.875   5.298
   62SAPC   C37 4948   0.869   2.876   5.156
   62SAPC   H7X 4949   0.945   2.853   5.233
   62SAPC   H7Y 4950   0.913   2.947   5.083
   62SAPC   C38 4951   0.835   2.747   5.082
   62SAPC   H8X 4952   0.740   2.764   5.027
   62SAPC   H8Y 4953   0.817   2.666   5.156
   62SAPC   C39 4954   0.941   2.703   4.980
   62SAPC   H9X 4955   0.931   2.593   4.968
   62SAPC   H9Y 4956   1.044   2.723   5.019
   62SAPC  C310 4957   0.924   2.763   4.839
   62SAPC  H10X 4958   0.948   2.872   4.841
   62SAPC  H10Y 4959   0.818   2.754   4.807
   62SAPC  C311 4960   1.014   2.690   4.738
   62SAPC  H11X 4961   0.988   2.582   4.734
   62SAPC  H11Y 4962   1.117   2.699   4.777
   62SAPC  C312 4963   1.014   2.747   4.595
   62SAPC  H12X 4964   1.093   2.697   4.534
   62SAPC  H12Y 4965   1.040   2.854   4.603
   62SAPC  C313 4966   0.883   2.735   4.519
   62SAPC  H13X 4967   0.802   2.762   4.589
   62SAPC  H13Y 4968   0.871   2.630   4.486
   62SAPC  C314 4969   0.873   2.829   4.398
   62SAPC  H14X 4970   0.813   2.779   4.320
   62SAPC  H14Y 4971   0.973   2.851   4.355
   62SAPC  C315 4972   0.801   2.960   4.434
   62SAPC  H15X 4973   0.704   2.935   4.484
   62SAPC  H15Y 4974   0.776   3.014   4.340
   62SAPC  C316 4975   0.878   3.057   4.525
   62SAPC  H16X 4976   0.964   3.096   4.467
   62SAPC  H16Y 4977   0.915   3.007   4.617
   62SAPC  C317 4978   0.785   3.169   4.570
   62SAPC  H17X 4979   0.704   3.125   4.630
   62SAPC  H17Y 4980   0.742   3.210   4.475
   62SAPC  C318 4981   0.846   3.286   4.646
   62SAPC  H18X 4982   0.921   3.252   4.721
   62SAPC  H18Y 4983   0.766   3.344   4.698
   62SAPC  H18Z 4984   0.894   3.356   4.574
   63SAPC     N 4985   2.049   7.118   6.350
   63SAPC   C12 4986   2.044   7.021   6.233
   63SAPC  H12A 4987   2.106   7.062   6.154
   63SAPC  H12B 4988   1.943   7.017   6.195
   63SAPC   C13 4989   2.193   7.141   6.388
   63SAPC  H13A 4990   2.238   7.048   6.418
   63SAPC  H13B 4991   2.251   7.171   6.302
   63SAPC  H13C 4992   2.205   7.214   6.467
   63SAPC   C14 4993   1.989   7.249   6.311
   63SAPC  H14A 4994   2.040   7.290   6.225
   63SAPC  H14B 4995   1.884   7.241   6.289
   63SAPC  H14C 4996   2.000   7.322   6.390
   63SAPC   C15 4997   1.980   7.063   6.471
   63SAPC  H15A 4998   2.022   6.967   6.496
   63SAPC  H15B 4999   1.993   7.129   6.555
   63SAPC  H15C 5000   1.874   7.051   6.455
   63SAPC   C11 5001   2.094   6.877   6.255
   63SAPC  H11A 5002   2.066   6.813   6.169
   63SAPC  H11B 5003   2.044   6.832   6.343
   63SAPC     P 5004   2.330   6.917   6.153
   63SAPC   O13 5005   2.325   7.064   6.141
   63SAPC   O14 5006   2.462   6.853   6.172
   63SAPC   O12 5007   2.236   6.874   6.275
   63SAPC   O11 5008   2.253   6.855   6.030
   63SAPC    C1 5009   2.306   6.744   5.959
   63SAPC    HA 5010   2.416   6.752   5.943
   63SAPC    HB 5011   2.288   6.650   6.015
   63SAPC    C2 5012   2.241   6.733   5.818
   63SAPC    HS 5013   2.288   6.647   5.767
   63SAPC   O21 5014   2.258   6.856   5.744
   63SAPC   C21 5015   2.376   6.866   5.685
   63SAPC   O22 5016   2.460   6.778   5.679
   63SAPC   C22 5017   2.393   7.004   5.623
   63SAPC   H2R 5018   2.293   7.051   5.608
   63SAPC   H2S 5019   2.449   7.065   5.697
   63SAPC    C3 5020   2.089   6.702   5.827
   63SAPC    HX 5021   2.040   6.791   5.870
   63SAPC    HY 5022   2.072   6.618   5.898
   63SAPC   O31 5023   2.035   6.674   5.696
   63SAPC   C31 5024   2.068   6.554   5.650
   63SAPC   O32 5025   2.108   6.461   5.718
   63SAPC   C32 5026   2.056   6.552   5.498
   63SAPC   H2X 5027   2.068   6.655   5.459
   63SAPC   H2Y 5028   1.953   6.519   5.472
   63SAPC   C23 5029   2.473   6.996   5.492
   63SAPC   H3R 5030   2.561   6.930   5.505
   63SAPC   H3S 5031   2.515   7.097   5.469
   63SAPC   C24 5032   2.391   6.947   5.371
   63SAPC   H4R 5033   2.346   6.849   5.397
   63SAPC   H4S 5034   2.461   6.928   5.287
   63SAPC   C25 5035   2.288   7.049   5.327
   63SAPC   H5R 5036   2.329   7.140   5.281
   63SAPC   C26 5037   2.155   7.037   5.341
   63SAPC   H6R 5038   2.091   7.115   5.299
   63SAPC   C27 5039   2.085   6.919   5.404
   63SAPC   H7R 5040   2.114   6.911   5.511
   63SAPC   H7S 5041   2.122   6.827   5.356
   63SAPC   C28 5042   1.934   6.921   5.395
   63SAPC   H8R 5043   1.881   6.936   5.491
   63SAPC   C29 5044   1.861   6.904   5.283
   63SAPC   H9R 5045   1.751   6.908   5.289
   63SAPC  C210 5046   1.917   6.880   5.145
   63SAPC  H10R 5047   1.869   6.790   5.101
   63SAPC  H10S 5048   2.025   6.856   5.150
   63SAPC  C211 5049   1.896   6.997   5.052
   63SAPC  H11R 5050   1.824   7.074   5.084
   63SAPC  C212 5051   1.962   7.015   4.936
   63SAPC  H12R 5052   1.942   7.105   4.876
   63SAPC  C213 5053   2.067   6.922   4.880
   63SAPC  H13R 5054   2.050   6.911   4.771
   63SAPC  H13S 5055   2.055   6.819   4.921
   63SAPC  C214 5056   2.206   6.971   4.911
   63SAPC  H14R 5057   2.222   7.002   5.016
   63SAPC  C215 5058   2.310   6.979   4.826
   63SAPC  H15R 5059   2.407   7.016   4.863
   63SAPC  C216 5060   2.311   6.940   4.680
   63SAPC  H16R 5061   2.219   6.886   4.650
   63SAPC  H16S 5062   2.396   6.870   4.664
   63SAPC  C217 5063   2.332   7.056   4.582
   63SAPC  H17R 5064   2.330   7.017   4.478
   63SAPC  H17S 5065   2.435   7.097   4.598
   63SAPC  C218 5066   2.232   7.172   4.596
   63SAPC  H18R 5067   2.271   7.256   4.535
   63SAPC  H18S 5068   2.232   7.207   4.702
   63SAPC  C219 5069   2.087   7.140   4.554
   63SAPC  H19R 5070   2.024   7.227   4.583
   63SAPC  H19S 5071   2.051   7.053   4.613
   63SAPC  C220 5072   2.065   7.111   4.405
   63SAPC  H20R 5073   2.133   7.031   4.370
   63SAPC  H20S 5074   2.084   7.203   4.345
   63SAPC  H20T 5075   1.961   7.080   4.387
   63SAPC   C33 5076   2.159   6.459   5.430
   63SAPC   H3X 5077   2.175   6.369   5.493
   63SAPC   H3Y 5078   2.257   6.512   5.424
   63SAPC   C34 5079   2.117   6.408   5.292
   63SAPC   H4X 5080   2.020   6.356   5.305
   63SAPC   H4Y 5081   2.190   6.331   5.257
   63SAPC   C35 5082   2.103   6.515   5.182
   63SAPC   H5X 5083   2.203   6.553   5.151
   63SAPC   H5Y 5084   2.046   6.601   5.224
   63SAPC   C36 5085   2.024   6.462   5.061
   63SAPC   H6X 5086   1.986   6.547   5.000
   63SAPC   H6Y 5087   1.937   6.408   5.103
   63SAPC   C37 5088   2.095   6.361   4.970
   63SAPC   H7X 5089   2.019   6.294   4.926
   63SAPC   H7Y 5090   2.164   6.298   5.030
   63SAPC   C38 5091   2.170   6.426   4.853
   63SAPC   H8X 5092   2.247   6.495   4.895
   63SAPC   H8Y 5093   2.101   6.490   4.794
   63SAPC   C39 5094   2.239   6.323   4.761
   63SAPC   H9X 5095   2.260   6.229   4.817
   63SAPC   H9Y 5096   2.338   6.366   4.733
   63SAPC  C310 5097   2.161   6.292   4.632
   63SAPC  H10X 5098   2.094   6.379   4.614
   63SAPC  H10Y 5099   2.095   6.204   4.649
   63SAPC  C311 5100   2.251   6.269   4.509
   63SAPC  H11X 5101   2.276   6.161   4.503
   63SAPC  H11Y 5102   2.348   6.322   4.523
   63SAPC  C312 5103   2.193   6.317   4.374
   63SAPC  H12X 5104   2.103   6.256   4.353
   63SAPC  H12Y 5105   2.266   6.295   4.294
   63SAPC  C313 5106   2.154   6.466   4.366
   63SAPC  H13X 5107   2.127   6.507   4.466
   63SAPC  H13Y 5108   2.063   6.476   4.303
   63SAPC  C314 5109   2.263   6.556   4.307
   63SAPC  H14X 5110   2.283   6.526   4.201
   63SAPC  H14Y 5111   2.358   6.539   4.362
   63SAPC  C315 5112   2.225   6.705   4.311
   63SAPC  H15X 5113   2.201   6.738   4.415
   63SAPC  H15Y 5114   2.133   6.718   4.251
   63SAPC  C316 5115   2.334   6.795   4.252
   63SAPC  H16X 5116   2.297   6.899   4.237
   63SAPC  H16Y 5117   2.353   6.750   4.152
   63SAPC  C317 5118   2.471   6.796   4.318
   63SAPC  H17X 5119   2.506   6.691   4.328
   63SAPC  H17Y 5120   2.466   6.842   4.419
   63SAPC  C318 5121   2.574   6.870   4.233
   63SAPC  H18X 5122   2.677   6.844   4.263
   63SAPC  H18Y 5123   2.560   6.980   4.239
   63SAPC  H18Z 5124   2.564   6.839   4.127
   64SAPC     N 5125   1.106   0.893   6.271
   64SAPC   C12 5126   1.142   0.778   6.178
   64SAPC  H12A 5127   1.184   0.817   6.087
   64SAPC  H12B 5128   1.051   0.725   6.153
   64SAPC   C13 5129   1.227   0.940   6.346
   64SAPC  H13A 5130   1.270   0.857   6.399
   64SAPC  H13B 5131   1.305   0.980   6.282
   64SAPC  H13C 5132   1.201   1.013   6.421
   64SAPC   C14 5133   1.040   1.007   6.200
   64SAPC  H14A 5134   0.950   0.974   6.150
   64SAPC  H14B 5135   1.011   1.084   6.271
   64SAPC  H14C 5136   1.107   1.052   6.128
   64SAPC   C15 5137   1.011   0.841   6.375
   64SAPC  H15A 5138   0.985   0.915   6.449
   64SAPC  H15B 5139   0.922   0.798   6.331
   64SAPC  H15C 5140   1.058   0.759   6.427
   64SAPC   C11 5141   1.239   0.669   6.233
   64SAPC  H11A 5142   1.336   0.716   6.259
   64SAPC  H11B 5143   1.263   0.598   6.151
   64SAPC     P 5144   1.070   0.495   6.328
   64SAPC   O13 5145   1.076   0.398   6.439
   64SAPC   O14 5146   0.943   0.567   6.308
   64SAPC   O12 5147   1.186   0.602   6.348
   64SAPC   O11 5148   1.111   0.427   6.193
   64SAPC    C1 5149   1.121   0.285   6.180
   64SAPC    HA 5150   1.218   0.250   6.220
   64SAPC    HB 5151   1.039   0.233   6.235
   64SAPC    C2 5152   1.111   0.242   6.032
   64SAPC    HS 5153   1.109   0.131   6.033
   64SAPC   O21 5154   1.228   0.289   5.962
   64SAPC   C21 5155   1.243   0.238   5.842
   64SAPC   O22 5156   1.188   0.138   5.799
   64SAPC   C22 5157   1.341   0.328   5.766
   64SAPC   H2R 5158   1.326   0.433   5.798
   64SAPC   H2S 5159   1.442   0.296   5.801
   64SAPC    C3 5160   0.979   0.292   5.963
   64SAPC    HX 5161   0.895   0.265   6.031
   64SAPC    HY 5162   0.965   0.236   5.868
   64SAPC   O31 5163   0.981   0.434   5.937
   64SAPC   C31 5164   0.866   0.481   5.890
   64SAPC   O32 5165   0.766   0.417   5.869
   64SAPC   C32 5166   0.879   0.632   5.864
   64SAPC   H2X 5167   0.869   0.682   5.963
   64SAPC   H2Y 5168   0.794   0.661   5.799
   64SAPC   C23 5169   1.330   0.318   5.613
   64SAPC   H3R 5170   1.313   0.213   5.580
   64SAPC   H3S 5171   1.427   0.349   5.569
   64SAPC   C24 5172   1.222   0.411   5.555
   64SAPC   H4R 5173   1.232   0.409   5.444
   64SAPC   H4S 5174   1.244   0.516   5.585
   64SAPC   C25 5175   1.083   0.373   5.599
   64SAPC   H5R 5176   1.051   0.414   5.695
   64SAPC   C26 5177   1.003   0.285   5.537
   64SAPC   H6R 5178   0.904   0.261   5.579
   64SAPC   C27 5179   1.044   0.212   5.412
   64SAPC   H7R 5180   1.117   0.133   5.441
   64SAPC   H7S 5181   1.101   0.282   5.347
   64SAPC   C28 5182   0.935   0.145   5.333
   64SAPC   H8R 5183   0.864   0.082   5.389
   64SAPC   C29 5184   0.921   0.158   5.200
   64SAPC   H9R 5185   0.844   0.099   5.147
   64SAPC  C210 5186   1.013   0.243   5.114
   64SAPC  H10R 5187   1.118   0.221   5.142
   64SAPC  H10S 5188   0.998   0.349   5.144
   64SAPC  C211 5189   1.004   0.231   4.964
   64SAPC  H11R 5190   1.053   0.141   4.923
   64SAPC  C212 5191   0.944   0.316   4.879
   64SAPC  H12R 5192   0.949   0.293   4.771
   64SAPC  C213 5193   0.869   0.443   4.913
   64SAPC  H13R 5194   0.863   0.457   5.023
   64SAPC  H13S 5195   0.764   0.429   4.882
   64SAPC  C214 5196   0.915   0.573   4.852
   64SAPC  H14R 5197   0.953   0.648   4.923
   64SAPC  C215 5198   0.906   0.610   4.723
   64SAPC  H15R 5199   0.943   0.709   4.693
   64SAPC  C216 5200   0.849   0.528   4.611
   64SAPC  H16R 5201   0.738   0.529   4.615
   64SAPC  H16S 5202   0.882   0.422   4.615
   64SAPC  C217 5203   0.895   0.588   4.478
   64SAPC  H17R 5204   0.873   0.697   4.475
   64SAPC  H17S 5205   0.836   0.540   4.396
   64SAPC  C218 5206   1.044   0.564   4.450
   64SAPC  H18R 5207   1.059   0.454   4.452
   64SAPC  H18S 5208   1.106   0.609   4.530
   64SAPC  C219 5209   1.089   0.617   4.314
   64SAPC  H19R 5210   1.080   0.728   4.313
   64SAPC  H19S 5211   1.019   0.578   4.237
   64SAPC  C220 5212   1.232   0.577   4.279
   64SAPC  H20R 5213   1.250   0.589   4.170
   64SAPC  H20S 5214   1.251   0.470   4.305
   64SAPC  H20T 5215   1.305   0.640   4.335
   64SAPC   C33 5216   1.013   0.672   5.797
   64SAPC   H3X 5217   1.023   0.620   5.699
   64SAPC   H3Y 5218   1.097   0.637   5.861
   64SAPC   C34 5219   1.028   0.823   5.774
   64SAPC   H4X 5220   1.136   0.848   5.777
   64SAPC   H4Y 5221   0.979   0.878   5.857
   64SAPC   C35 5222   0.975   0.874   5.639
   64SAPC   H5X 5223   0.989   0.984   5.635
   64SAPC   H5Y 5224   0.866   0.854   5.630
   64SAPC   C36 5225   1.047   0.812   5.518
   64SAPC   H6X 5226   1.008   0.709   5.501
   64SAPC   H6Y 5227   1.156   0.802   5.542
   64SAPC   C37 5228   1.034   0.893   5.389
   64SAPC   H7X 5229   1.073   0.996   5.407
   64SAPC   H7Y 5230   0.927   0.902   5.360
   64SAPC   C38 5231   1.113   0.832   5.271
   64SAPC   H8X 5232   1.219   0.819   5.302
   64SAPC   H8Y 5233   1.112   0.903   5.186
   64SAPC   C39 5234   1.055   0.698   5.223
   64SAPC   H9X 5235   0.950   0.714   5.192
   64SAPC   H9Y 5236   1.055   0.624   5.306
   64SAPC  C310 5237   1.131   0.637   5.104
   64SAPC  H10X 5238   1.140   0.711   5.022
   64SAPC  H10Y 5239   1.073   0.550   5.067
   64SAPC  C311 5240   1.270   0.583   5.138
   64SAPC  H11X 5241   1.260   0.501   5.213
   64SAPC  H11Y 5242   1.329   0.665   5.185
   64SAPC  C312 5243   1.349   0.530   5.017
   64SAPC  H12X 5244   1.443   0.485   5.055
   64SAPC  H12Y 5245   1.375   0.616   4.951
   64SAPC  C313 5246   1.282   0.423   4.931
   64SAPC  H13X 5247   1.196   0.466   4.875
   64SAPC  H13Y 5248   1.243   0.344   4.999
   64SAPC  C314 5249   1.381   0.358   4.834
   64SAPC  H14X 5250   1.457   0.304   4.895
   64SAPC  H14Y 5251   1.435   0.437   4.777
   64SAPC  C315 5252   1.318   0.258   4.735
   64SAPC  H15X 5253   1.234   0.205   4.784
   64SAPC  H15Y 5254   1.395   0.183   4.710
   64SAPC  C316 5255   1.271   0.326   4.606
   64SAPC  H16X 5256   1.356   0.380   4.561
   64SAPC  H16Y 5257   1.193   0.401   4.632
   64SAPC  C317 5258   1.214   0.229   4.500
   64SAPC  H17X 5259   1.183   0.287   4.411
   64SAPC  H17Y 5260   1.121   0.183   4.541
   64SAPC  C318 5261   1.311   0.119   4.454
   64SAPC  H18X 5262   1.339   0.053   4.539
   64SAPC  H18Y 5263   1.403   0.164   4.412
   64SAPC  H18Z 5264   1.263   0.056   4.376
   65SAPC     N 5265   2.772   2.024   2.031
   65SAPC   C12 5266   2.651   1.932   2.040
   65SAPC  H12A 5267   2.683   1.834   2.072
   65SAPC  H12B 5268   2.606   1.920   1.943
   65SAPC   C13 5269   2.858   1.998   2.151
   65SAPC  H13A 5270   2.796   2.005   2.240
   65SAPC  H13B 5271   2.898   1.898   2.150
   65SAPC  H13C 5272   2.940   2.068   2.160
   65SAPC   C14 5273   2.849   1.995   1.906
   65SAPC  H14A 5274   2.884   1.893   1.906
   65SAPC  H14B 5275   2.786   2.007   1.819
   65SAPC  H14C 5276   2.935   2.060   1.897
   65SAPC   C15 5277   2.721   2.165   2.035
   65SAPC  H15A 5278   2.654   2.184   1.953
   65SAPC  H15B 5279   2.665   2.177   2.126
   65SAPC  H15C 5280   2.801   2.237   2.033
   65SAPC   C11 5281   2.541   1.978   2.139
   65SAPC  H11A 5282   2.465   1.897   2.143
   65SAPC  H11B 5283   2.488   2.067   2.099
   65SAPC     P 5284   2.496   2.020   2.387
   65SAPC   O13 5285   2.435   2.155   2.372
   65SAPC   O14 5286   2.410   1.900   2.380
   65SAPC   O12 5287   2.598   2.007   2.267
   65SAPC   O11 5288   2.592   2.014   2.513
   65SAPC    C1 5289   2.694   2.113   2.530
   65SAPC    HA 5290   2.780   2.090   2.464
   65SAPC    HB 5291   2.656   2.214   2.504
   65SAPC    C2 5292   2.748   2.126   2.676
   65SAPC    HS 5293   2.809   2.219   2.677
   65SAPC   O21 5294   2.828   2.010   2.709
   65SAPC   C21 5295   2.956   2.034   2.740
   65SAPC   O22 5296   3.017   2.136   2.718
   65SAPC   C22 5297   3.020   1.914   2.810
   65SAPC   H2R 5298   3.051   1.842   2.732
   65SAPC   H2S 5299   3.110   1.949   2.865
   65SAPC    C3 5300   2.635   2.150   2.786
   65SAPC    HX 5301   2.616   2.259   2.785
   65SAPC    HY 5302   2.685   2.131   2.883
   65SAPC   O31 5303   2.513   2.069   2.779
   65SAPC   C31 5304   2.401   2.134   2.741
   65SAPC   O32 5305   2.401   2.252   2.706
   65SAPC   C32 5306   2.270   2.049   2.749
   65SAPC   H2X 5307   2.271   1.979   2.662
   65SAPC   H2Y 5308   2.188   2.122   2.734
   65SAPC   C23 5309   2.923   1.846   2.908
   65SAPC   H3R 5310   2.964   1.748   2.940
   65SAPC   H3S 5311   2.831   1.825   2.850
   65SAPC   C24 5312   2.884   1.931   3.031
   65SAPC   H4R 5313   2.778   1.908   3.055
   65SAPC   H4S 5314   2.887   2.039   3.005
   65SAPC   C25 5315   2.968   1.901   3.152
   65SAPC   H5R 5316   3.023   1.805   3.150
   65SAPC   C26 5317   2.975   1.977   3.262
   65SAPC   H6R 5318   3.036   1.941   3.347
   65SAPC   C27 5319   2.901   2.107   3.283
   65SAPC   H7R 5320   2.793   2.086   3.294
   65SAPC   H7S 5321   2.911   2.172   3.194
   65SAPC   C28 5322   2.956   2.178   3.404
   65SAPC   H8R 5323   3.066   2.180   3.412
   65SAPC   C29 5324   2.885   2.243   3.498
   65SAPC   H9R 5325   2.936   2.286   3.586
   65SAPC  C210 5326   2.736   2.258   3.504
   65SAPC  H10R 5327   2.708   2.304   3.601
   65SAPC  H10S 5328   2.694   2.155   3.505
   65SAPC  C211 5329   2.675   2.340   3.393
   65SAPC  H11R 5330   2.718   2.440   3.380
   65SAPC  C212 5331   2.576   2.301   3.313
   65SAPC  H12R 5332   2.536   2.371   3.238
   65SAPC  C213 5333   2.508   2.168   3.320
   65SAPC  H13R 5334   2.570   2.088   3.366
   65SAPC  H13S 5335   2.490   2.134   3.215
   65SAPC  C214 5336   2.378   2.181   3.393
   65SAPC  H14R 5337   2.293   2.189   3.323
   65SAPC  C215 5338   2.349   2.179   3.524
   65SAPC  H15R 5339   2.244   2.195   3.553
   65SAPC  C216 5340   2.433   2.164   3.647
   65SAPC  H16R 5341   2.536   2.132   3.625
   65SAPC  H16S 5342   2.388   2.088   3.715
   65SAPC  C217 5343   2.431   2.301   3.717
   65SAPC  H17R 5344   2.327   2.334   3.737
   65SAPC  H17S 5345   2.476   2.374   3.646
   65SAPC  C218 5346   2.514   2.306   3.845
   65SAPC  H18R 5347   2.528   2.413   3.872
   65SAPC  H18S 5348   2.616   2.269   3.820
   65SAPC  C219 5349   2.457   2.231   3.967
   65SAPC  H19R 5350   2.499   2.279   4.058
   65SAPC  H19S 5351   2.494   2.126   3.966
   65SAPC  C220 5352   2.304   2.227   3.979
   65SAPC  H20R 5353   2.261   2.158   3.904
   65SAPC  H20S 5354   2.261   2.328   3.962
   65SAPC  H20T 5355   2.274   2.193   4.081
   65SAPC   C33 5356   2.242   1.971   2.882
   65SAPC   H3X 5357   2.255   2.049   2.960
   65SAPC   H3Y 5358   2.325   1.898   2.885
   65SAPC   C34 5359   2.105   1.895   2.906
   65SAPC   H4X 5360   2.095   1.807   2.839
   65SAPC   H4Y 5361   2.031   1.968   2.868
   65SAPC   C35 5362   2.053   1.854   3.053
   65SAPC   H5X 5363   1.945   1.879   3.039
   65SAPC   H5Y 5364   2.087   1.934   3.122
   65SAPC   C36 5365   2.031   1.709   3.125
   65SAPC   H6X 5366   1.980   1.649   3.047
   65SAPC   H6Y 5367   1.952   1.733   3.200
   65SAPC   C37 5368   2.127   1.600   3.204
   65SAPC   H7X 5369   2.156   1.518   3.134
   65SAPC   H7Y 5370   2.042   1.562   3.264
   65SAPC   C38 5371   2.218   1.590   3.338
   65SAPC   H8X 5372   2.185   1.492   3.380
   65SAPC   H8Y 5373   2.185   1.659   3.418
   65SAPC   C39 5374   2.375   1.570   3.341
   65SAPC   H9X 5375   2.423   1.574   3.241
   65SAPC   H9Y 5376   2.386   1.462   3.367
   65SAPC  C310 5377   2.463   1.639   3.453
   65SAPC  H10X 5378   2.538   1.564   3.485
   65SAPC  H10Y 5379   2.398   1.660   3.540
   65SAPC  C311 5380   2.549   1.767   3.423
   65SAPC  H11X 5381   2.483   1.854   3.407
   65SAPC  H11Y 5382   2.608   1.754   3.330
   65SAPC  C312 5383   2.645   1.817   3.535
   65SAPC  H12X 5384   2.681   1.918   3.506
   65SAPC  H12Y 5385   2.734   1.750   3.542
   65SAPC  C313 5386   2.577   1.825   3.673
   65SAPC  H13X 5387   2.572   1.720   3.710
   65SAPC  H13Y 5388   2.473   1.858   3.654
   65SAPC  C314 5389   2.634   1.915   3.786
   65SAPC  H14X 5390   2.644   1.852   3.877
   65SAPC  H14Y 5391   2.555   1.990   3.811
   65SAPC  C315 5392   2.765   1.992   3.765
   65SAPC  H15X 5393   2.751   2.065   3.682
   65SAPC  H15Y 5394   2.846   1.922   3.735
   65SAPC  C316 5395   2.807   2.071   3.891
   65SAPC  H16X 5396   2.821   2.000   3.976
   65SAPC  H16Y 5397   2.726   2.139   3.925
   65SAPC  C317 5398   2.936   2.152   3.875
   65SAPC  H17X 5399   2.910   2.256   3.849
   65SAPC  H17Y 5400   2.996   2.110   3.791
   65SAPC  C318 5401   3.023   2.150   4.002
   65SAPC  H18X 5402   2.960   2.169   4.092
   65SAPC  H18Y 5403   3.103   2.227   3.997
   65SAPC  H18Z 5404   3.071   2.050   4.014
   66SAPC     N 5405   5.500   3.528   2.288
   66SAPC   C12 5406   5.617   3.522   2.386
   66SAPC  H12A 5407   5.649   3.419   2.395
   66SAPC  H12B 5408   5.583   3.553   2.484
   66SAPC   C13 5409   5.454   3.669   2.269
   66SAPC  H13A 5410   5.536   3.732   2.236
   66SAPC  H13B 5411   5.375   3.678   2.196
   66SAPC  H13C 5412   5.413   3.713   2.359
   66SAPC   C14 5413   5.545   3.475   2.155
   66SAPC  H14A 5414   5.467   3.483   2.081
   66SAPC  H14B 5415   5.631   3.531   2.122
   66SAPC  H14C 5416   5.577   3.372   2.163
   66SAPC   C15 5417   5.386   3.444   2.337
   66SAPC  H15A 5418   5.306   3.444   2.265
   66SAPC  H15B 5419   5.415   3.342   2.353
   66SAPC  H15C 5420   5.345   3.483   2.430
   66SAPC   C11 5421   5.744   3.604   2.350
   66SAPC  H11A 5422   5.816   3.596   2.435
   66SAPC  H11B 5423   5.714   3.710   2.342
   66SAPC     P 5424   5.902   3.643   2.145
   66SAPC   O13 5425   6.036   3.581   2.146
   66SAPC   O14 5426   5.842   3.665   2.011
   66SAPC   O12 5427   5.805   3.552   2.231
   66SAPC   O11 5428   5.899   3.779   2.223
   66SAPC    C1 5429   5.981   3.889   2.186
   66SAPC    HA 5430   6.086   3.856   2.176
   66SAPC    HB 5431   5.949   3.932   2.089
   66SAPC    C2 5432   5.978   4.002   2.295
   66SAPC    HS 5433   6.075   4.056   2.291
   66SAPC   O21 5434   5.960   3.947   2.426
   66SAPC   C21 5435   6.060   3.867   2.464
   66SAPC   O22 5436   6.165   3.852   2.406
   66SAPC   C22 5437   6.018   3.798   2.593
   66SAPC   H2R 5438   5.969   3.876   2.656
   66SAPC   H2S 5439   5.941   3.722   2.568
   66SAPC    C3 5440   5.867   4.108   2.269
   66SAPC    HX 5441   5.870   4.132   2.160
   66SAPC    HY 5442   5.896   4.202   2.320
   66SAPC   O31 5443   5.733   4.064   2.300
   66SAPC   C31 5444   5.695   4.096   2.425
   66SAPC   O32 5445   5.758   4.165   2.502
   66SAPC   C32 5446   5.558   4.037   2.456
   66SAPC   H2X 5447   5.541   3.948   2.391
   66SAPC   H2Y 5448   5.482   4.114   2.433
   66SAPC   C23 5449   6.135   3.732   2.669
   66SAPC   H3R 5450   6.233   3.771   2.635
   66SAPC   H3S 5451   6.136   3.623   2.647
   66SAPC   C24 5452   6.123   3.755   2.820
   66SAPC   H4R 5453   6.196   3.686   2.868
   66SAPC   H4S 5454   6.022   3.726   2.856
   66SAPC   C25 5455   6.153   3.899   2.852
   66SAPC   H5R 5456   6.092   3.973   2.798
   66SAPC   C26 5457   6.245   3.944   2.938
   66SAPC   H6R 5458   6.262   4.053   2.945
   66SAPC   C27 5459   6.337   3.863   3.024
   66SAPC   H7R 5460   6.398   3.930   3.087
   66SAPC   H7S 5461   6.410   3.813   2.957
   66SAPC   C28 5462   6.270   3.758   3.110
   66SAPC   H8R 5463   6.274   3.659   3.063
   66SAPC   C29 5464   6.209   3.769   3.230
   66SAPC   H9R 5465   6.173   3.678   3.280
   66SAPC  C210 5466   6.193   3.897   3.307
   66SAPC  H10R 5467   6.202   3.980   3.233
   66SAPC  H10S 5468   6.278   3.906   3.378
   66SAPC  C211 5469   6.060   3.919   3.374
   66SAPC  H11R 5470   5.974   3.914   3.306
   66SAPC  C212 5471   6.040   3.947   3.503
   66SAPC  H12R 5472   5.936   3.961   3.538
   66SAPC  C213 5473   6.144   3.961   3.611
   66SAPC  H13R 5474   6.247   3.971   3.570
   66SAPC  H13S 5475   6.146   3.868   3.671
   66SAPC  C214 5476   6.113   4.082   3.696
   66SAPC  H14R 5477   6.108   4.178   3.642
   66SAPC  C215 5478   6.094   4.081   3.829
   66SAPC  H15R 5479   6.075   4.176   3.882
   66SAPC  C216 5480   6.100   3.959   3.915
   66SAPC  H16R 5481   6.206   3.930   3.932
   66SAPC  H16S 5482   6.050   3.872   3.867
   66SAPC  C217 5483   6.033   3.982   4.050
   66SAPC  H17R 5484   5.924   3.999   4.035
   66SAPC  H17S 5485   6.075   4.072   4.099
   66SAPC  C218 5486   6.053   3.862   4.144
   66SAPC  H18R 5487   6.162   3.840   4.149
   66SAPC  H18S 5488   6.001   3.773   4.103
   66SAPC  C219 5489   6.004   3.890   4.286
   66SAPC  H19R 5490   6.063   3.975   4.328
   66SAPC  H19S 5491   6.024   3.800   4.348
   66SAPC  C220 5492   5.857   3.927   4.293
   66SAPC  H20R 5493   5.827   3.947   4.398
   66SAPC  H20S 5494   5.794   3.844   4.253
   66SAPC  H20T 5495   5.835   4.019   4.234
   66SAPC   C33 5496   5.550   3.996   2.605
   66SAPC   H3X 5497   5.446   3.965   2.628
   66SAPC   H3Y 5498   5.574   4.082   2.671
   66SAPC   C34 5499   5.645   3.880   2.634
   66SAPC   H4X 5500   5.750   3.912   2.617
   66SAPC   H4Y 5501   5.623   3.798   2.562
   66SAPC   C35 5502   5.633   3.825   2.776
   66SAPC   H5X 5503   5.527   3.821   2.807
   66SAPC   H5Y 5504   5.686   3.894   2.846
   66SAPC   C36 5505   5.693   3.685   2.785
   66SAPC   H6X 5506   5.797   3.687   2.746
   66SAPC   H6Y 5507   5.634   3.615   2.723
   66SAPC   C37 5508   5.698   3.634   2.929
   66SAPC   H7X 5509   5.595   3.633   2.972
   66SAPC   H7Y 5510   5.757   3.708   2.987
   66SAPC   C38 5511   5.760   3.495   2.943
   66SAPC   H8X 5512   5.865   3.500   2.906
   66SAPC   H8Y 5513   5.705   3.422   2.879
   66SAPC   C39 5514   5.762   3.444   3.088
   66SAPC   H9X 5515   5.826   3.354   3.095
   66SAPC   H9Y 5516   5.659   3.414   3.119
   66SAPC  C310 5517   5.812   3.552   3.183
   66SAPC  H10X 5518   5.739   3.636   3.187
   66SAPC  H10Y 5519   5.908   3.592   3.143
   66SAPC  C311 5520   5.835   3.507   3.327
   66SAPC  H11X 5521   5.908   3.424   3.329
   66SAPC  H11Y 5522   5.740   3.471   3.373
   66SAPC  C312 5523   5.890   3.626   3.406
   66SAPC  H12X 5524   5.815   3.709   3.410
   66SAPC  H12Y 5525   5.976   3.664   3.348
   66SAPC  C313 5526   5.941   3.590   3.545
   66SAPC  H13X 5527   6.027   3.657   3.567
   66SAPC  H13Y 5528   5.978   3.486   3.543
   66SAPC  C314 5529   5.839   3.607   3.658
   66SAPC  H14X 5530   5.880   3.558   3.749
   66SAPC  H14Y 5531   5.743   3.557   3.632
   66SAPC  C315 5532   5.814   3.755   3.692
   66SAPC  H15X 5533   5.762   3.805   3.608
   66SAPC  H15Y 5534   5.913   3.805   3.705
   66SAPC  C316 5535   5.735   3.776   3.821
   66SAPC  H16X 5536   5.793   3.732   3.906
   66SAPC  H16Y 5537   5.638   3.722   3.815
   66SAPC  C317 5538   5.711   3.924   3.850
   66SAPC  H17X 5539   5.650   3.968   3.767
   66SAPC  H17Y 5540   5.809   3.977   3.849
   66SAPC  C318 5541   5.641   3.949   3.983
   66SAPC  H18X 5542   5.538   3.906   3.982
   66SAPC  H18Y 5543   5.634   4.057   4.005
   66SAPC  H18Z 5544   5.698   3.899   4.065
   67SAPC     N 5545   1.856   2.046   2.080
   67SAPC   C12 5546   1.773   2.023   2.206
   67SAPC  H12A 5547   1.840   1.997   2.286
   67SAPC  H12B 5548   1.704   1.941   2.193
   67SAPC   C13 5549   1.886   1.916   2.013
   67SAPC  H13A 5550   1.946   1.929   1.924
   67SAPC  H13B 5551   1.941   1.852   2.080
   67SAPC  H13C 5552   1.795   1.863   1.986
   67SAPC   C14 5553   1.784   2.142   1.990
   67SAPC  H14A 5554   1.844   2.168   1.903
   67SAPC  H14B 5555   1.688   2.104   1.960
   67SAPC  H14C 5556   1.767   2.232   2.047
   67SAPC   C15 5557   1.985   2.111   2.122
   67SAPC  H15A 5558   2.050   2.133   2.039
   67SAPC  H15B 5559   1.962   2.203   2.173
   67SAPC  H15C 5560   2.036   2.051   2.196
   67SAPC   C11 5561   1.693   2.145   2.259
   67SAPC  H11A 5562   1.641   2.114   2.353
   67SAPC  H11B 5563   1.611   2.173   2.189
   67SAPC     P 5564   1.866   2.258   2.414
   67SAPC   O13 5565   1.925   2.123   2.426
   67SAPC   O14 5566   1.958   2.372   2.401
   67SAPC   O12 5567   1.779   2.257   2.280
   67SAPC   O11 5568   1.752   2.282   2.522
   67SAPC    C1 5569   1.687   2.410   2.513
   67SAPC    HA 5570   1.759   2.489   2.543
   67SAPC    HB 5571   1.652   2.429   2.409
   67SAPC    C2 5572   1.560   2.431   2.601
   67SAPC    HS 5573   1.519   2.529   2.569
   67SAPC   O21 5574   1.600   2.437   2.739
   67SAPC   C21 5575   1.512   2.500   2.815
   67SAPC   O22 5576   1.412   2.556   2.776
   67SAPC   C22 5577   1.562   2.498   2.958
   67SAPC   H2R 5578   1.553   2.395   2.998
   67SAPC   H2S 5579   1.670   2.525   2.954
   67SAPC    C3 5580   1.448   2.327   2.579
   67SAPC    HX 5581   1.442   2.310   2.469
   67SAPC    HY 5582   1.352   2.369   2.614
   67SAPC   O31 5583   1.473   2.207   2.653
   67SAPC   C31 5584   1.470   2.091   2.593
   67SAPC   O32 5585   1.439   2.071   2.476
   67SAPC   C32 5586   1.513   1.984   2.694
   67SAPC   H2X 5587   1.583   1.915   2.642
   67SAPC   H2Y 5588   1.421   1.929   2.723
   67SAPC   C23 5589   1.487   2.599   3.048
   67SAPC   H3R 5590   1.401   2.549   3.098
   67SAPC   H3S 5591   1.446   2.682   2.988
   67SAPC   C24 5592   1.581   2.662   3.151
   67SAPC   H4R 5593   1.526   2.740   3.208
   67SAPC   H4S 5594   1.661   2.715   3.093
   67SAPC   C25 5595   1.647   2.560   3.238
   67SAPC   H5R 5596   1.713   2.488   3.186
   67SAPC   C26 5597   1.633   2.551   3.370
   67SAPC   H6R 5598   1.676   2.464   3.421
   67SAPC   C27 5599   1.547   2.639   3.457
   67SAPC   H7R 5600   1.558   2.745   3.426
   67SAPC   H7S 5601   1.585   2.635   3.562
   67SAPC   C28 5602   1.402   2.603   3.455
   67SAPC   H8R 5603   1.337   2.682   3.414
   67SAPC   C29 5604   1.348   2.484   3.485
   67SAPC   H9R 5605   1.239   2.470   3.473
   67SAPC  C210 5606   1.422   2.360   3.529
   67SAPC  H10R 5607   1.531   2.378   3.537
   67SAPC  H10S 5608   1.412   2.284   3.448
   67SAPC  C211 5609   1.376   2.306   3.661
   67SAPC  H11R 5610   1.353   2.380   3.739
   67SAPC  C212 5611   1.363   2.174   3.689
   67SAPC  H12R 5612   1.327   2.144   3.788
   67SAPC  C213 5613   1.392   2.062   3.592
   67SAPC  H13R 5614   1.345   2.082   3.494
   67SAPC  H13S 5615   1.341   1.970   3.628
   67SAPC  C214 5616   1.538   2.034   3.573
   67SAPC  H14R 5617   1.584   2.081   3.485
   67SAPC  C215 5618   1.614   1.959   3.655
   67SAPC  H15R 5619   1.721   1.946   3.632
   67SAPC  C216 5620   1.565   1.888   3.780
   67SAPC  H16R 5621   1.587   1.780   3.771
   67SAPC  H16S 5622   1.455   1.895   3.791
   67SAPC  C217 5623   1.631   1.940   3.909
   67SAPC  H17R 5624   1.728   1.989   3.885
   67SAPC  H17S 5625   1.654   1.854   3.975
   67SAPC  C218 5626   1.541   2.036   3.988
   67SAPC  H18R 5627   1.505   2.116   3.920
   67SAPC  H18S 5628   1.601   2.086   4.067
   67SAPC  C219 5629   1.423   1.965   4.054
   67SAPC  H19R 5630   1.461   1.888   4.124
   67SAPC  H19S 5631   1.362   1.912   3.977
   67SAPC  C220 5632   1.332   2.061   4.129
   67SAPC  H20R 5633   1.246   2.008   4.174
   67SAPC  H20S 5634   1.293   2.138   4.059
   67SAPC  H20T 5635   1.389   2.113   4.209
   67SAPC   C33 5636   1.580   2.044   2.819
   67SAPC   H3X 5637   1.512   2.119   2.866
   67SAPC   H3Y 5638   1.672   2.098   2.788
   67SAPC   C34 5639   1.614   1.942   2.928
   67SAPC   H4X 5640   1.692   1.872   2.890
   67SAPC   H4Y 5641   1.522   1.884   2.951
   67SAPC   C35 5642   1.661   2.007   3.058
   67SAPC   H5X 5643   1.694   1.927   3.128
   67SAPC   H5Y 5644   1.575   2.060   3.105
   67SAPC   C36 5645   1.774   2.109   3.038
   67SAPC   H6X 5646   1.737   2.197   2.982
   67SAPC   H6Y 5647   1.855   2.063   2.978
   67SAPC   C37 5648   1.831   2.156   3.172
   67SAPC   H7X 5649   1.869   2.067   3.228
   67SAPC   H7Y 5650   1.747   2.199   3.231
   67SAPC   C38 5651   1.942   2.260   3.158
   67SAPC   H8X 5652   1.898   2.351   3.112
   67SAPC   H8Y 5653   2.019   2.222   3.087
   67SAPC   C39 5654   2.012   2.299   3.290
   67SAPC   H9X 5655   2.054   2.401   3.281
   67SAPC   H9Y 5656   2.098   2.230   3.306
   67SAPC  C310 5657   1.921   2.291   3.413
   67SAPC  H10X 5658   1.868   2.193   3.419
   67SAPC  H10Y 5659   1.845   2.370   3.402
   67SAPC  C311 5660   1.996   2.306   3.546
   67SAPC  H11X 5661   2.066   2.392   3.542
   67SAPC  H11Y 5662   2.054   2.212   3.561
   67SAPC  C312 5663   1.903   2.319   3.666
   67SAPC  H12X 5664   1.959   2.302   3.760
   67SAPC  H12Y 5665   1.825   2.239   3.659
   67SAPC  C313 5666   1.835   2.456   3.673
   67SAPC  H13X 5667   1.803   2.487   3.572
   67SAPC  H13Y 5668   1.907   2.532   3.709
   67SAPC  C314 5669   1.712   2.453   3.764
   67SAPC  H14X 5670   1.647   2.366   3.738
   67SAPC  H14Y 5671   1.653   2.545   3.748
   67SAPC  C315 5672   1.753   2.445   3.910
   67SAPC  H15X 5673   1.824   2.529   3.929
   67SAPC  H15Y 5674   1.807   2.351   3.931
   67SAPC  C316 5675   1.634   2.460   4.004
   67SAPC  H16X 5676   1.588   2.360   4.023
   67SAPC  H16Y 5677   1.556   2.521   3.954
   67SAPC  C317 5678   1.674   2.528   4.134
   67SAPC  H17X 5679   1.730   2.621   4.112
   67SAPC  H17Y 5680   1.743   2.462   4.191
   67SAPC  C318 5681   1.553   2.564   4.217
   67SAPC  H18X 5682   1.499   2.651   4.174
   67SAPC  H18Y 5683   1.583   2.589   4.321
   67SAPC  H18Z 5684   1.484   2.477   4.217
   68SAPC     N 5685   4.535   0.697   2.280
   68SAPC   C12 5686   4.471   0.813   2.207
   68SAPC  H12A 5687   4.534   0.901   2.214
   68SAPC  H12B 5688   4.378   0.836   2.256
   68SAPC   C13 5689   4.549   0.719   2.428
   68SAPC  H13A 5690   4.589   0.631   2.475
   68SAPC  H13B 5691   4.614   0.803   2.450
   68SAPC  H13C 5692   4.453   0.740   2.472
   68SAPC   C14 5693   4.446   0.579   2.260
   68SAPC  H14A 5694   4.416   0.574   2.156
   68SAPC  H14B 5695   4.497   0.485   2.279
   68SAPC  H14C 5696   4.354   0.586   2.317
   68SAPC   C15 5697   4.668   0.665   2.219
   68SAPC  H15A 5698   4.737   0.748   2.226
   68SAPC  H15B 5699   4.710   0.577   2.264
   68SAPC  H15C 5700   4.654   0.640   2.115
   68SAPC   C11 5701   4.432   0.796   2.058
   68SAPC  H11A 5702   4.512   0.742   2.003
   68SAPC  H11B 5703   4.424   0.896   2.012
   68SAPC     P 5704   4.173   0.798   2.078
   68SAPC   O13 5705   4.169   0.921   1.996
   68SAPC   O14 5706   4.062   0.703   2.059
   68SAPC   O12 5707   4.310   0.724   2.048
   68SAPC   O11 5708   4.191   0.837   2.232
   68SAPC    C1 5709   4.103   0.935   2.291
   68SAPC    HA 5710   4.077   1.015   2.218
   68SAPC    HB 5711   4.008   0.886   2.321
   68SAPC    C2 5712   4.162   1.010   2.416
   68SAPC    HS 5713   4.144   1.119   2.402
   68SAPC   O21 5714   4.302   0.984   2.437
   68SAPC   C21 5715   4.384   1.049   2.357
   68SAPC   O22 5716   4.355   1.105   2.253
   68SAPC   C22 5717   4.527   1.051   2.416
   68SAPC   H2R 5718   4.589   0.970   2.372
   68SAPC   H2S 5719   4.571   1.146   2.379
   68SAPC    C3 5720   4.087   0.970   2.547
   68SAPC    HX 5721   3.981   1.001   2.536
   68SAPC    HY 5722   4.128   1.028   2.633
   68SAPC   O31 5723   4.090   0.828   2.570
   68SAPC   C31 5724   4.201   0.783   2.626
   68SAPC   O32 5725   4.290   0.849   2.677
   68SAPC   C32 5726   4.206   0.631   2.608
   68SAPC   H2X 5727   4.231   0.614   2.501
   68SAPC   H2Y 5728   4.104   0.590   2.626
   68SAPC   C23 5729   4.535   1.050   2.571
   68SAPC   H3R 5730   4.513   0.949   2.613
   68SAPC   H3S 5731   4.454   1.114   2.613
   68SAPC   C24 5732   4.667   1.107   2.623
   68SAPC   H4R 5733   4.647   1.154   2.722
   68SAPC   H4S 5734   4.701   1.189   2.557
   68SAPC   C25 5735   4.771   0.998   2.632
   68SAPC   H5R 5736   4.801   0.952   2.537
   68SAPC   C26 5737   4.825   0.954   2.747
   68SAPC   H6R 5738   4.895   0.869   2.745
   68SAPC   C27 5739   4.791   1.006   2.885
   68SAPC   H7R 5740   4.801   1.116   2.885
   68SAPC   H7S 5741   4.868   0.971   2.957
   68SAPC   C28 5742   4.655   0.967   2.938
   68SAPC   H8R 5743   4.604   0.884   2.886
   68SAPC   C29 5744   4.590   1.029   3.037
   68SAPC   H9R 5745   4.488   0.998   3.063
   68SAPC  C210 5746   4.640   1.149   3.114
   68SAPC  H10R 5747   4.571   1.232   3.085
   68SAPC  H10S 5748   4.740   1.177   3.075
   68SAPC  C211 5749   4.655   1.161   3.263
   68SAPC  H11R 5750   4.732   1.232   3.294
   68SAPC  C212 5751   4.591   1.096   3.362
   68SAPC  H12R 5752   4.619   1.121   3.465
   68SAPC  C213 5753   4.485   0.991   3.347
   68SAPC  H13R 5754   4.503   0.927   3.259
   68SAPC  H13S 5755   4.386   1.039   3.332
   68SAPC  C214 5756   4.486   0.903   3.469
   68SAPC  H14R 5757   4.545   0.811   3.460
   68SAPC  C215 5758   4.423   0.929   3.585
   68SAPC  H15R 5759   4.433   0.860   3.670
   68SAPC  C216 5760   4.340   1.052   3.609
   68SAPC  H16R 5761   4.249   1.024   3.666
   68SAPC  H16S 5762   4.304   1.096   3.514
   68SAPC  C217 5763   4.415   1.160   3.686
   68SAPC  H17R 5764   4.360   1.256   3.675
   68SAPC  H17S 5765   4.517   1.176   3.644
   68SAPC  C218 5766   4.424   1.128   3.835
   68SAPC  H18R 5767   4.478   1.033   3.852
   68SAPC  H18S 5768   4.321   1.117   3.876
   68SAPC  C219 5769   4.495   1.242   3.907
   68SAPC  H19R 5770   4.454   1.338   3.871
   68SAPC  H19S 5771   4.603   1.238   3.880
   68SAPC  C220 5772   4.480   1.236   4.058
   68SAPC  H20R 5773   4.535   1.320   4.105
   68SAPC  H20S 5774   4.520   1.140   4.096
   68SAPC  H20T 5775   4.373   1.243   4.087
   68SAPC   C33 5776   4.310   0.562   2.699
   68SAPC   H3X 5777   4.408   0.614   2.697
   68SAPC   H3Y 5778   4.325   0.460   2.658
   68SAPC   C34 5779   4.262   0.544   2.844
   68SAPC   H4X 5780   4.315   0.457   2.887
   68SAPC   H4Y 5781   4.154   0.519   2.845
   68SAPC   C35 5782   4.289   0.664   2.936
   68SAPC   H5X 5783   4.233   0.753   2.900
   68SAPC   H5Y 5784   4.398   0.689   2.933
   68SAPC   C36 5785   4.248   0.639   3.082
   68SAPC   H6X 5786   4.296   0.546   3.119
   68SAPC   H6Y 5787   4.138   0.624   3.085
   68SAPC   C37 5788   4.286   0.756   3.175
   68SAPC   H7X 5789   4.258   0.851   3.123
   68SAPC   H7Y 5790   4.396   0.756   3.190
   68SAPC   C38 5791   4.213   0.754   3.310
   68SAPC   H8X 5792   4.105   0.739   3.292
   68SAPC   H8Y 5793   4.223   0.854   3.358
   68SAPC   C39 5794   4.264   0.648   3.409
   68SAPC   H9X 5795   4.364   0.675   3.449
   68SAPC   H9Y 5796   4.280   0.553   3.353
   68SAPC  C310 5797   4.167   0.622   3.525
   68SAPC  H10X 5798   4.192   0.525   3.572
   68SAPC  H10Y 5799   4.064   0.614   3.485
   68SAPC  C311 5800   4.170   0.730   3.634
   68SAPC  H11X 5801   4.160   0.831   3.588
   68SAPC  H11Y 5802   4.267   0.723   3.688
   68SAPC  C312 5803   4.056   0.711   3.735
   68SAPC  H12X 5804   4.051   0.603   3.761
   68SAPC  H12Y 5805   3.961   0.739   3.685
   68SAPC  C313 5806   4.070   0.789   3.867
   68SAPC  H13X 5807   4.175   0.782   3.903
   68SAPC  H13Y 5808   4.006   0.740   3.942
   68SAPC  C314 5809   4.027   0.936   3.857
   68SAPC  H14X 5810   3.920   0.942   3.827
   68SAPC  H14Y 5811   4.085   0.985   3.775
   68SAPC  C315 5812   4.049   1.016   3.986
   68SAPC  H15X 5813   4.023   1.122   3.967
   68SAPC  H15Y 5814   4.157   1.013   4.014
   68SAPC  C316 5815   3.965   0.966   4.105
   68SAPC  H16X 5816   4.003   0.867   4.138
   68SAPC  H16Y 5817   3.860   0.952   4.069
   68SAPC  C317 5818   3.961   1.062   4.224
   68SAPC  H17X 5819   3.899   1.016   4.304
   68SAPC  H17Y 5820   3.910   1.156   4.193
   68SAPC  C318 5821   4.098   1.098   4.282
   68SAPC  H18X 5822   4.154   1.006   4.310
   68SAPC  H18Y 5823   4.088   1.161   4.372
   68SAPC  H18Z 5824   4.159   1.154   4.207
   69SAPC     N 5825   3.861   6.739   2.348
   69SAPC   C12 5826   3.949   6.617   2.323
   69SAPC  H12A 5827   3.896   6.553   2.253
   69SAPC  H12B 5828   3.955   6.560   2.415
   69SAPC   C13 5829   3.740   6.696   2.425
   69SAPC  H13A 5830   3.682   6.622   2.371
   69SAPC  H13B 5831   3.768   6.649   2.519
   69SAPC  H13C 5832   3.674   6.778   2.449
   69SAPC   C14 5833   3.938   6.843   2.425
   69SAPC  H14A 5834   4.026   6.872   2.370
   69SAPC  H14B 5835   3.883   6.933   2.445
   69SAPC  H14C 5836   3.973   6.805   2.520
   69SAPC   C15 5837   3.823   6.792   2.213
   69SAPC  H15A 5838   3.911   6.800   2.151
   69SAPC  H15B 5839   3.755   6.726   2.161
   69SAPC  H15C 5840   3.783   6.893   2.215
   69SAPC   C11 5841   4.094   6.639   2.270
   69SAPC  H11A 5842   4.140   6.538   2.260
   69SAPC  H11B 5843   4.154   6.691   2.348
   69SAPC     P 5844   4.157   6.850   2.116
   69SAPC   O13 5845   4.285   6.843   2.043
   69SAPC   O14 5846   4.047   6.928   2.055
   69SAPC   O12 5847   4.100   6.703   2.143
   69SAPC   O11 5848   4.180   6.904   2.263
   69SAPC    C1 5849   4.309   6.944   2.309
   69SAPC    HA 5850   4.374   6.855   2.324
   69SAPC    HB 5851   4.358   7.012   2.237
   69SAPC    C2 5852   4.295   7.022   2.443
   69SAPC    HS 5853   4.393   7.068   2.468
   69SAPC   O21 5854   4.250   6.937   2.550
   69SAPC   C21 5855   4.341   6.855   2.599
   69SAPC   O22 5856   4.457   6.846   2.563
   69SAPC   C22 5857   4.276   6.765   2.705
   69SAPC   H2R 5858   4.167   6.762   2.684
   69SAPC   H2S 5859   4.318   6.663   2.693
   69SAPC    C3 5860   4.194   7.139   2.426
   69SAPC    HX 5861   4.092   7.099   2.407
   69SAPC    HY 5862   4.221   7.194   2.333
   69SAPC   O31 5863   4.201   7.231   2.535
   69SAPC   C31 5864   4.110   7.215   2.629
   69SAPC   O32 5865   4.019   7.134   2.629
   69SAPC   C32 5866   4.145   7.308   2.746
   69SAPC   H2X 5867   4.054   7.364   2.775
   69SAPC   H2Y 5868   4.221   7.382   2.712
   69SAPC   C23 5869   4.301   6.814   2.850
   69SAPC   H3R 5870   4.265   6.918   2.862
   69SAPC   H3S 5871   4.411   6.814   2.870
   69SAPC   C24 5872   4.233   6.726   2.958
   69SAPC   H4R 5873   4.269   6.759   3.057
   69SAPC   H4S 5874   4.268   6.621   2.944
   69SAPC   C25 5875   4.082   6.733   2.949
   69SAPC   H5R 5876   4.042   6.734   2.847
   69SAPC   C26 5877   3.993   6.737   3.050
   69SAPC   H6R 5878   3.886   6.744   3.025
   69SAPC   C27 5879   4.020   6.735   3.198
   69SAPC   H7R 5880   3.980   6.828   3.244
   69SAPC   H7S 5881   4.129   6.736   3.220
   69SAPC   C28 5882   3.959   6.611   3.259
   69SAPC   H8R 5883   4.007   6.517   3.227
   69SAPC   C29 5884   3.859   6.603   3.350
   69SAPC   H9R 5885   3.829   6.503   3.386
   69SAPC  C210 5886   3.783   6.717   3.413
   69SAPC  H10R 5887   3.678   6.709   3.377
   69SAPC  H10S 5888   3.818   6.815   3.374
   69SAPC  C211 5889   3.778   6.721   3.564
   69SAPC  H11R 5890   3.713   6.643   3.609
   69SAPC  C212 5891   3.839   6.808   3.648
   69SAPC  H12R 5892   3.823   6.797   3.756
   69SAPC  C213 5893   3.929   6.923   3.609
   69SAPC  H13R 5894   3.954   6.918   3.501
   69SAPC  H13S 5895   4.026   6.906   3.662
   69SAPC  C214 5896   3.885   7.064   3.641
   69SAPC  H14R 5897   3.782   7.077   3.676
   69SAPC  C215 5898   3.965   7.171   3.623
   69SAPC  H15R 5899   3.927   7.271   3.646
   69SAPC  C216 5900   4.107   7.165   3.571
   69SAPC  H16R 5901   4.109   7.210   3.470
   69SAPC  H16S 5902   4.144   7.061   3.559
   69SAPC  C217 5903   4.210   7.241   3.657
   69SAPC  H17R 5904   4.179   7.347   3.666
   69SAPC  H17S 5905   4.306   7.240   3.602
   69SAPC  C218 5906   4.237   7.188   3.798
   69SAPC  H18R 5907   4.266   7.081   3.794
   69SAPC  H18S 5908   4.143   7.195   3.858
   69SAPC  C219 5909   4.348   7.271   3.865
   69SAPC  H19R 5910   4.328   7.379   3.844
   69SAPC  H19S 5911   4.445   7.247   3.817
   69SAPC  C220 5912   4.359   7.253   4.016
   69SAPC  H20R 5913   4.260   7.264   4.064
   69SAPC  H20S 5914   4.428   7.329   4.059
   69SAPC  H20T 5915   4.401   7.153   4.039
   69SAPC   C33 5916   4.200   7.224   2.862
   69SAPC   H3X 5917   4.290   7.170   2.824
   69SAPC   H3Y 5918   4.125   7.147   2.893
   69SAPC   C34 5919   4.239   7.306   2.985
   69SAPC   H4X 5920   4.151   7.362   3.022
   69SAPC   H4Y 5921   4.317   7.379   2.957
   69SAPC   C35 5922   4.292   7.217   3.100
   69SAPC   H5X 5923   4.209   7.151   3.133
   69SAPC   H5Y 5924   4.320   7.282   3.185
   69SAPC   C36 5925   4.411   7.130   3.058
   69SAPC   H6X 5926   4.491   7.194   3.015
   69SAPC   H6Y 5927   4.379   7.061   2.977
   69SAPC   C37 5928   4.473   7.042   3.168
   69SAPC   H7X 5929   4.557   7.098   3.214
   69SAPC   H7Y 5930   4.517   6.952   3.120
   69SAPC   C38 5931   4.374   6.997   3.278
   69SAPC   H8X 5932   4.280   6.961   3.232
   69SAPC   H8Y 5933   4.350   7.085   3.342
   69SAPC   C39 5934   4.433   6.885   3.366
   69SAPC   H9X 5935   4.541   6.877   3.344
   69SAPC   H9Y 5936   4.388   6.788   3.336
   69SAPC  C310 5937   4.416   6.907   3.517
   69SAPC  H10X 5938   4.309   6.903   3.545
   69SAPC  H10Y 5939   4.452   7.009   3.545
   69SAPC  C311 5940   4.498   6.802   3.594
   69SAPC  H11X 5941   4.599   6.800   3.547
   69SAPC  H11Y 5942   4.449   6.704   3.577
   69SAPC  C312 5943   4.521   6.825   3.744
   69SAPC  H12X 5944   4.570   6.923   3.756
   69SAPC  H12Y 5945   4.590   6.747   3.782
   69SAPC  C313 5946   4.393   6.822   3.828
   69SAPC  H13X 5947   4.306   6.838   3.761
   69SAPC  H13Y 5948   4.394   6.908   3.898
   69SAPC  C314 5949   4.371   6.694   3.909
   69SAPC  H14X 5950   4.428   6.699   4.004
   69SAPC  H14Y 5951   4.409   6.605   3.855
   69SAPC  C315 5952   4.220   6.677   3.937
   69SAPC  H15X 5953   4.168   6.674   3.839
   69SAPC  H15Y 5954   4.185   6.769   3.988
   69SAPC  C316 5955   4.181   6.552   4.017
   69SAPC  H16X 5956   4.226   6.558   4.118
   69SAPC  H16Y 5957   4.222   6.462   3.968
   69SAPC  C317 5958   4.029   6.534   4.033
   69SAPC  H17X 5959   4.011   6.466   4.119
   69SAPC  H17Y 5960   3.989   6.482   3.943
   69SAPC  C318 5961   3.949   6.663   4.054
   69SAPC  H18X 5962   3.987   6.718   4.143
   69SAPC  H18Y 5963   3.842   6.640   4.071
   69SAPC  H18Z 5964   3.957   6.729   3.966
   70SAPC     N 5965   6.893   4.084   2.300
   70SAPC   C12 5966   7.022   4.075   2.377
   70SAPC  H12A 5967   7.022   3.978   2.424
   70SAPC  H12B 5968   7.024   4.150   2.455
   70SAPC   C13 5969   6.906   4.187   2.193
   70SAPC  H13A 5970   6.987   4.157   2.127
   70SAPC  H13B 5971   6.816   4.192   2.134
   70SAPC  H13C 5972   6.930   4.285   2.232
   70SAPC   C14 5973   6.866   3.951   2.235
   70SAPC  H14A 5974   6.786   3.959   2.164
   70SAPC  H14B 5975   6.955   3.914   2.186
   70SAPC  H14C 5976   6.834   3.876   2.306
   70SAPC   C15 5977   6.776   4.111   2.390
   70SAPC  H15A 5978   6.759   4.029   2.457
   70SAPC  H15B 5979   6.785   4.204   2.445
   70SAPC  H15C 5980   6.686   4.118   2.331
   70SAPC   C11 5981   7.152   4.087   2.295
   70SAPC  H11A 5982   7.237   4.075   2.365
   70SAPC  H11B 5983   7.161   4.189   2.252
   70SAPC     P 5984   7.291   3.984   2.107
   70SAPC   O13 5985   7.309   3.857   2.033
   70SAPC   O14 5986   7.298   4.107   2.027
   70SAPC   O12 5987   7.157   3.987   2.192
   70SAPC   O11 5988   7.401   3.998   2.218
   70SAPC    C1 5989   7.470   3.892   2.283
   70SAPC    HA 5990   7.540   3.841   2.213
   70SAPC    HB 5991   7.530   3.940   2.362
   70SAPC    C2 5992   7.389   3.781   2.360
   70SAPC    HS 5993   7.351   3.709   2.284
   70SAPC   O21 5994   7.282   3.836   2.440
   70SAPC   C21 5995   7.165   3.772   2.440
   70SAPC   O22 5996   7.123   3.702   2.349
   70SAPC   C22 5997   7.092   3.805   2.572
   70SAPC   H2R 5998   7.164   3.783   2.654
   70SAPC   H2S 5999   7.066   3.913   2.575
   70SAPC    C3 6000   7.489   3.704   2.453
   70SAPC    HX 6001   7.568   3.662   2.387
   70SAPC    HY 6002   7.436   3.617   2.496
   70SAPC   O31 6003   7.556   3.784   2.555
   70SAPC   C31 6004   7.496   3.796   2.674
   70SAPC   O32 6005   7.388   3.750   2.702
   70SAPC   C32 6006   7.580   3.876   2.775
   70SAPC   H2X 6007   7.626   3.960   2.719
   70SAPC   H2Y 6008   7.666   3.811   2.804
   70SAPC   C23 6009   6.968   3.723   2.607
   70SAPC   H3R 6010   7.001   3.620   2.586
   70SAPC   H3S 6011   6.882   3.747   2.540
   70SAPC   C24 6012   6.923   3.720   2.757
   70SAPC   H4R 6013   7.008   3.685   2.818
   70SAPC   H4S 6014   6.850   3.636   2.756
   70SAPC   C25 6015   6.846   3.829   2.829
   70SAPC   H5R 6016   6.776   3.885   2.766
   70SAPC   C26 6017   6.850   3.855   2.963
   70SAPC   H6R 6018   6.784   3.934   3.001
   70SAPC   C27 6019   6.931   3.782   3.072
   70SAPC   H7R 6020   7.034   3.761   3.035
   70SAPC   H7S 6021   6.888   3.680   3.088
   70SAPC   C28 6022   6.939   3.858   3.204
   70SAPC   H8R 6023   6.889   3.956   3.199
   70SAPC   C29 6024   6.994   3.828   3.325
   70SAPC   H9R 6025   6.982   3.904   3.403
   70SAPC  C210 6026   7.068   3.707   3.379
   70SAPC  H10R 6027   7.002   3.619   3.364
   70SAPC  H10S 6028   7.072   3.720   3.490
   70SAPC  C211 6029   7.206   3.668   3.330
   70SAPC  H11R 6030   7.201   3.635   3.225
   70SAPC  C212 6031   7.329   3.662   3.388
   70SAPC  H12R 6032   7.409   3.634   3.317
   70SAPC  C213 6033   7.386   3.692   3.527
   70SAPC  H13R 6034   7.310   3.684   3.608
   70SAPC  H13S 6035   7.414   3.800   3.525
   70SAPC  C214 6036   7.512   3.612   3.558
   70SAPC  H14R 6037   7.576   3.605   3.468
   70SAPC  C215 6038   7.567   3.552   3.668
   70SAPC  H15R 6039   7.656   3.490   3.649
   70SAPC  C216 6040   7.530   3.537   3.814
   70SAPC  H16R 6041   7.518   3.428   3.827
   70SAPC  H16S 6042   7.434   3.589   3.830
   70SAPC  C217 6043   7.617   3.573   3.939
   70SAPC  H17R 6044   7.725   3.559   3.921
   70SAPC  H17S 6045   7.589   3.499   4.017
   70SAPC  C218 6046   7.581   3.704   4.008
   70SAPC  H18R 6047   7.471   3.720   4.007
   70SAPC  H18S 6048   7.625   3.787   3.948
   70SAPC  C219 6049   7.635   3.725   4.150
   70SAPC  H19R 6050   7.732   3.673   4.160
   70SAPC  H19S 6051   7.563   3.683   4.223
   70SAPC  C220 6052   7.653   3.872   4.186
   70SAPC  H20R 6053   7.714   3.923   4.108
   70SAPC  H20S 6054   7.703   3.882   4.285
   70SAPC  H20T 6055   7.555   3.925   4.191
   70SAPC   C33 6056   7.515   3.951   2.893
   70SAPC   H3X 6057   7.525   3.881   2.979
   70SAPC   H3Y 6058   7.408   3.961   2.866
   70SAPC   C34 6059   7.561   4.096   2.932
   70SAPC   H4X 6060   7.614   4.137   2.843
   70SAPC   H4Y 6061   7.637   4.095   3.013
   70SAPC   C35 6062   7.450   4.204   2.956
   70SAPC   H5X 6063   7.359   4.169   2.903
   70SAPC   H5Y 6064   7.477   4.297   2.900
   70SAPC   C36 6065   7.413   4.247   3.100
   70SAPC   H6X 6066   7.501   4.294   3.148
   70SAPC   H6Y 6067   7.395   4.155   3.158
   70SAPC   C37 6068   7.280   4.318   3.132
   70SAPC   H7X 6069   7.268   4.403   3.062
   70SAPC   H7Y 6070   7.190   4.255   3.116
   70SAPC   C38 6071   7.275   4.363   3.280
   70SAPC   H8X 6072   7.193   4.436   3.298
   70SAPC   H8Y 6073   7.373   4.413   3.294
   70SAPC   C39 6074   7.266   4.250   3.383
   70SAPC   H9X 6075   7.362   4.194   3.380
   70SAPC   H9Y 6076   7.183   4.181   3.356
   70SAPC  C310 6077   7.249   4.294   3.530
   70SAPC  H10X 6078   7.151   4.342   3.546
   70SAPC  H10Y 6079   7.328   4.369   3.553
   70SAPC  C311 6080   7.267   4.176   3.626
   70SAPC  H11X 6081   7.278   4.214   3.730
   70SAPC  H11Y 6082   7.361   4.123   3.601
   70SAPC  C312 6083   7.151   4.074   3.624
   70SAPC  H12X 6084   7.185   3.982   3.676
   70SAPC  H12Y 6085   7.126   4.045   3.520
   70SAPC  C313 6086   7.027   4.128   3.697
   70SAPC  H13X 6087   6.973   4.200   3.633
   70SAPC  H13Y 6088   7.062   4.184   3.787
   70SAPC  C314 6089   6.933   4.017   3.745
   70SAPC  H14X 6090   6.985   3.919   3.743
   70SAPC  H14Y 6091   6.849   4.009   3.672
   70SAPC  C315 6092   6.879   4.039   3.887
   70SAPC  H15X 6093   6.793   3.971   3.903
   70SAPC  H15Y 6094   6.842   4.143   3.898
   70SAPC  C316 6095   6.983   4.013   3.995
   70SAPC  H16X 6096   7.059   4.094   3.992
   70SAPC  H16Y 6097   7.034   3.917   3.973
   70SAPC  C317 6098   6.922   4.006   4.136
   70SAPC  H17X 6099   6.849   3.923   4.139
   70SAPC  H17Y 6100   6.866   4.100   4.156
   70SAPC  C318 6101   7.028   3.986   4.245
   70SAPC  H18X 6102   6.980   3.971   4.345
   70SAPC  H18Y 6103   7.095   4.074   4.252
   70SAPC  H18Z 6104   7.090   3.896   4.224
   71SAPC     N 6105   6.577   1.644   2.132
   71SAPC   C12 6106   6.577   1.586   2.273
   71SAPC  H12A 6107   6.510   1.646   2.334
   71SAPC  H12B 6108   6.675   1.598   2.319
   71SAPC   C13 6109   6.690   1.739   2.112
   71SAPC  H13A 6110   6.786   1.689   2.123
   71SAPC  H13B 6111   6.686   1.783   2.014
   71SAPC  H13C 6112   6.684   1.819   2.185
   71SAPC   C14 6113   6.581   1.534   2.031
   71SAPC  H14A 6114   6.674   1.479   2.034
   71SAPC  H14B 6115   6.501   1.465   2.056
   71SAPC  H14C 6116   6.562   1.571   1.931
   71SAPC   C15 6117   6.448   1.718   2.111
   71SAPC  H15A 6118   6.365   1.652   2.130
   71SAPC  H15B 6119   6.436   1.799   2.182
   71SAPC  H15C 6120   6.436   1.754   2.010
   71SAPC   C11 6121   6.529   1.440   2.295
   71SAPC  H11A 6122   6.528   1.417   2.404
   71SAPC  H11B 6123   6.602   1.369   2.249
   71SAPC     P 6124   6.273   1.487   2.301
   71SAPC   O13 6125   6.318   1.606   2.376
   71SAPC   O14 6126   6.185   1.511   2.185
   71SAPC   O12 6127   6.402   1.416   2.238
   71SAPC   O11 6128   6.217   1.377   2.400
   71SAPC    C1 6129   6.117   1.286   2.355
   71SAPC    HA 6130   6.026   1.341   2.322
   71SAPC    HB 6131   6.156   1.229   2.267
   71SAPC    C2 6132   6.070   1.177   2.459
   71SAPC    HS 6133   6.003   1.111   2.399
   71SAPC   O21 6134   6.002   1.238   2.573
   71SAPC   C21 6135   5.879   1.189   2.599
   71SAPC   O22 6136   5.830   1.096   2.536
   71SAPC   C22 6137   5.795   1.250   2.718
   71SAPC   H2R 6138   5.695   1.240   2.670
   71SAPC   H2S 6139   5.786   1.174   2.799
   71SAPC    C3 6140   6.191   1.086   2.503
   71SAPC    HX 6141   6.219   1.028   2.413
   71SAPC    HY 6142   6.152   1.012   2.576
   71SAPC   O31 6143   6.310   1.156   2.546
   71SAPC   C31 6144   6.341   1.143   2.674
   71SAPC   O32 6145   6.277   1.081   2.757
   71SAPC   C32 6146   6.479   1.205   2.700
   71SAPC   H2X 6147   6.474   1.313   2.672
   71SAPC   H2Y 6148   6.554   1.154   2.636
   71SAPC   C23 6149   5.787   1.400   2.770
   71SAPC   H3R 6150   5.677   1.414   2.774
   71SAPC   H3S 6151   5.815   1.467   2.687
   71SAPC   C24 6152   5.818   1.461   2.912
   71SAPC   H4R 6153   5.829   1.377   2.984
   71SAPC   H4S 6154   5.723   1.510   2.943
   71SAPC   C25 6155   5.922   1.571   2.939
   71SAPC   H5R 6156   5.950   1.632   2.852
   71SAPC   C26 6157   5.984   1.597   3.056
   71SAPC   H6R 6158   6.061   1.676   3.061
   71SAPC   C27 6159   5.960   1.518   3.182
   71SAPC   H7R 6160   5.953   1.413   3.146
   71SAPC   H7S 6161   5.861   1.542   3.226
   71SAPC   C28 6162   6.063   1.516   3.292
   71SAPC   H8R 6163   6.079   1.614   3.341
   71SAPC   C29 6164   6.133   1.409   3.336
   71SAPC   H9R 6165   6.212   1.426   3.410
   71SAPC  C210 6166   6.128   1.266   3.289
   71SAPC  H10R 6167   6.030   1.253   3.237
   71SAPC  H10S 6168   6.124   1.198   3.377
   71SAPC  C211 6169   6.226   1.216   3.188
   71SAPC  H11R 6170   6.270   1.293   3.123
   71SAPC  C212 6171   6.261   1.087   3.167
   71SAPC  H12R 6172   6.327   1.063   3.083
   71SAPC  C213 6173   6.209   0.967   3.241
   71SAPC  H13R 6174   6.246   0.879   3.184
   71SAPC  H13S 6175   6.099   0.967   3.227
   71SAPC  C214 6176   6.235   0.938   3.387
   71SAPC  H14R 6177   6.181   0.848   3.420
   71SAPC  C215 6178   6.313   0.997   3.479
   71SAPC  H15R 6179   6.312   0.954   3.580
   71SAPC  C216 6180   6.405   1.117   3.470
   71SAPC  H16R 6181   6.407   1.163   3.369
   71SAPC  H16S 6182   6.510   1.087   3.491
   71SAPC  C217 6183   6.370   1.226   3.572
   71SAPC  H17R 6184   6.271   1.270   3.548
   71SAPC  H17S 6185   6.447   1.306   3.562
   71SAPC  C218 6186   6.370   1.179   3.718
   71SAPC  H18R 6187   6.420   1.256   3.781
   71SAPC  H18S 6188   6.430   1.086   3.727
   71SAPC  C219 6189   6.228   1.158   3.771
   71SAPC  H19R 6190   6.174   1.084   3.708
   71SAPC  H19S 6191   6.173   1.254   3.765
   71SAPC  C220 6192   6.229   1.109   3.915
   71SAPC  H20R 6193   6.279   1.184   3.979
   71SAPC  H20S 6194   6.284   1.013   3.923
   71SAPC  H20T 6195   6.126   1.092   3.954
   71SAPC   C33 6196   6.517   1.191   2.850
   71SAPC   H3X 6197   6.516   1.084   2.880
   71SAPC   H3Y 6198   6.438   1.241   2.908
   71SAPC   C34 6199   6.654   1.247   2.891
   71SAPC   H4X 6200   6.655   1.357   2.875
   71SAPC   H4Y 6201   6.734   1.203   2.827
   71SAPC   C35 6202   6.689   1.223   3.039
   71SAPC   H5X 6203   6.775   1.287   3.066
   71SAPC   H5Y 6204   6.724   1.118   3.049
   71SAPC   C36 6205   6.572   1.246   3.136
   71SAPC   H6X 6206   6.606   1.226   3.240
   71SAPC   H6Y 6207   6.495   1.170   3.115
   71SAPC   C37 6208   6.513   1.388   3.125
   71SAPC   H7X 6209   6.438   1.396   3.044
   71SAPC   H7Y 6210   6.601   1.447   3.093
   71SAPC   C38 6211   6.456   1.451   3.255
   71SAPC   H8X 6212   6.543   1.468   3.323
   71SAPC   H8Y 6213   6.393   1.376   3.308
   71SAPC   C39 6214   6.379   1.585   3.243
   71SAPC   H9X 6215   6.284   1.566   3.188
   71SAPC   H9Y 6216   6.430   1.656   3.174
   71SAPC  C310 6217   6.357   1.670   3.371
   71SAPC  H10X 6218   6.254   1.712   3.368
   71SAPC  H10Y 6219   6.424   1.759   3.365
   71SAPC  C311 6220   6.383   1.606   3.509
   71SAPC  H11X 6221   6.483   1.641   3.543
   71SAPC  H11Y 6222   6.388   1.495   3.501
   71SAPC  C312 6223   6.282   1.642   3.620
   71SAPC  H12X 6224   6.217   1.725   3.587
   71SAPC  H12Y 6225   6.342   1.678   3.707
   71SAPC  C313 6226   6.199   1.525   3.676
   71SAPC  H13X 6227   6.268   1.456   3.730
   71SAPC  H13Y 6228   6.152   1.469   3.593
   71SAPC  C314 6229   6.084   1.568   3.769
   71SAPC  H14X 6230   6.030   1.478   3.804
   71SAPC  H14Y 6231   6.013   1.627   3.707
   71SAPC  C315 6232   6.125   1.654   3.889
   71SAPC  H15X 6233   6.036   1.712   3.923
   71SAPC  H15Y 6234   6.202   1.729   3.858
   71SAPC  C316 6235   6.178   1.576   4.010
   71SAPC  H16X 6236   6.256   1.503   3.979
   71SAPC  H16Y 6237   6.094   1.519   4.055
   71SAPC  C317 6238   6.237   1.672   4.115
   71SAPC  H17X 6239   6.192   1.772   4.099
   71SAPC  H17Y 6240   6.346   1.682   4.095
   71SAPC  C318 6241   6.216   1.633   4.260
   71SAPC  H18X 6242   6.249   1.714   4.329
   71SAPC  H18Y 6243   6.274   1.541   4.284
   71SAPC  H18Z 6244   6.108   1.613   4.280
   72SAPC     N 6245   5.753   0.585   2.118
   72SAPC   C12 6246   5.898   0.612   2.157
   72SAPC  H12A 6247   5.901   0.691   2.231
   72SAPC  H12B 6248   5.953   0.650   2.072
   72SAPC   C13 6249   5.744   0.450   2.053
   72SAPC  H13A 6250   5.783   0.375   2.120
   72SAPC  H13B 6251   5.642   0.423   2.029
   72SAPC  H13C 6252   5.804   0.446   1.963
   72SAPC   C14 6253   5.670   0.582   2.243
   72SAPC  H14A 6254   5.712   0.510   2.310
   72SAPC  H14B 6255   5.671   0.677   2.294
   72SAPC  H14C 6256   5.567   0.556   2.223
   72SAPC   C15 6257   5.704   0.690   2.023
   72SAPC  H15A 6258   5.710   0.788   2.067
   72SAPC  H15B 6259   5.766   0.692   1.934
   72SAPC  H15C 6260   5.602   0.671   1.992
   72SAPC   C11 6261   5.979   0.493   2.214
   72SAPC  H11A 6262   6.076   0.532   2.251
   72SAPC  H11B 6263   6.002   0.426   2.129
   72SAPC     P 6264   5.937   0.273   2.343
   72SAPC   O13 6265   5.901   0.233   2.479
   72SAPC   O14 6266   5.868   0.202   2.232
   72SAPC   O12 6267   5.909   0.427   2.321
   72SAPC   O11 6268   6.093   0.260   2.316
   72SAPC    C1 6269   6.182   0.185   2.398
   72SAPC    HA 6270   6.131   0.108   2.459
   72SAPC    HB 6271   6.252   0.131   2.331
   72SAPC    C2 6272   6.273   0.271   2.491
   72SAPC    HS 6273   6.370   0.219   2.497
   72SAPC   O21 6274   6.212   0.281   2.619
   72SAPC   C21 6275   6.255   0.201   2.713
   72SAPC   O22 6276   6.331   0.108   2.698
   72SAPC   C22 6277   6.198   0.248   2.845
   72SAPC   H2R 6278   6.237   0.183   2.927
   72SAPC   H2S 6279   6.231   0.352   2.862
   72SAPC    C3 6280   6.305   0.416   2.443
   72SAPC    HX 6281   6.339   0.409   2.337
   72SAPC    HY 6282   6.391   0.454   2.502
   72SAPC   O31 6283   6.193   0.507   2.450
   72SAPC   C31 6284   6.166   0.562   2.568
   72SAPC   O32 6285   6.232   0.549   2.670
   72SAPC   C32 6286   6.043   0.652   2.551
   72SAPC   H2X 6287   5.962   0.590   2.508
   72SAPC   H2Y 6288   6.071   0.731   2.478
   72SAPC   C23 6289   6.044   0.242   2.839
   72SAPC   H3R 6290   6.014   0.135   2.833
   72SAPC   H3S 6291   6.009   0.291   2.746
   72SAPC   C24 6292   5.981   0.313   2.959
   72SAPC   H4R 6293   6.027   0.414   2.966
   72SAPC   H4S 6294   6.009   0.261   3.052
   72SAPC   C25 6295   5.831   0.326   2.939
   72SAPC   H5R 6296   5.802   0.354   2.836
   72SAPC   C26 6297   5.735   0.308   3.031
   72SAPC   H6R 6298   5.630   0.321   3.000
   72SAPC   C27 6299   5.757   0.269   3.174
   72SAPC   H7R 6300   5.862   0.291   3.204
   72SAPC   H7S 6301   5.747   0.158   3.180
   72SAPC   C28 6302   5.666   0.331   3.277
   72SAPC   H8R 6303   5.603   0.415   3.244
   72SAPC   C29 6304   5.660   0.287   3.404
   72SAPC   H9R 6305   5.591   0.335   3.475
   72SAPC  C210 6306   5.744   0.173   3.456
   72SAPC  H10R 6307   5.838   0.164   3.397
   72SAPC  H10S 6308   5.692   0.077   3.439
   72SAPC  C211 6309   5.785   0.182   3.600
   72SAPC  H11R 6310   5.868   0.252   3.619
   72SAPC  C212 6311   5.735   0.114   3.705
   72SAPC  H12R 6312   5.787   0.126   3.801
   72SAPC  C213 6313   5.625   0.012   3.708
   72SAPC  H13R 6314   5.567   0.013   3.613
   72SAPC  H13S 6315   5.552   0.041   3.787
   72SAPC  C214 6316   5.678  -0.127   3.733
   72SAPC  H14R 6317   5.725  -0.173   3.645
   72SAPC  C215 6318   5.672  -0.200   3.846
   72SAPC  H15R 6319   5.717  -0.300   3.845
   72SAPC  C216 6320   5.610  -0.163   3.979
   72SAPC  H16R 6321   5.550  -0.250   4.014
   72SAPC  H16S 6322   5.539  -0.078   3.968
   72SAPC  C217 6323   5.704  -0.129   4.096
   72SAPC  H17R 6324   5.645  -0.137   4.190
   72SAPC  H17S 6325   5.733  -0.022   4.090
   72SAPC  C218 6326   5.829  -0.217   4.108
   72SAPC  H18R 6327   5.826  -0.300   4.034
   72SAPC  H18S 6328   5.830  -0.266   4.208
   72SAPC  C219 6329   5.961  -0.140   4.091
   72SAPC  H19R 6330   6.041  -0.216   4.079
   72SAPC  H19S 6331   5.982  -0.086   4.186
   72SAPC  C220 6332   5.967  -0.038   3.977
   72SAPC  H20R 6333   5.896   0.046   3.992
   72SAPC  H20S 6334   5.940  -0.087   3.881
   72SAPC  H20T 6335   6.069   0.005   3.969
   72SAPC   C33 6336   5.994   0.719   2.682
   72SAPC   H3X 6337   5.922   0.800   2.655
   72SAPC   H3Y 6338   6.079   0.767   2.736
   72SAPC   C34 6339   5.922   0.620   2.774
   72SAPC   H4X 6340   5.998   0.552   2.817
   72SAPC   H4Y 6341   5.854   0.557   2.712
   72SAPC   C35 6342   5.838   0.683   2.886
   72SAPC   H5X 6343   5.786   0.602   2.943
   72SAPC   H5Y 6344   5.759   0.746   2.840
   72SAPC   C36 6345   5.916   0.769   2.987
   72SAPC   H6X 6346   5.845   0.815   3.059
   72SAPC   H6Y 6347   5.965   0.851   2.931
   72SAPC   C37 6348   6.026   0.695   3.066
   72SAPC   H7X 6349   6.086   0.773   3.118
   72SAPC   H7Y 6350   6.094   0.644   2.995
   72SAPC   C38 6351   5.979   0.595   3.173
   72SAPC   H8X 6352   6.069   0.546   3.214
   72SAPC   H8Y 6353   5.915   0.517   3.127
   72SAPC   C39 6354   5.901   0.656   3.291
   72SAPC   H9X 6355   5.797   0.676   3.257
   72SAPC   H9Y 6356   5.945   0.753   3.322
   72SAPC  C310 6357   5.897   0.561   3.412
   72SAPC  H10X 6358   5.895   0.456   3.375
   72SAPC  H10Y 6359   5.804   0.577   3.471
   72SAPC  C311 6360   6.018   0.578   3.506
   72SAPC  H11X 6361   6.009   0.674   3.560
   72SAPC  H11Y 6362   6.110   0.582   3.444
   72SAPC  C312 6363   6.034   0.462   3.606
   72SAPC  H12X 6364   6.046   0.368   3.547
   72SAPC  H12Y 6365   5.942   0.452   3.668
   72SAPC  C313 6366   6.156   0.479   3.698
   72SAPC  H13X 6367   6.132   0.551   3.779
   72SAPC  H13Y 6368   6.237   0.524   3.637
   72SAPC  C314 6369   6.210   0.347   3.757
   72SAPC  H14X 6370   6.218   0.273   3.675
   72SAPC  H14Y 6371   6.140   0.307   3.833
   72SAPC  C315 6372   6.350   0.367   3.818
   72SAPC  H15X 6373   6.344   0.434   3.906
   72SAPC  H15Y 6374   6.410   0.421   3.742
   72SAPC  C316 6375   6.426   0.237   3.850
   72SAPC  H16X 6376   6.532   0.265   3.873
   72SAPC  H16Y 6377   6.426   0.175   3.758
   72SAPC  C317 6378   6.377   0.150   3.966
   72SAPC  H17X 6379   6.364   0.046   3.928
   72SAPC  H17Y 6380   6.276   0.183   4.000
   72SAPC  C318 6381   6.475   0.139   4.084
   72SAPC  H18X 6382   6.570   0.093   4.050
   72SAPC  H18Y 6383   6.432   0.074   4.164
   72SAPC  H18Z 6384   6.498   0.238   4.127
   73SLPC     N 6385   4.791   3.928   6.087
   73SLPC   C13 6386   4.685   4.009   6.154
   73SLPC  H13A 6387   4.642   4.078   6.082
   73SLPC  H13B 6388   4.601   3.947   6.182
   73SLPC  H13C 6389   4.720   4.064   6.239
   73SLPC   C14 6390   4.859   3.839   6.186
   73SLPC  H14A 6391   4.789   3.773   6.236
   73SLPC  H14B 6392   4.931   3.775   6.136
   73SLPC  H14C 6393   4.912   3.896   6.261
   73SLPC   C15 6394   4.891   4.022   6.025
   73SLPC  H15A 6395   4.967   3.967   5.972
   73SLPC  H15B 6396   4.841   4.085   5.954
   73SLPC  H15C 6397   4.938   4.086   6.098
   73SLPC   C12 6398   4.730   3.843   5.977
   73SLPC  H12A 6399   4.668   3.768   6.024
   73SLPC  H12B 6400   4.808   3.791   5.924
   73SLPC   C11 6401   4.633   3.907   5.875
   73SLPC  H11A 6402   4.614   3.833   5.794
   73SLPC  H11B 6403   4.681   3.995   5.827
   73SLPC     P 6404   4.431   4.070   5.918
   73SLPC   O13 6405   4.344   4.063   5.800
   73SLPC   O14 6406   4.374   4.109   6.049
   73SLPC   O12 6407   4.510   3.935   5.939
   73SLPC   O11 6408   4.550   4.171   5.891
   73SLPC    C1 6409   4.515   4.308   5.870
   73SLPC    HA 6410   4.431   4.318   5.798
   73SLPC    HB 6411   4.486   4.353   5.967
   73SLPC    C2 6412   4.633   4.391   5.814
   73SLPC    HS 6413   4.623   4.492   5.860
   73SLPC   O21 6414   4.618   4.399   5.671
   73SLPC   C21 6415   4.632   4.518   5.615
   73SLPC   O22 6416   4.652   4.623   5.673
   73SLPC   C22 6417   4.615   4.510   5.462
   73SLPC   H2R 6418   4.576   4.608   5.428
   73SLPC   H2S 6419   4.717   4.495   5.419
   73SLPC    C3 6420   4.771   4.334   5.862
   73SLPC    HX 6421   4.760   4.322   5.972
   73SLPC    HY 6422   4.853   4.408   5.850
   73SLPC   O31 6423   4.811   4.207   5.808
   73SLPC   C31 6424   4.846   4.204   5.681
   73SLPC   O32 6425   4.851   4.297   5.603
   73SLPC   C32 6426   4.892   4.063   5.646
   73SLPC   H2X 6427   4.872   3.992   5.729
   73SLPC   H2Y 6428   5.002   4.071   5.629
   73SLPC   C23 6429   4.520   4.398   5.416
   73SLPC   H3R 6430   4.423   4.408   5.470
   73SLPC   H3S 6431   4.561   4.300   5.449
   73SLPC   C24 6432   4.495   4.396   5.265
   73SLPC   H4R 6433   4.485   4.500   5.227
   73SLPC   H4S 6434   4.400   4.344   5.243
   73SLPC   C25 6435   4.611   4.330   5.190
   73SLPC   H5R 6436   4.605   4.219   5.200
   73SLPC   H5S 6437   4.705   4.366   5.238
   73SLPC   C26 6438   4.617   4.348   5.039
   73SLPC   H6R 6439   4.615   4.455   5.009
   73SLPC   H6S 6440   4.523   4.308   4.995
   73SLPC   C27 6441   4.742   4.281   4.979
   73SLPC   H7R 6442   4.756   4.315   4.874
   73SLPC   H7S 6443   4.725   4.172   4.976
   73SLPC   C28 6444   4.871   4.309   5.059
   73SLPC   H8R 6445   4.863   4.260   5.158
   73SLPC   H8S 6446   4.879   4.418   5.081
   73SLPC   C29 6447   4.998   4.270   4.990
   73SLPC   H9R 6448   5.037   4.343   4.918
   73SLPC  C210 6449   5.068   4.158   5.016
   73SLPC  H10R 6450   5.160   4.138   4.960
   73SLPC  C211 6451   5.026   4.056   5.118
   73SLPC  H11R 6452   5.022   4.103   5.219
   73SLPC  H11S 6453   5.108   3.981   5.125
   73SLPC  C212 6454   4.895   3.988   5.088
   73SLPC  H12R 6455   4.813   4.014   5.156
   73SLPC  C213 6456   4.869   3.907   4.983
   73SLPC  H13R 6457   4.768   3.868   4.969
   73SLPC  C214 6458   4.968   3.869   4.876
   73SLPC  H14R 6459   5.017   3.774   4.907
   73SLPC  H14S 6460   5.049   3.944   4.862
   73SLPC  C215 6461   4.905   3.841   4.739
   73SLPC  H15R 6462   4.815   3.777   4.751
   73SLPC  H15S 6463   4.982   3.781   4.685
   73SLPC  C216 6464   4.874   3.963   4.652
   73SLPC  H16R 6465   4.832   4.046   4.714
   73SLPC  H16S 6466   4.796   3.932   4.579
   73SLPC  C217 6467   4.994   4.011   4.571
   73SLPC  H17R 6468   5.052   3.923   4.534
   73SLPC  H17S 6469   5.062   4.070   4.637
   73SLPC  C218 6470   4.953   4.093   4.450
   73SLPC  H18R 6471   4.880   4.172   4.478
   73SLPC  H18S 6472   4.905   4.027   4.374
   73SLPC  H18T 6473   5.041   4.141   4.402
   73SLPC   C33 6474   4.823   4.019   5.517
   73SLPC   H3X 6475   4.861   3.920   5.483
   73SLPC   H3Y 6476   4.852   4.091   5.437
   73SLPC   C34 6477   4.670   4.015   5.529
   73SLPC   H4X 6478   4.631   4.095   5.595
   73SLPC   H4Y 6479   4.634   3.918   5.570
   73SLPC   C35 6480   4.615   4.043   5.390
   73SLPC   H5X 6481   4.665   3.973   5.319
   73SLPC   H5Y 6482   4.655   4.143   5.365
   73SLPC   C36 6483   4.463   4.037   5.372
   73SLPC   H6X 6484   4.419   4.138   5.385
   73SLPC   H6Y 6485   4.420   3.974   5.452
   73SLPC   C37 6486   4.423   3.980   5.234
   73SLPC   H7X 6487   4.359   3.890   5.248
   73SLPC   H7Y 6488   4.514   3.946   5.180
   73SLPC   C38 6489   4.349   4.078   5.143
   73SLPC   H8X 6490   4.409   4.171   5.131
   73SLPC   H8Y 6491   4.253   4.108   5.191
   73SLPC   C39 6492   4.326   4.021   5.004
   73SLPC   H9X 6493   4.247   4.082   4.954
   73SLPC   H9Y 6494   4.289   3.916   5.010
   73SLPC  C310 6495   4.453   4.028   4.917
   73SLPC  H10X 6496   4.533   3.963   4.957
   73SLPC  H10Y 6497   4.490   4.133   4.920
   73SLPC  C311 6498   4.422   3.992   4.772
   73SLPC  H11X 6499   4.316   4.020   4.752
   73SLPC  H11Y 6500   4.430   3.881   4.768
   73SLPC  C312 6501   4.509   4.050   4.660
   73SLPC  H12X 6502   4.446   4.053   4.569
   73SLPC  H12Y 6503   4.592   3.978   4.642
   73SLPC  C313 6504   4.572   4.189   4.681
   73SLPC  H13X 6505   4.627   4.219   4.589
   73SLPC  H13Y 6506   4.650   4.170   4.758
   73SLPC  C314 6507   4.467   4.302   4.721
   73SLPC  H14X 6508   4.553   4.326   4.787
   73SLPC  H14Y 6509   4.446   4.305   4.612
   73SLPC  C315 6510   4.478   4.460   4.710
   73SLPC  H15X 6511   4.572   4.488   4.657
   73SLPC  H15Y 6512   4.485   4.503   4.812
   73SLPC  C316 6513   4.359   4.532   4.646
   73SLPC  H16X 6514   4.369   4.640   4.671
   73SLPC  H16Y 6515   4.264   4.496   4.692
   73SLPC  C317 6516   4.351   4.522   4.494
   73SLPC  H17X 6517   4.275   4.594   4.457
   73SLPC  H17Y 6518   4.315   4.420   4.466
   73SLPC  C318 6519   4.483   4.546   4.423
   73SLPC  H18X 6520   4.534   4.638   4.462
   73SLPC  H18Y 6521   4.465   4.560   4.314
   73SLPC  H18Z 6522   4.553   4.460   4.435
   74SLPC     N 6523   2.272   4.211   6.126
   74SLPC   C13 6524   2.414   4.258   6.124
   74SLPC  H13A 6525   2.474   4.204   6.195
   74SLPC  H13B 6526   2.453   4.239   6.025
   74SLPC  H13C 6527   2.420   4.364   6.143
   74SLPC   C14 6528   2.197   4.291   6.024
   74SLPC  H14A 6529   2.093   4.264   6.019
   74SLPC  H14B 6530   2.205   4.398   6.035
   74SLPC  H14C 6531   2.232   4.264   5.925
   74SLPC   C15 6532   2.209   4.232   6.260
   74SLPC  H15A 6533   2.263   4.178   6.337
   74SLPC  H15B 6534   2.210   4.337   6.284
   74SLPC  H15C 6535   2.106   4.199   6.258
   74SLPC   C12 6536   2.264   4.064   6.081
   74SLPC  H12A 6537   2.167   4.048   6.035
   74SLPC  H12B 6538   2.270   3.999   6.167
   74SLPC   C11 6539   2.368   4.014   5.977
   74SLPC  H11A 6540   2.356   3.905   5.964
   74SLPC  H11B 6541   2.471   4.027   6.015
   74SLPC     P 6542   2.232   4.044   5.759
   74SLPC   O13 6543   2.216   3.897   5.763
   74SLPC   O14 6544   2.120   4.126   5.810
   74SLPC   O12 6545   2.355   4.084   5.852
   74SLPC   O11 6546   2.277   4.094   5.616
   74SLPC    C1 6547   2.304   4.231   5.587
   74SLPC    HA 6548   2.333   4.287   5.678
   74SLPC    HB 6549   2.390   4.238   5.517
   74SLPC    C2 6550   2.183   4.303   5.520
   74SLPC    HS 6551   2.095   4.282   5.584
   74SLPC   O21 6552   2.166   4.262   5.383
   74SLPC   C21 6553   2.055   4.199   5.353
   74SLPC   O22 6554   1.973   4.156   5.431
   74SLPC   C22 6555   2.037   4.196   5.201
   74SLPC   H2R 6556   2.100   4.274   5.153
   74SLPC   H2S 6557   2.076   4.097   5.170
   74SLPC    C3 6558   2.204   4.457   5.518
   74SLPC    HX 6559   2.244   4.491   5.616
   74SLPC    HY 6560   2.105   4.505   5.505
   74SLPC   O31 6561   2.296   4.491   5.412
   74SLPC   C31 6562   2.272   4.598   5.336
   74SLPC   O32 6563   2.195   4.688   5.363
   74SLPC   C32 6564   2.377   4.600   5.224
   74SLPC   H2X 6565   2.420   4.497   5.221
   74SLPC   H2Y 6566   2.451   4.673   5.262
   74SLPC   C23 6567   1.887   4.209   5.159
   74SLPC   H3R 6568   1.852   4.313   5.142
   74SLPC   H3S 6569   1.823   4.174   5.242
   74SLPC   C24 6570   1.852   4.122   5.037
   74SLPC   H4R 6571   1.764   4.059   5.060
   74SLPC   H4S 6572   1.937   4.055   5.014
   74SLPC   C25 6573   1.821   4.203   4.912
   74SLPC   H5R 6574   1.910   4.267   4.893
   74SLPC   H5S 6575   1.733   4.269   4.929
   74SLPC   C26 6576   1.795   4.110   4.793
   74SLPC   H6R 6577   1.705   4.049   4.814
   74SLPC   H6S 6578   1.880   4.039   4.783
   74SLPC   C27 6579   1.777   4.187   4.662
   74SLPC   H7R 6580   1.685   4.249   4.672
   74SLPC   H7S 6581   1.763   4.116   4.578
   74SLPC   C28 6582   1.884   4.293   4.632
   74SLPC   H8R 6583   1.865   4.371   4.710
   74SLPC   H8S 6584   1.864   4.340   4.533
   74SLPC   C29 6585   2.025   4.243   4.643
   74SLPC   H9R 6586   2.037   4.159   4.712
   74SLPC  C210 6587   2.135   4.290   4.583
   74SLPC  H10R 6588   2.229   4.235   4.604
   74SLPC  C211 6589   2.152   4.405   4.489
   74SLPC  H11R 6590   2.064   4.473   4.485
   74SLPC  H11S 6591   2.168   4.368   4.386
   74SLPC  C212 6592   2.274   4.477   4.544
   74SLPC  H12R 6593   2.263   4.517   4.646
   74SLPC  C213 6594   2.390   4.495   4.479
   74SLPC  H13R 6595   2.472   4.546   4.531
   74SLPC  C214 6596   2.420   4.450   4.339
   74SLPC  H14R 6597   2.383   4.347   4.320
   74SLPC  H14S 6598   2.530   4.449   4.323
   74SLPC  C215 6599   2.355   4.546   4.238
   74SLPC  H15R 6600   2.366   4.651   4.271
   74SLPC  H15S 6601   2.246   4.525   4.232
   74SLPC  C216 6602   2.418   4.538   4.098
   74SLPC  H16R 6603   2.524   4.569   4.109
   74SLPC  H16S 6604   2.369   4.611   4.031
   74SLPC  C217 6605   2.410   4.400   4.031
   74SLPC  H17R 6606   2.456   4.323   4.096
   74SLPC  H17S 6607   2.469   4.404   3.937
   74SLPC  C218 6608   2.269   4.358   3.993
   74SLPC  H18R 6609   2.223   4.435   3.928
   74SLPC  H18S 6610   2.205   4.344   4.083
   74SLPC  H18T 6611   2.272   4.262   3.937
   74SLPC   C33 6612   2.349   4.640   5.076
   74SLPC   H3X 6613   2.411   4.730   5.057
   74SLPC   H3Y 6614   2.246   4.675   5.057
   74SLPC   C34 6615   2.398   4.535   4.972
   74SLPC   H4X 6616   2.508   4.529   4.986
   74SLPC   H4Y 6617   2.379   4.573   4.870
   74SLPC   C35 6618   2.352   4.387   4.979
   74SLPC   H5X 6619   2.245   4.377   4.951
   74SLPC   H5Y 6620   2.365   4.348   5.082
   74SLPC   C36 6621   2.438   4.298   4.884
   74SLPC   H6X 6622   2.542   4.336   4.890
   74SLPC   H6Y 6623   2.405   4.311   4.779
   74SLPC   C37 6624   2.445   4.148   4.920
   74SLPC   H7X 6625   2.456   4.140   5.030
   74SLPC   H7Y 6626   2.537   4.105   4.875
   74SLPC   C38 6627   2.326   4.062   4.874
   74SLPC   H8X 6628   2.233   4.121   4.887
   74SLPC   H8Y 6629   2.319   3.973   4.940
   74SLPC   C39 6630   2.338   4.011   4.729
   74SLPC   H9X 6631   2.426   3.944   4.718
   74SLPC   H9Y 6632   2.357   4.098   4.662
   74SLPC  C310 6633   2.211   3.936   4.682
   74SLPC  H10X 6634   2.125   3.979   4.737
   74SLPC  H10Y 6635   2.217   3.829   4.712
   74SLPC  C311 6636   2.181   3.948   4.531
   74SLPC  H11X 6637   2.244   3.874   4.476
   74SLPC  H11Y 6638   2.209   4.049   4.494
   74SLPC  C312 6639   2.033   3.925   4.498
   74SLPC  H12X 6640   1.969   3.980   4.570
   74SLPC  H12Y 6641   2.013   3.817   4.516
   74SLPC  C313 6642   1.988   3.963   4.355
   74SLPC  H13X 6643   1.894   3.908   4.333
   74SLPC  H13Y 6644   2.062   3.931   4.278
   74SLPC  C314 6645   1.950   4.109   4.333
   74SLPC  H14X 6646   2.040   4.174   4.325
   74SLPC  H14Y 6647   1.893   4.142   4.423
   74SLPC  C315 6648   1.854   4.130   4.215
   74SLPC  H15X 6649   1.776   4.051   4.216
   74SLPC  H15Y 6650   1.912   4.119   4.120
   74SLPC  C316 6651   1.785   4.267   4.219
   74SLPC  H16X 6652   1.864   4.345   4.226
   74SLPC  H16Y 6653   1.722   4.274   4.310
   74SLPC  C317 6654   1.698   4.295   4.095
   74SLPC  H17X 6655   1.763   4.286   4.006
   74SLPC  H17Y 6656   1.664   4.401   4.100
   74SLPC  C318 6657   1.576   4.205   4.079
   74SLPC  H18X 6658   1.607   4.098   4.067
   74SLPC  H18Y 6659   1.518   4.234   3.989
   74SLPC  H18Z 6660   1.510   4.213   4.168
   75SLPC     N 6661   5.578   4.674   6.084
   75SLPC   C13 6662   5.698   4.692   6.172
   75SLPC  H13A 6663   5.695   4.784   6.229
   75SLPC  H13B 6664   5.710   4.609   6.240
   75SLPC  H13C 6665   5.786   4.693   6.109
   75SLPC   C14 6666   5.563   4.797   5.999
   75SLPC  H14A 6667   5.478   4.791   5.933
   75SLPC  H14B 6668   5.554   4.887   6.059
   75SLPC  H14C 6669   5.651   4.808   5.938
   75SLPC   C15 6670   5.456   4.653   6.169
   75SLPC  H15A 6671   5.437   4.739   6.231
   75SLPC  H15B 6672   5.369   4.634   6.108
   75SLPC  H15C 6673   5.469   4.566   6.232
   75SLPC   C12 6674   5.600   4.553   5.995
   75SLPC  H12A 6675   5.508   4.528   5.944
   75SLPC  H12B 6676   5.627   4.469   6.058
   75SLPC   C11 6677   5.712   4.564   5.889
   75SLPC  H11A 6678   5.687   4.645   5.816
   75SLPC  H11B 6679   5.715   4.469   5.832
   75SLPC     P 6680   5.968   4.585   5.863
   75SLPC   O13 6681   6.071   4.667   5.930
   75SLPC   O14 6682   5.998   4.441   5.840
   75SLPC   O12 6683   5.837   4.589   5.952
   75SLPC   O11 6684   5.914   4.653   5.731
   75SLPC    C1 6685   5.952   4.782   5.683
   75SLPC    HA 6686   5.928   4.860   5.758
   75SLPC    HB 6687   6.061   4.785   5.664
   75SLPC    C2 6688   5.879   4.820   5.549
   75SLPC    HS 6689   5.917   4.919   5.517
   75SLPC   O21 6690   5.738   4.830   5.575
   75SLPC   C21 6691   5.665   4.863   5.469
   75SLPC   O22 6692   5.702   4.930   5.375
   75SLPC   C22 6693   5.531   4.791   5.479
   75SLPC   H2R 6694   5.478   4.834   5.566
   75SLPC   H2S 6695   5.472   4.813   5.387
   75SLPC    C3 6696   5.908   4.719   5.433
   75SLPC    HX 6697   6.014   4.729   5.399
   75SLPC    HY 6698   5.850   4.746   5.342
   75SLPC   O31 6699   5.875   4.584   5.468
   75SLPC   C31 6700   5.975   4.505   5.502
   75SLPC   O32 6701   6.094   4.534   5.505
   75SLPC   C32 6702   5.917   4.367   5.524
   75SLPC   H2X 6703   5.844   4.375   5.607
   75SLPC   H2Y 6704   6.000   4.300   5.556
   75SLPC   C23 6705   5.552   4.639   5.500
   75SLPC   H3R 6706   5.461   4.597   5.547
   75SLPC   H3S 6707   5.633   4.620   5.574
   75SLPC   C24 6708   5.582   4.556   5.374
   75SLPC   H4R 6709   5.585   4.449   5.407
   75SLPC   H4S 6710   5.682   4.583   5.335
   75SLPC   C25 6711   5.484   4.564   5.257
   75SLPC   H5R 6712   5.478   4.668   5.219
   75SLPC   H5S 6713   5.382   4.540   5.296
   75SLPC   C26 6714   5.506   4.460   5.146
   75SLPC   H6R 6715   5.417   4.456   5.080
   75SLPC   H6S 6716   5.514   4.360   5.195
   75SLPC   C27 6717   5.628   4.481   5.056
   75SLPC   H7R 6718   5.645   4.387   4.998
   75SLPC   H7S 6719   5.717   4.496   5.122
   75SLPC   C28 6720   5.615   4.597   4.956
   75SLPC   H8R 6721   5.517   4.592   4.904
   75SLPC   H8S 6722   5.691   4.584   4.877
   75SLPC   C29 6723   5.633   4.729   5.027
   75SLPC   H9R 6724   5.541   4.777   5.063
   75SLPC  C210 6725   5.748   4.794   5.044
   75SLPC  H10R 6726   5.748   4.889   5.099
   75SLPC  C211 6727   5.883   4.749   4.994
   75SLPC  H11R 6728   5.876   4.663   4.924
   75SLPC  H11S 6729   5.943   4.713   5.080
   75SLPC  C212 6730   5.956   4.860   4.925
   75SLPC  H12R 6731   6.062   4.867   4.954
   75SLPC  C213 6732   5.912   4.947   4.831
   75SLPC  H13R 6733   5.982   5.022   4.793
   75SLPC  C214 6734   5.776   4.955   4.766
   75SLPC  H14R 6735   5.729   5.053   4.788
   75SLPC  H14S 6736   5.707   4.876   4.802
   75SLPC  C215 6737   5.791   4.937   4.614
   75SLPC  H15R 6738   5.839   5.027   4.571
   75SLPC  H15S 6739   5.689   4.931   4.570
   75SLPC  C216 6740   5.872   4.812   4.574
   75SLPC  H16R 6741   5.814   4.721   4.605
   75SLPC  H16S 6742   5.969   4.808   4.628
   75SLPC  C217 6743   5.906   4.805   4.425
   75SLPC  H17R 6744   5.961   4.710   4.406
   75SLPC  H17S 6745   5.974   4.889   4.400
   75SLPC  C218 6746   5.783   4.811   4.334
   75SLPC  H18R 6747   5.811   4.794   4.229
   75SLPC  H18S 6748   5.734   4.911   4.342
   75SLPC  H18T 6749   5.709   4.734   4.366
   75SLPC   C33 6750   5.849   4.317   5.395
   75SLPC   H3X 6751   5.774   4.389   5.356
   75SLPC   H3Y 6752   5.795   4.224   5.418
   75SLPC   C34 6753   5.949   4.289   5.283
   75SLPC   H4X 6754   5.904   4.213   5.215
   75SLPC   H4Y 6755   6.040   4.245   5.329
   75SLPC   C35 6756   5.994   4.407   5.196
   75SLPC   H5X 6757   6.040   4.488   5.255
   75SLPC   H5Y 6758   5.905   4.450   5.144
   75SLPC   C36 6759   6.095   4.361   5.090
   75SLPC   H6X 6760   6.089   4.250   5.085
   75SLPC   H6Y 6761   6.197   4.388   5.123
   75SLPC   C37 6762   6.067   4.414   4.950
   75SLPC   H7X 6763   6.159   4.406   4.889
   75SLPC   H7Y 6764   6.041   4.522   4.957
   75SLPC   C38 6765   5.956   4.335   4.880
   75SLPC   H8X 6766   5.869   4.321   4.948
   75SLPC   H8Y 6767   5.995   4.234   4.855
   75SLPC   C39 6768   5.909   4.406   4.753
   75SLPC   H9X 6769   5.996   4.454   4.703
   75SLPC   H9Y 6770   5.840   4.489   4.780
   75SLPC  C310 6771   5.841   4.312   4.653
   75SLPC  H10X 6772   5.753   4.264   4.702
   75SLPC  H10Y 6773   5.912   4.233   4.623
   75SLPC  C311 6774   5.796   4.391   4.531
   75SLPC  H11X 6775   5.882   4.446   4.488
   75SLPC  H11Y 6776   5.723   4.467   4.565
   75SLPC  C312 6777   5.731   4.306   4.421
   75SLPC  H12X 6778   5.645   4.250   4.464
   75SLPC  H12Y 6779   5.803   4.233   4.379
   75SLPC  C313 6780   5.681   4.402   4.314
   75SLPC  H13X 6781   5.767   4.443   4.257
   75SLPC  H13Y 6782   5.635   4.487   4.368
   75SLPC  C314 6783   5.574   4.350   4.217
   75SLPC  H14X 6784   5.511   4.275   4.269
   75SLPC  H14Y 6785   5.622   4.301   4.131
   75SLPC  C315 6786   5.484   4.466   4.170
   75SLPC  H15X 6787   5.421   4.497   4.257
   75SLPC  H15Y 6788   5.415   4.431   4.090
   75SLPC  C316 6789   5.563   4.588   4.122
   75SLPC  H16X 6790   5.620   4.558   4.031
   75SLPC  H16Y 6791   5.639   4.618   4.198
   75SLPC  C317 6792   5.480   4.714   4.093
   75SLPC  H17X 6793   5.408   4.691   4.012
   75SLPC  H17Y 6794   5.553   4.790   4.058
   75SLPC  C318 6795   5.407   4.776   4.211
   75SLPC  H18X 6796   5.479   4.799   4.293
   75SLPC  H18Y 6797   5.328   4.708   4.250
   75SLPC  H18Z 6798   5.359   4.871   4.181
   76SLPC     N 6799   6.563   3.228   6.075
   76SLPC   C13 6800   6.595   3.139   6.191
   76SLPC  H13A 6801   6.696   3.156   6.225
   76SLPC  H13B 6802   6.528   3.157   6.274
   76SLPC  H13C 6803   6.585   3.035   6.164
   76SLPC   C14 6804   6.573   3.371   6.120
   76SLPC  H14A 6805   6.551   3.439   6.039
   76SLPC  H14B 6806   6.507   3.392   6.203
   76SLPC  H14C 6807   6.675   3.393   6.146
   76SLPC   C15 6808   6.422   3.200   6.033
   76SLPC  H15A 6809   6.409   3.098   6.002
   76SLPC  H15B 6810   6.353   3.216   6.115
   76SLPC  H15C 6811   6.391   3.266   5.953
   76SLPC   C12 6812   6.663   3.206   5.962
   76SLPC  H12A 6813   6.637   3.271   5.879
   76SLPC  H12B 6814   6.655   3.105   5.923
   76SLPC   C11 6815   6.814   3.236   5.987
   76SLPC  H11A 6816   6.873   3.195   5.903
   76SLPC  H11B 6817   6.848   3.182   6.078
   76SLPC     P 6818   6.816   3.476   5.882
   76SLPC   O13 6819   6.695   3.553   5.917
   76SLPC   O14 6820   6.939   3.551   5.852
   76SLPC   O12 6821   6.841   3.375   6.003
   76SLPC   O11 6822   6.782   3.380   5.761
   76SLPC    C1 6823   6.682   3.412   5.664
   76SLPC    HA 6824   6.603   3.479   5.704
   76SLPC    HB 6825   6.729   3.462   5.577
   76SLPC    C2 6826   6.613   3.283   5.615
   76SLPC    HS 6827   6.576   3.227   5.704
   76SLPC   O21 6828   6.704   3.205   5.536
   76SLPC   C21 6829   6.767   3.108   5.598
   76SLPC   O22 6830   6.744   3.069   5.711
   76SLPC   C22 6831   6.870   3.044   5.504
   76SLPC   H2R 6832   6.968   3.095   5.521
   76SLPC   H2S 6833   6.882   2.938   5.534
   76SLPC    C3 6834   6.488   3.312   5.530
   76SLPC    HX 6835   6.412   3.358   5.597
   76SLPC    HY 6836   6.452   3.213   5.496
   76SLPC   O31 6837   6.520   3.394   5.415
   76SLPC   C31 6838   6.422   3.474   5.374
   76SLPC   O32 6839   6.313   3.486   5.427
   76SLPC   C32 6840   6.467   3.547   5.249
   76SLPC   H2X 6841   6.578   3.559   5.253
   76SLPC   H2Y 6842   6.421   3.648   5.248
   76SLPC   C23 6843   6.835   3.049   5.353
   76SLPC   H3R 6844   6.731   3.015   5.333
   76SLPC   H3S 6845   6.902   2.979   5.300
   76SLPC   C24 6846   6.857   3.189   5.294
   76SLPC   H4R 6847   6.942   3.236   5.347
   76SLPC   H4S 6848   6.768   3.253   5.310
   76SLPC   C25 6849   6.891   3.189   5.145
   76SLPC   H5R 6850   6.804   3.154   5.085
   76SLPC   H5S 6851   6.976   3.120   5.126
   76SLPC   C26 6852   6.931   3.330   5.101
   76SLPC   H6R 6853   7.016   3.365   5.164
   76SLPC   H6S 6854   6.846   3.400   5.116
   76SLPC   C27 6855   6.975   3.333   4.956
   76SLPC   H7R 6856   6.891   3.297   4.893
   76SLPC   H7S 6857   7.057   3.258   4.945
   76SLPC   C28 6858   7.020   3.471   4.909
   76SLPC   H8R 6859   7.105   3.507   4.971
   76SLPC   H8S 6860   6.936   3.544   4.921
   76SLPC   C29 6861   7.062   3.454   4.767
   76SLPC   H9R 6862   7.155   3.398   4.753
   76SLPC  C210 6863   6.998   3.496   4.657
   76SLPC  H10R 6864   7.037   3.463   4.560
   76SLPC  C211 6865   6.871   3.574   4.646
   76SLPC  H11R 6866   6.853   3.637   4.735
   76SLPC  H11S 6867   6.786   3.504   4.636
   76SLPC  C212 6868   6.887   3.658   4.522
   76SLPC  H12R 6869   6.972   3.729   4.526
   76SLPC  C213 6870   6.813   3.654   4.410
   76SLPC  H13R 6871   6.836   3.724   4.328
   76SLPC  C214 6872   6.697   3.562   4.386
   76SLPC  H14R 6873   6.729   3.457   4.407
   76SLPC  H14S 6874   6.670   3.569   4.279
   76SLPC  C215 6875   6.570   3.590   4.468
   76SLPC  H15R 6876   6.522   3.682   4.429
   76SLPC  H15S 6877   6.600   3.605   4.574
   76SLPC  C216 6878   6.467   3.475   4.463
   76SLPC  H16R 6879   6.517   3.384   4.503
   76SLPC  H16S 6880   6.439   3.458   4.357
   76SLPC  C217 6881   6.334   3.492   4.536
   76SLPC  H17R 6882   6.347   3.545   4.633
   76SLPC  H17S 6883   6.293   3.391   4.559
   76SLPC  C218 6884   6.231   3.565   4.451
   76SLPC  H18R 6885   6.142   3.595   4.510
   76SLPC  H18S 6886   6.197   3.501   4.367
   76SLPC  H18T 6887   6.276   3.658   4.409
   76SLPC   C33 6888   6.428   3.470   5.121
   76SLPC   H3X 6889   6.319   3.478   5.105
   76SLPC   H3Y 6890   6.453   3.362   5.131
   76SLPC   C34 6891   6.502   3.525   4.999
   76SLPC   H4X 6892   6.611   3.502   5.008
   76SLPC   H4Y 6893   6.492   3.636   5.000
   76SLPC   C35 6894   6.447   3.472   4.867
   76SLPC   H5X 6895   6.488   3.535   4.785
   76SLPC   H5Y 6896   6.336   3.484   4.866
   76SLPC   C36 6897   6.483   3.326   4.835
   76SLPC   H6X 6898   6.417   3.291   4.753
   76SLPC   H6Y 6899   6.465   3.262   4.923
   76SLPC   C37 6900   6.628   3.316   4.788
   76SLPC   H7X 6901   6.694   3.368   4.861
   76SLPC   H7Y 6902   6.637   3.371   4.691
   76SLPC   C38 6903   6.680   3.174   4.768
   76SLPC   H8X 6904   6.678   3.117   4.864
   76SLPC   H8Y 6905   6.786   3.181   4.734
   76SLPC   C39 6906   6.602   3.096   4.662
   76SLPC   H9X 6907   6.575   3.167   4.581
   76SLPC   H9Y 6908   6.506   3.062   4.705
   76SLPC  C310 6909   6.685   2.979   4.606
   76SLPC  H10X 6910   6.697   2.899   4.683
   76SLPC  H10Y 6911   6.789   3.015   4.589
   76SLPC  C311 6912   6.634   2.918   4.475
   76SLPC  H11X 6913   6.536   2.867   4.488
   76SLPC  H11Y 6914   6.706   2.842   4.440
   76SLPC  C312 6915   6.620   3.025   4.366
   76SLPC  H12X 6916   6.524   3.078   4.382
   76SLPC  H12Y 6917   6.614   2.976   4.267
   76SLPC  C313 6918   6.735   3.126   4.368
   76SLPC  H13X 6919   6.832   3.070   4.366
   76SLPC  H13Y 6920   6.736   3.189   4.459
   76SLPC  C314 6921   6.729   3.220   4.250
   76SLPC  H14X 6922   6.766   3.153   4.170
   76SLPC  H14Y 6923   6.802   3.303   4.263
   76SLPC  C315 6924   6.588   3.272   4.216
   76SLPC  H15X 6925   6.551   3.303   4.316
   76SLPC  H15Y 6926   6.519   3.191   4.186
   76SLPC  C316 6927   6.579   3.392   4.120
   76SLPC  H16X 6928   6.679   3.441   4.116
   76SLPC  H16Y 6929   6.510   3.468   4.164
   76SLPC  C317 6930   6.532   3.368   3.974
   76SLPC  H17X 6931   6.611   3.311   3.922
   76SLPC  H17Y 6932   6.529   3.465   3.920
   76SLPC  C318 6933   6.400   3.293   3.950
   76SLPC  H18X 6934   6.397   3.259   3.844
   76SLPC  H18Y 6935   6.312   3.358   3.969
   76SLPC  H18Z 6936   6.392   3.203   4.015
   77SLPC     N 6937   0.723   4.117   5.853
   77SLPC   C13 6938   0.775   4.002   5.935
   77SLPC  H13A 6939   0.750   3.907   5.890
   77SLPC  H13B 6940   0.883   4.006   5.943
   77SLPC  H13C 6941   0.733   4.006   6.034
   77SLPC   C14 6942   0.793   4.118   5.721
   77SLPC  H14A 6943   0.899   4.103   5.737
   77SLPC  H14B 6944   0.760   4.038   5.657
   77SLPC  H14C 6945   0.780   4.212   5.670
   77SLPC   C15 6946   0.751   4.244   5.928
   77SLPC  H15A 6947   0.856   4.258   5.949
   77SLPC  H15B 6948   0.721   4.332   5.873
   77SLPC  H15C 6949   0.694   4.245   6.020
   77SLPC   C12 6950   0.575   4.109   5.834
   77SLPC  H12A 6951   0.552   4.033   5.760
   77SLPC  H12B 6952   0.539   4.203   5.795
   77SLPC   C11 6953   0.491   4.079   5.959
   77SLPC  H11A 6954   0.529   3.984   6.003
   77SLPC  H11B 6955   0.387   4.060   5.924
   77SLPC     P 6956   0.462   4.156   6.204
   77SLPC   O13 6957   0.591   4.148   6.276
   77SLPC   O14 6958   0.360   4.245   6.262
   77SLPC   O12 6959   0.491   4.188   6.051
   77SLPC   O11 6960   0.405   4.009   6.195
   77SLPC    C1 6961   0.272   3.974   6.230
   77SLPC    HA 6962   0.279   3.889   6.302
   77SLPC    HB 6963   0.217   4.054   6.283
   77SLPC    C2 6964   0.182   3.925   6.112
   77SLPC    HS 6965   0.118   3.842   6.149
   77SLPC   O21 6966   0.254   3.881   5.996
   77SLPC   C21 6967   0.344   3.786   6.008
   77SLPC   O22 6968   0.371   3.724   6.109
   77SLPC   C22 6969   0.403   3.762   5.868
   77SLPC   H2R 6970   0.334   3.693   5.815
   77SLPC   H2S 6971   0.401   3.859   5.813
   77SLPC    C3 6972   0.086   4.037   6.062
   77SLPC    HX 6973   0.032   4.078   6.150
   77SLPC    HY 6974   0.011   3.985   5.998
   77SLPC   O31 6975   0.153   4.146   5.994
   77SLPC   C31 6976   0.152   4.139   5.861
   77SLPC   O32 6977   0.100   4.049   5.795
   77SLPC   C32 6978   0.227   4.259   5.803
   77SLPC   H2X 6979   0.331   4.261   5.842
   77SLPC   H2Y 6980   0.175   4.350   5.841
   77SLPC   C23 6981   0.548   3.705   5.864
   77SLPC   H3R 6982   0.545   3.594   5.863
   77SLPC   H3S 6983   0.599   3.736   5.958
   77SLPC   C24 6984   0.633   3.759   5.747
   77SLPC   H4R 6985   0.739   3.744   5.773
   77SLPC   H4S 6986   0.615   3.868   5.734
   77SLPC   C25 6987   0.613   3.691   5.610
   77SLPC   H5R 6988   0.638   3.584   5.621
   77SLPC   H5S 6989   0.684   3.735   5.537
   77SLPC   C26 6990   0.475   3.702   5.545
   77SLPC   H6R 6991   0.395   3.671   5.615
   77SLPC   H6S 6992   0.478   3.627   5.463
   77SLPC   C27 6993   0.439   3.833   5.475
   77SLPC   H7R 6994   0.526   3.876   5.422
   77SLPC   H7S 6995   0.404   3.904   5.553
   77SLPC   C28 6996   0.327   3.807   5.372
   77SLPC   H8R 6997   0.256   3.735   5.419
   77SLPC   H8S 6998   0.373   3.753   5.286
   77SLPC   C29 6999   0.243   3.922   5.326
   77SLPC   H9R 7000   0.191   3.977   5.406
   77SLPC  C210 7001   0.216   3.956   5.198
   77SLPC  H10R 7002   0.150   4.043   5.180
   77SLPC  C211 7003   0.264   3.886   5.074
   77SLPC  H11R 7004   0.366   3.846   5.090
   77SLPC  H11S 7005   0.275   3.961   4.992
   77SLPC  C212 7006   0.175   3.771   5.032
   77SLPC  H12R 7007   0.159   3.695   5.109
   77SLPC  C213 7008   0.114   3.756   4.913
   77SLPC  H13R 7009   0.053   3.666   4.894
   77SLPC  C214 7010   0.122   3.853   4.798
   77SLPC  H14R 7011   0.124   3.957   4.836
   77SLPC  H14S 7012   0.029   3.846   4.737
   77SLPC  C215 7013   0.246   3.846   4.708
   77SLPC  H15R 7014   0.308   3.755   4.724
   77SLPC  H15S 7015   0.310   3.930   4.743
   77SLPC  C216 7016   0.212   3.862   4.560
   77SLPC  H16R 7017   0.305   3.873   4.500
   77SLPC  H16S 7018   0.151   3.955   4.549
   77SLPC  C217 7019   0.129   3.748   4.505
   77SLPC  H17R 7020   0.075   3.705   4.591
   77SLPC  H17S 7021   0.198   3.670   4.465
   77SLPC  C218 7022   0.025   3.787   4.401
   77SLPC  H18R 7023  -0.029   3.695   4.366
   77SLPC  H18S 7024   0.072   3.835   4.313
   77SLPC  H18T 7025  -0.050   3.857   4.444
   77SLPC   C33 7026   0.224   4.262   5.649
   77SLPC   H3X 7027   0.250   4.363   5.610
   77SLPC   H3Y 7028   0.120   4.238   5.617
   77SLPC   C34 7029   0.305   4.156   5.576
   77SLPC   H4X 7030   0.265   4.152   5.472
   77SLPC   H4Y 7031   0.286   4.058   5.623
   77SLPC   C35 7032   0.453   4.187   5.566
   77SLPC   H5X 7033   0.508   4.092   5.586
   77SLPC   H5Y 7034   0.483   4.264   5.640
   77SLPC   C36 7035   0.496   4.231   5.427
   77SLPC   H6X 7036   0.478   4.340   5.414
   77SLPC   H6Y 7037   0.437   4.178   5.350
   77SLPC   C37 7038   0.643   4.197   5.408
   77SLPC   H7X 7039   0.657   4.087   5.408
   77SLPC   H7Y 7040   0.701   4.237   5.494
   77SLPC   C38 7041   0.700   4.257   5.280
   77SLPC   H8X 7042   0.805   4.221   5.270
   77SLPC   H8Y 7043   0.700   4.368   5.286
   77SLPC   C39 7044   0.625   4.213   5.155
   77SLPC   H9X 7045   0.684   4.254   5.069
   77SLPC   H9Y 7046   0.524   4.259   5.150
   77SLPC  C310 7047   0.613   4.061   5.148
   77SLPC  H10X 7048   0.534   4.025   5.217
   77SLPC  H10Y 7049   0.709   4.015   5.180
   77SLPC  C311 7050   0.582   4.013   5.007
   77SLPC  H11X 7051   0.486   4.057   4.972
   77SLPC  H11Y 7052   0.571   3.902   5.009
   77SLPC  C312 7053   0.695   4.050   4.911
   77SLPC  H12X 7054   0.790   4.023   4.962
   77SLPC  H12Y 7055   0.697   4.159   4.890
   77SLPC  C313 7056   0.685   3.972   4.781
   77SLPC  H13X 7057   0.664   3.867   4.809
   77SLPC  H13Y 7058   0.780   3.978   4.723
   77SLPC  C314 7059   0.572   4.017   4.691
   77SLPC  H14X 7060   0.481   4.019   4.754
   77SLPC  H14Y 7061   0.559   3.944   4.608
   77SLPC  C315 7062   0.594   4.156   4.632
   77SLPC  H15X 7063   0.695   4.156   4.585
   77SLPC  H15Y 7064   0.595   4.230   4.715
   77SLPC  C316 7065   0.487   4.197   4.531
   77SLPC  H16X 7066   0.503   4.140   4.437
   77SLPC  H16Y 7067   0.499   4.305   4.507
   77SLPC  C317 7068   0.347   4.169   4.584
   77SLPC  H17X 7069   0.333   4.211   4.686
   77SLPC  H17Y 7070   0.345   4.058   4.597
   77SLPC  C318 7071   0.229   4.202   4.494
   77SLPC  H18X 7072   0.232   4.307   4.457
   77SLPC  H18Y 7073   0.133   4.186   4.547
   77SLPC  H18Z 7074   0.231   4.133   4.406
   78SLPC     N 7075   3.452   0.634   6.137
   78SLPC   C13 7076   3.511   0.497   6.154
   78SLPC  H13A 7077   3.586   0.492   6.231
   78SLPC  H13B 7078   3.435   0.424   6.173
   78SLPC  H13C 7079   3.556   0.466   6.060
   78SLPC   C14 7080   3.565   0.726   6.101
   78SLPC  H14A 7081   3.643   0.722   6.175
   78SLPC  H14B 7082   3.608   0.696   6.007
   78SLPC  H14C 7083   3.531   0.829   6.093
   78SLPC   C15 7084   3.391   0.678   6.267
   78SLPC  H15A 7085   3.341   0.774   6.257
   78SLPC  H15B 7086   3.318   0.606   6.300
   78SLPC  H15C 7087   3.467   0.687   6.344
   78SLPC   C12 7088   3.345   0.631   6.028
   78SLPC  H12A 7089   3.308   0.730   6.010
   78SLPC  H12B 7090   3.263   0.572   6.064
   78SLPC   C11 7091   3.382   0.564   5.894
   78SLPC  H11A 7092   3.482   0.600   5.860
   78SLPC  H11B 7093   3.308   0.592   5.816
   78SLPC     P 7094   3.473   0.325   5.836
   78SLPC   O13 7095   3.605   0.391   5.827
   78SLPC   O14 7096   3.466   0.195   5.907
   78SLPC   O12 7097   3.376   0.424   5.914
   78SLPC   O11 7098   3.401   0.317   5.696
   78SLPC    C1 7099   3.271   0.257   5.683
   78SLPC    HA 7100   3.221   0.238   5.780
   78SLPC    HB 7101   3.206   0.331   5.630
   78SLPC    C2 7102   3.273   0.123   5.602
   78SLPC    HS 7103   3.295   0.044   5.677
   78SLPC   O21 7104   3.376   0.126   5.502
   78SLPC   C21 7105   3.409   0.003   5.462
   78SLPC   O22 7106   3.356  -0.100   5.500
   78SLPC   C22 7107   3.520   0.008   5.358
   78SLPC   H2R 7108   3.533   0.113   5.323
   78SLPC   H2S 7109   3.614  -0.023   5.410
   78SLPC    C3 7110   3.135   0.093   5.536
   78SLPC    HX 7111   3.069   0.054   5.616
   78SLPC    HY 7112   3.145   0.010   5.462
   78SLPC   O31 7113   3.078   0.213   5.477
   78SLPC   C31 7114   3.070   0.215   5.345
   78SLPC   O32 7115   3.060   0.119   5.271
   78SLPC   C32 7116   3.086   0.360   5.298
   78SLPC   H2X 7117   3.002   0.421   5.339
   78SLPC   H2Y 7118   3.076   0.356   5.188
   78SLPC   C23 7119   3.490  -0.088   5.241
   78SLPC   H3R 7120   3.479  -0.191   5.281
   78SLPC   H3S 7121   3.577  -0.090   5.172
   78SLPC   C24 7122   3.364  -0.052   5.161
   78SLPC   H4R 7123   3.275  -0.063   5.227
   78SLPC   H4S 7124   3.354  -0.128   5.081
   78SLPC   C25 7125   3.362   0.089   5.098
   78SLPC   H5R 7126   3.393   0.165   5.172
   78SLPC   H5S 7127   3.257   0.112   5.069
   78SLPC   C26 7128   3.449   0.099   4.972
   78SLPC   H6R 7129   3.402   0.035   4.894
   78SLPC   H6S 7130   3.548   0.053   4.990
   78SLPC   C27 7131   3.462   0.240   4.913
   78SLPC   H7R 7132   3.368   0.296   4.930
   78SLPC   H7S 7133   3.473   0.223   4.803
   78SLPC   C28 7134   3.585   0.324   4.957
   78SLPC   H8R 7135   3.674   0.259   4.963
   78SLPC   H8S 7136   3.567   0.362   5.060
   78SLPC   C29 7137   3.619   0.438   4.864
   78SLPC   H9R 7138   3.561   0.529   4.887
   78SLPC  C210 7139   3.712   0.449   4.766
   78SLPC  H10R 7140   3.713   0.543   4.709
   78SLPC  C211 7141   3.814   0.352   4.715
   78SLPC  H11R 7142   3.852   0.285   4.795
   78SLPC  H11S 7143   3.904   0.409   4.682
   78SLPC  C212 7144   3.754   0.276   4.600
   78SLPC  H12R 7145   3.699   0.185   4.626
   78SLPC  C213 7146   3.762   0.313   4.470
   78SLPC  H13R 7147   3.710   0.252   4.395
   78SLPC  C214 7148   3.832   0.436   4.419
   78SLPC  H14R 7149   3.941   0.429   4.441
   78SLPC  H14S 7150   3.795   0.527   4.472
   78SLPC  C215 7151   3.817   0.457   4.267
   78SLPC  H15R 7152   3.861   0.370   4.213
   78SLPC  H15S 7153   3.876   0.546   4.237
   78SLPC  C216 7154   3.671   0.478   4.222
   78SLPC  H16R 7155   3.607   0.394   4.256
   78SLPC  H16S 7156   3.668   0.477   4.111
   78SLPC  C217 7157   3.615   0.611   4.272
   78SLPC  H17R 7158   3.685   0.692   4.244
   78SLPC  H17S 7159   3.609   0.609   4.383
   78SLPC  C218 7160   3.476   0.642   4.216
   78SLPC  H18R 7161   3.451   0.750   4.228
   78SLPC  H18S 7162   3.401   0.581   4.270
   78SLPC  H18T 7163   3.471   0.616   4.108
   78SLPC   C33 7164   3.223   0.417   5.342
   78SLPC   H3X 7165   3.302   0.342   5.320
   78SLPC   H3Y 7166   3.225   0.435   5.452
   78SLPC   C34 7167   3.263   0.547   5.271
   78SLPC   H4X 7168   3.370   0.567   5.294
   78SLPC   H4Y 7169   3.205   0.633   5.311
   78SLPC   C35 7170   3.245   0.537   5.120
   78SLPC   H5X 7171   3.137   0.546   5.094
   78SLPC   H5Y 7172   3.278   0.435   5.089
   78SLPC   C36 7173   3.326   0.637   5.040
   78SLPC   H6X 7174   3.431   0.632   5.073
   78SLPC   H6Y 7175   3.291   0.742   5.056
   78SLPC   C37 7176   3.321   0.602   4.891
   78SLPC   H7X 7177   3.362   0.500   4.879
   78SLPC   H7Y 7178   3.390   0.671   4.837
   78SLPC   C38 7179   3.184   0.602   4.824
   78SLPC   H8X 7180   3.119   0.680   4.868
   78SLPC   H8Y 7181   3.135   0.504   4.844
   78SLPC   C39 7182   3.197   0.623   4.672
   78SLPC   H9X 7183   3.221   0.730   4.655
   78SLPC   H9Y 7184   3.099   0.602   4.623
   78SLPC  C310 7185   3.308   0.541   4.606
   78SLPC  H10X 7186   3.407   0.565   4.650
   78SLPC  H10Y 7187   3.315   0.569   4.499
   78SLPC  C311 7188   3.285   0.390   4.619
   78SLPC  H11X 7189   3.193   0.362   4.565
   78SLPC  H11Y 7190   3.270   0.363   4.725
   78SLPC  C312 7191   3.404   0.310   4.566
   78SLPC  H12X 7192   3.491   0.332   4.631
   78SLPC  H12Y 7193   3.433   0.343   4.464
   78SLPC  C313 7194   3.373   0.160   4.567
   78SLPC  H13X 7195   3.308   0.137   4.654
   78SLPC  H13Y 7196   3.467   0.102   4.580
   78SLPC  C314 7197   3.305   0.117   4.437
   78SLPC  H14X 7198   3.229   0.192   4.406
   78SLPC  H14Y 7199   3.249   0.023   4.454
   78SLPC  C315 7200   3.408   0.097   4.326
   78SLPC  H15X 7201   3.495   0.040   4.367
   78SLPC  H15Y 7202   3.447   0.196   4.294
   78SLPC  C316 7203   3.356   0.021   4.204
   78SLPC  H16X 7204   3.266   0.073   4.164
   78SLPC  H16Y 7205   3.324  -0.081   4.233
   78SLPC  C317 7206   3.466   0.013   4.098
   78SLPC  H17X 7207   3.547  -0.051   4.139
   78SLPC  H17Y 7208   3.506   0.115   4.082
   78SLPC  C318 7209   3.423  -0.043   3.964
   78SLPC  H18X 7210   3.508  -0.043   3.893
   78SLPC  H18Y 7211   3.340   0.017   3.921
   78SLPC  H18Z 7212   3.387  -0.147   3.976
   79SLPC     N 7213   7.109   3.871   5.810
   79SLPC   C13 7214   6.989   3.850   5.723
   79SLPC  H13A 7215   7.004   3.889   5.623
   79SLPC  H13B 7216   6.965   3.745   5.718
   79SLPC  H13C 7217   6.903   3.899   5.767
   79SLPC   C14 7218   7.229   3.807   5.747
   79SLPC  H14A 7219   7.212   3.701   5.733
   79SLPC  H14B 7220   7.251   3.853   5.652
   79SLPC  H14C 7221   7.316   3.820   5.809
   79SLPC   C15 7222   7.076   3.800   5.938
   79SLPC  H15A 7223   7.161   3.796   6.005
   79SLPC  H15B 7224   6.996   3.853   5.988
   79SLPC  H15C 7225   7.041   3.699   5.918
   79SLPC   C12 7226   7.135   4.018   5.835
   79SLPC  H12A 7227   7.075   4.079   5.768
   79SLPC  H12B 7228   7.237   4.041   5.809
   79SLPC   C11 7229   7.108   4.072   5.977
   79SLPC  H11A 7230   7.160   4.170   5.979
   79SLPC  H11B 7231   7.157   4.010   6.055
   79SLPC     P 7232   6.936   4.172   6.134
   79SLPC   O13 7233   6.791   4.203   6.144
   79SLPC   O14 7234   6.997   4.106   6.252
   79SLPC   O12 7235   6.968   4.084   6.005
   79SLPC   O11 7236   7.020   4.303   6.103
   79SLPC    C1 7237   6.967   4.408   6.021
   79SLPC    HA 7238   6.857   4.404   6.010
   79SLPC    HB 7239   6.987   4.504   6.074
   79SLPC    C2 7240   7.034   4.424   5.880
   79SLPC    HS 7241   6.995   4.518   5.835
   79SLPC   O21 7242   7.010   4.313   5.790
   79SLPC   C21 7243   6.888   4.300   5.740
   79SLPC   O22 7244   6.786   4.343   5.790
   79SLPC   C22 7245   6.891   4.228   5.602
   79SLPC   H2R 7246   6.919   4.122   5.622
   79SLPC   H2S 7247   6.787   4.231   5.564
   79SLPC    C3 7248   7.188   4.444   5.894
   79SLPC    HX 7249   7.239   4.350   5.923
   79SLPC    HY 7250   7.205   4.513   5.980
   79SLPC   O31 7251   7.243   4.504   5.775
   79SLPC   C31 7252   7.271   4.415   5.680
   79SLPC   O32 7253   7.261   4.294   5.693
   79SLPC   C32 7254   7.318   4.487   5.554
   79SLPC   H2X 7255   7.417   4.534   5.576
   79SLPC   H2Y 7256   7.245   4.568   5.532
   79SLPC   C23 7257   6.986   4.289   5.495
   79SLPC   H3R 7258   7.088   4.283   5.538
   79SLPC   H3S 7259   6.964   4.397   5.477
   79SLPC   C24 7260   6.996   4.214   5.359
   79SLPC   H4R 7261   6.992   4.105   5.382
   79SLPC   H4S 7262   7.094   4.233   5.311
   79SLPC   C25 7263   6.887   4.247   5.255
   79SLPC   H5R 7264   6.793   4.271   5.309
   79SLPC   H5S 7265   6.866   4.154   5.198
   79SLPC   C26 7266   6.916   4.357   5.148
   79SLPC   H6R 7267   6.990   4.317   5.076
   79SLPC   H6S 7268   6.958   4.448   5.196
   79SLPC   C27 7269   6.781   4.387   5.078
   79SLPC   H7R 7270   6.712   4.419   5.159
   79SLPC   H7S 7271   6.747   4.286   5.048
   79SLPC   C28 7272   6.754   4.490   4.963
   79SLPC   H8R 7273   6.795   4.590   4.985
   79SLPC   H8S 7274   6.644   4.507   4.971
   79SLPC   C29 7275   6.766   4.439   4.821
   79SLPC   H9R 7276   6.769   4.329   4.824
   79SLPC  C210 7277   6.781   4.488   4.695
   79SLPC  H10R 7278   6.773   4.405   4.623
   79SLPC  C211 7279   6.794   4.614   4.608
   79SLPC  H11R 7280   6.689   4.648   4.591
   79SLPC  H11S 7281   6.817   4.574   4.507
   79SLPC  C212 7282   6.880   4.740   4.602
   79SLPC  H12R 7283   6.816   4.823   4.635
   79SLPC  C213 7284   7.005   4.783   4.568
   79SLPC  H13R 7285   7.015   4.892   4.576
   79SLPC  C214 7286   7.140   4.733   4.514
   79SLPC  H14R 7287   7.177   4.639   4.559
   79SLPC  H14S 7288   7.217   4.800   4.558
   79SLPC  C215 7289   7.168   4.734   4.362
   79SLPC  H15R 7290   7.258   4.795   4.342
   79SLPC  H15S 7291   7.083   4.783   4.309
   79SLPC  C216 7292   7.197   4.595   4.302
   79SLPC  H16R 7293   7.111   4.528   4.324
   79SLPC  H16S 7294   7.287   4.552   4.352
   79SLPC  C217 7295   7.216   4.593   4.150
   79SLPC  H17R 7296   7.244   4.490   4.119
   79SLPC  H17S 7297   7.301   4.660   4.124
   79SLPC  C218 7298   7.091   4.635   4.073
   79SLPC  H18R 7299   7.108   4.631   3.963
   79SLPC  H18S 7300   7.061   4.739   4.100
   79SLPC  H18T 7301   7.006   4.568   4.099
   79SLPC   C33 7302   7.330   4.395   5.430
   79SLPC   H3X 7303   7.227   4.363   5.401
   79SLPC   H3Y 7304   7.389   4.303   5.448
   79SLPC   C34 7305   7.394   4.465   5.311
   79SLPC   H4X 7306   7.502   4.442   5.307
   79SLPC   H4Y 7307   7.386   4.575   5.329
   79SLPC   C35 7308   7.328   4.430   5.178
   79SLPC   H5X 7309   7.245   4.500   5.154
   79SLPC   H5Y 7310   7.281   4.329   5.186
   79SLPC   C36 7311   7.431   4.431   5.065
   79SLPC   H6X 7312   7.510   4.356   5.088
   79SLPC   H6Y 7313   7.480   4.531   5.065
   79SLPC   C37 7314   7.376   4.406   4.925
   79SLPC   H7X 7315   7.460   4.397   4.853
   79SLPC   H7Y 7316   7.318   4.496   4.894
   79SLPC   C38 7317   7.288   4.281   4.913
   79SLPC   H8X 7318   7.274   4.259   4.805
   79SLPC   H8Y 7319   7.189   4.301   4.959
   79SLPC   C39 7320   7.347   4.157   4.979
   79SLPC   H9X 7321   7.358   4.172   5.088
   79SLPC   H9Y 7322   7.448   4.141   4.937
   79SLPC  C310 7323   7.260   4.034   4.955
   79SLPC  H10X 7324   7.311   3.949   5.006
   79SLPC  H10Y 7325   7.255   4.013   4.846
   79SLPC  C311 7326   7.117   4.036   5.008
   79SLPC  H11X 7327   7.057   4.104   4.944
   79SLPC  H11Y 7328   7.114   4.074   5.112
   79SLPC  C312 7329   7.063   3.892   5.003
   79SLPC  H12X 7330   7.121   3.830   5.075
   79SLPC  H12Y 7331   7.084   3.851   4.902
   79SLPC  C313 7332   6.914   3.877   5.034
   79SLPC  H13X 7333   6.895   3.912   5.138
   79SLPC  H13Y 7334   6.886   3.770   5.028
   79SLPC  C314 7335   6.825   3.957   4.938
   79SLPC  H14X 7336   6.854   4.064   4.941
   79SLPC  H14Y 7337   6.720   3.950   4.974
   79SLPC  C315 7338   6.829   3.907   4.794
   79SLPC  H15X 7339   6.750   3.830   4.781
   79SLPC  H15Y 7340   6.926   3.858   4.770
   79SLPC  C316 7341   6.808   4.017   4.690
   79SLPC  H16X 7342   6.896   4.085   4.688
   79SLPC  H16Y 7343   6.719   4.078   4.716
   79SLPC  C317 7344   6.786   3.953   4.554
   79SLPC  H17X 7345   6.712   3.871   4.564
   79SLPC  H17Y 7346   6.884   3.912   4.523
   79SLPC  C318 7347   6.739   4.044   4.442
   79SLPC  H18X 7348   6.719   3.984   4.351
   79SLPC  H18Y 7349   6.821   4.115   4.417
   79SLPC  H18Z 7350   6.647   4.099   4.471
   80SLPC     N 7351   5.786   7.218   5.819
   80SLPC   C13 7352   5.871   7.330   5.858
   80SLPC  H13A 7353   5.886   7.399   5.776
   80SLPC  H13B 7354   5.823   7.386   5.937
   80SLPC  H13C 7355   5.967   7.298   5.896
   80SLPC   C14 7356   5.789   7.123   5.933
   80SLPC  H14A 7357   5.883   7.070   5.940
   80SLPC  H14B 7358   5.774   7.175   6.026
   80SLPC  H14C 7359   5.710   7.049   5.926
   80SLPC   C15 7360   5.843   7.163   5.692
   80SLPC  H15A 7361   5.795   7.069   5.666
   80SLPC  H15B 7362   5.832   7.232   5.609
   80SLPC  H15C 7363   5.947   7.139   5.703
   80SLPC   C12 7364   5.646   7.269   5.805
   80SLPC  H12A 7365   5.581   7.195   5.760
   80SLPC  H12B 7366   5.648   7.354   5.738
   80SLPC   C11 7367   5.578   7.317   5.936
   80SLPC  H11A 7368   5.556   7.226   5.997
   80SLPC  H11B 7369   5.481   7.363   5.907
   80SLPC     P 7370   5.586   7.461   6.147
   80SLPC   O13 7371   5.457   7.392   6.164
   80SLPC   O14 7372   5.682   7.447   6.258
   80SLPC   O12 7373   5.655   7.409   6.014
   80SLPC   O11 7374   5.562   7.614   6.117
   80SLPC    C1 7375   5.659   7.698   6.054
   80SLPC    HA 7376   5.665   7.792   6.112
   80SLPC    HB 7377   5.760   7.653   6.051
   80SLPC    C2 7378   5.618   7.738   5.910
   80SLPC    HS 7379   5.515   7.779   5.920
   80SLPC   O21 7380   5.622   7.622   5.822
   80SLPC   C21 7381   5.525   7.624   5.731
   80SLPC   O22 7382   5.441   7.710   5.719
   80SLPC   C22 7383   5.539   7.505   5.636
   80SLPC   H2R 7384   5.646   7.484   5.619
   80SLPC   H2S 7385   5.486   7.419   5.683
   80SLPC    C3 7386   5.712   7.851   5.858
   80SLPC    HX 7387   5.817   7.815   5.852
   80SLPC    HY 7388   5.713   7.932   5.934
   80SLPC   O31 7389   5.665   7.908   5.735
   80SLPC   C31 7390   5.707   7.851   5.624
   80SLPC   O32 7391   5.802   7.775   5.613
   80SLPC   C32 7392   5.609   7.888   5.513
   80SLPC   H2X 7393   5.570   7.990   5.533
   80SLPC   H2Y 7394   5.525   7.816   5.518
   80SLPC   C23 7395   5.468   7.533   5.503
   80SLPC   H3R 7396   5.511   7.622   5.453
   80SLPC   H3S 7397   5.361   7.554   5.524
   80SLPC   C24 7398   5.468   7.417   5.404
   80SLPC   H4R 7399   5.391   7.445   5.330
   80SLPC   H4S 7400   5.434   7.323   5.453
   80SLPC   C25 7401   5.601   7.394   5.331
   80SLPC   H5R 7402   5.652   7.305   5.375
   80SLPC   H5S 7403   5.670   7.480   5.343
   80SLPC   C26 7404   5.580   7.369   5.180
   80SLPC   H6R 7405   5.675   7.332   5.135
   80SLPC   H6S 7406   5.553   7.463   5.129
   80SLPC   C27 7407   5.467   7.269   5.161
   80SLPC   H7R 7408   5.371   7.325   5.152
   80SLPC   H7S 7409   5.465   7.209   5.255
   80SLPC   C28 7410   5.477   7.164   5.052
   80SLPC   H8R 7411   5.456   7.067   5.101
   80SLPC   H8S 7412   5.585   7.157   5.024
   80SLPC   C29 7413   5.388   7.167   4.931
   80SLPC   H9R 7414   5.298   7.104   4.933
   80SLPC  C210 7415   5.421   7.236   4.823
   80SLPC  H10R 7416   5.364   7.227   4.729
   80SLPC  C211 7417   5.548   7.313   4.821
   80SLPC  H11R 7418   5.629   7.244   4.791
   80SLPC  H11S 7419   5.577   7.349   4.922
   80SLPC  C212 7420   5.548   7.435   4.738
   80SLPC  H12R 7421   5.453   7.487   4.718
   80SLPC  C213 7422   5.665   7.482   4.695
   80SLPC  H13R 7423   5.669   7.579   4.644
   80SLPC  C214 7424   5.801   7.426   4.719
   80SLPC  H14R 7425   5.804   7.347   4.797
   80SLPC  H14S 7426   5.868   7.507   4.755
   80SLPC  C215 7427   5.847   7.375   4.583
   80SLPC  H15R 7428   5.776   7.300   4.542
   80SLPC  H15S 7429   5.944   7.322   4.595
   80SLPC  C216 7430   5.864   7.491   4.484
   80SLPC  H16R 7431   5.931   7.568   4.527
   80SLPC  H16S 7432   5.766   7.540   4.467
   80SLPC  C217 7433   5.914   7.446   4.349
   80SLPC  H17R 7434   5.875   7.343   4.331
   80SLPC  H17S 7435   6.025   7.442   4.349
   80SLPC  C218 7436   5.867   7.537   4.237
   80SLPC  H18R 7437   5.864   7.642   4.271
   80SLPC  H18S 7438   5.764   7.506   4.208
   80SLPC  H18T 7439   5.932   7.529   4.148
   80SLPC   C33 7440   5.671   7.883   5.374
   80SLPC   H3X 7441   5.780   7.906   5.381
   80SLPC   H3Y 7442   5.624   7.958   5.307
   80SLPC   C34 7443   5.678   7.749   5.305
   80SLPC   H4X 7444   5.579   7.717   5.265
   80SLPC   H4Y 7445   5.717   7.673   5.376
   80SLPC   C35 7446   5.780   7.770   5.194
   80SLPC   H5X 7447   5.878   7.794   5.240
   80SLPC   H5Y 7448   5.748   7.860   5.138
   80SLPC   C36 7449   5.797   7.651   5.103
   80SLPC   H6X 7450   5.764   7.557   5.152
   80SLPC   H6Y 7451   5.905   7.641   5.078
   80SLPC   C37 7452   5.725   7.675   4.973
   80SLPC   H7X 7453   5.620   7.703   4.997
   80SLPC   H7Y 7454   5.724   7.578   4.918
   80SLPC   C38 7455   5.798   7.782   4.892
   80SLPC   H8X 7456   5.901   7.747   4.870
   80SLPC   H8Y 7457   5.807   7.876   4.950
   80SLPC   C39 7458   5.729   7.818   4.762
   80SLPC   H9X 7459   5.769   7.747   4.686
   80SLPC   H9Y 7460   5.761   7.920   4.730
   80SLPC  C310 7461   5.576   7.814   4.771
   80SLPC  H10X 7462   5.543   7.889   4.847
   80SLPC  H10Y 7463   5.541   7.714   4.805
   80SLPC  C311 7464   5.508   7.841   4.638
   80SLPC  H11X 7465   5.534   7.944   4.605
   80SLPC  H11Y 7466   5.398   7.837   4.654
   80SLPC  C312 7467   5.551   7.745   4.529
   80SLPC  H12X 7468   5.511   7.646   4.557
   80SLPC  H12Y 7469   5.662   7.739   4.521
   80SLPC  C313 7470   5.503   7.776   4.389
   80SLPC  H13X 7471   5.591   7.786   4.322
   80SLPC  H13Y 7472   5.454   7.876   4.388
   80SLPC  C314 7473   5.413   7.662   4.343
   80SLPC  H14X 7474   5.352   7.693   4.256
   80SLPC  H14Y 7475   5.343   7.632   4.424
   80SLPC  C315 7476   5.494   7.539   4.305
   80SLPC  H15X 7477   5.438   7.447   4.332
   80SLPC  H15Y 7478   5.591   7.535   4.358
   80SLPC  C316 7479   5.514   7.540   4.154
   80SLPC  H16X 7480   5.412   7.546   4.111
   80SLPC  H16Y 7481   5.562   7.445   4.122
   80SLPC  C317 7482   5.584   7.662   4.094
   80SLPC  H17X 7483   5.673   7.690   4.154
   80SLPC  H17Y 7484   5.515   7.749   4.094
   80SLPC  C318 7485   5.628   7.630   3.953
   80SLPC  H18X 7486   5.541   7.609   3.888
   80SLPC  H18Y 7487   5.691   7.538   3.957
   80SLPC  H18Z 7488   5.689   7.712   3.908
   81SLPC     N 7489   4.212   3.782   2.301
   81SLPC   C13 7490   4.175   3.919   2.254
   81SLPC  H13A 7491   4.093   3.916   2.184
   81SLPC  H13B 7492   4.146   3.978   2.340
   81SLPC  H13C 7493   4.258   3.967   2.205
   81SLPC   C14 7494   4.328   3.794   2.393
   81SLPC  H14A 7495   4.298   3.850   2.481
   81SLPC  H14B 7496   4.360   3.698   2.431
   81SLPC  H14C 7497   4.413   3.842   2.345
   81SLPC   C15 7498   4.255   3.696   2.185
   81SLPC  H15A 7499   4.279   3.597   2.219
   81SLPC  H15B 7500   4.178   3.690   2.110
   81SLPC  H15C 7501   4.344   3.736   2.140
   81SLPC   C12 7502   4.098   3.718   2.379
   81SLPC  H12A 7503   4.138   3.634   2.434
   81SLPC  H12B 7504   4.024   3.677   2.312
   81SLPC   C11 7505   4.025   3.806   2.484
   81SLPC  H11A 7506   3.944   3.745   2.530
   81SLPC  H11B 7507   3.977   3.893   2.435
   81SLPC     P 7508   4.063   3.935   2.705
   81SLPC   O13 7509   3.944   4.010   2.658
   81SLPC   O14 7510   4.050   3.847   2.823
   81SLPC   O12 7511   4.117   3.848   2.583
   81SLPC   O11 7512   4.187   4.034   2.724
   81SLPC    C1 7513   4.317   3.984   2.690
   81SLPC    HA 7514   4.326   3.876   2.713
   81SLPC    HB 7515   4.335   4.000   2.582
   81SLPC    C2 7516   4.432   4.050   2.769
   81SLPC    HS 7517   4.525   4.002   2.731
   81SLPC   O21 7518   4.412   4.017   2.907
   81SLPC   C21 7519   4.524   4.003   2.975
   81SLPC   O22 7520   4.631   4.050   2.943
   81SLPC   C22 7521   4.504   3.899   3.086
   81SLPC   H2R 7522   4.503   3.801   3.035
   81SLPC   H2S 7523   4.593   3.903   3.154
   81SLPC    C3 7524   4.448   4.203   2.739
   81SLPC    HX 7525   4.400   4.227   2.642
   81SLPC    HY 7526   4.557   4.223   2.729
   81SLPC   O31 7527   4.399   4.283   2.847
   81SLPC   C31 7528   4.268   4.302   2.842
   81SLPC   O32 7529   4.204   4.324   2.741
   81SLPC   C32 7530   4.217   4.297   2.985
   81SLPC   H2X 7531   4.170   4.395   3.009
   81SLPC   H2Y 7532   4.303   4.282   3.054
   81SLPC   C23 7533   4.373   3.913   3.167
   81SLPC   H3R 7534   4.342   3.812   3.201
   81SLPC   H3S 7535   4.291   3.950   3.102
   81SLPC   C24 7536   4.386   4.002   3.291
   81SLPC   H4R 7537   4.445   3.948   3.369
   81SLPC   H4S 7538   4.283   4.014   3.332
   81SLPC   C25 7539   4.453   4.138   3.264
   81SLPC   H5R 7540   4.433   4.169   3.159
   81SLPC   H5S 7541   4.563   4.122   3.270
   81SLPC   C26 7542   4.413   4.256   3.354
   81SLPC   H6R 7543   4.333   4.315   3.304
   81SLPC   H6S 7544   4.502   4.322   3.365
   81SLPC   C27 7545   4.364   4.218   3.493
   81SLPC   H7R 7546   4.441   4.155   3.544
   81SLPC   H7S 7547   4.273   4.155   3.479
   81SLPC   C28 7548   4.331   4.335   3.586
   81SLPC   H8R 7549   4.289   4.417   3.525
   81SLPC   H8S 7550   4.427   4.371   3.629
   81SLPC   C29 7551   4.231   4.297   3.693
   81SLPC   H9R 7552   4.132   4.270   3.655
   81SLPC  C210 7553   4.252   4.286   3.825
   81SLPC  H10R 7554   4.168   4.256   3.889
   81SLPC  C211 7555   4.383   4.307   3.896
   81SLPC  H11R 7556   4.457   4.358   3.830
   81SLPC  H11S 7557   4.424   4.205   3.908
   81SLPC  C212 7558   4.391   4.374   4.031
   81SLPC  H12R 7559   4.477   4.442   4.040
   81SLPC  C213 7560   4.314   4.356   4.140
   81SLPC  H13R 7561   4.336   4.414   4.231
   81SLPC  C214 7562   4.197   4.262   4.154
   81SLPC  H14R 7563   4.223   4.159   4.121
   81SLPC  H14S 7564   4.114   4.298   4.089
   81SLPC  C215 7565   4.141   4.257   4.297
   81SLPC  H15R 7566   4.040   4.210   4.294
   81SLPC  H15S 7567   4.128   4.360   4.335
   81SLPC  C216 7568   4.227   4.178   4.397
   81SLPC  H16R 7569   4.331   4.216   4.393
   81SLPC  H16S 7570   4.230   4.071   4.369
   81SLPC  C217 7571   4.174   4.193   4.541
   81SLPC  H17R 7572   4.152   4.300   4.561
   81SLPC  H17S 7573   4.255   4.164   4.611
   81SLPC  C218 7574   4.050   4.109   4.572
   81SLPC  H18R 7575   4.072   4.001   4.557
   81SLPC  H18S 7576   3.966   4.137   4.505
   81SLPC  H18T 7577   4.019   4.124   4.677
   81SLPC   C33 7578   4.116   4.183   3.008
   81SLPC   H3X 7579   4.156   4.087   2.969
   81SLPC   H3Y 7580   4.021   4.204   2.954
   81SLPC   C34 7581   4.091   4.166   3.157
   81SLPC   H4X 7582   4.052   4.260   3.202
   81SLPC   H4Y 7583   4.188   4.147   3.209
   81SLPC   C35 7584   3.993   4.053   3.187
   81SLPC   H5X 7585   4.046   3.956   3.190
   81SLPC   H5Y 7586   3.920   4.048   3.103
   81SLPC   C36 7587   3.915   4.079   3.315
   81SLPC   H6X 7588   3.838   3.998   3.322
   81SLPC   H6Y 7589   3.862   4.176   3.304
   81SLPC   C37 7590   3.998   4.081   3.444
   81SLPC   H7X 7591   3.940   4.127   3.527
   81SLPC   H7Y 7592   4.085   4.149   3.427
   81SLPC   C38 7593   4.042   3.940   3.486
   81SLPC   H8X 7594   4.099   3.897   3.400
   81SLPC   H8Y 7595   3.953   3.876   3.502
   81SLPC   C39 7596   4.133   3.934   3.609
   81SLPC   H9X 7597   4.202   4.021   3.611
   81SLPC   H9Y 7598   4.196   3.843   3.599
   81SLPC  C310 7599   4.062   3.926   3.745
   81SLPC  H10X 7600   3.999   3.834   3.746
   81SLPC  H10Y 7601   3.996   4.014   3.761
   81SLPC  C311 7602   4.168   3.916   3.855
   81SLPC  H11X 7603   4.188   4.016   3.901
   81SLPC  H11Y 7604   4.261   3.885   3.803
   81SLPC  C312 7605   4.144   3.810   3.962
   81SLPC  H12X 7606   4.103   3.718   3.915
   81SLPC  H12Y 7607   4.068   3.848   4.034
   81SLPC  C313 7608   4.274   3.774   4.036
   81SLPC  H13X 7609   4.247   3.707   4.121
   81SLPC  H13Y 7610   4.318   3.867   4.078
   81SLPC  C314 7611   4.380   3.703   3.950
   81SLPC  H14X 7612   4.432   3.777   3.885
   81SLPC  H14Y 7613   4.330   3.630   3.883
   81SLPC  C315 7614   4.482   3.629   4.037
   81SLPC  H15X 7615   4.446   3.524   4.040
   81SLPC  H15Y 7616   4.475   3.669   4.140
   81SLPC  C316 7617   4.631   3.632   3.995
   81SLPC  H16X 7618   4.655   3.719   3.931
   81SLPC  H16Y 7619   4.651   3.543   3.932
   81SLPC  C317 7620   4.727   3.630   4.117
   81SLPC  H17X 7621   4.802   3.550   4.099
   81SLPC  H17Y 7622   4.672   3.602   4.208
   81SLPC  C318 7623   4.803   3.760   4.146
   81SLPC  H18X 7624   4.735   3.835   4.192
   81SLPC  H18Y 7625   4.846   3.803   4.053
   81SLPC  H18Z 7626   4.887   3.744   4.218
   82SLPC     N 7627   3.066   3.205   2.423
   82SLPC   C13 7628   3.121   3.218   2.562
   82SLPC  H13A 7629   3.135   3.122   2.609
   82SLPC  H13B 7630   3.215   3.273   2.563
   82SLPC  H13C 7631   3.053   3.276   2.623
   82SLPC   C14 7632   2.941   3.123   2.436
   82SLPC  H14A 7633   2.892   3.109   2.340
   82SLPC  H14B 7634   2.964   3.026   2.477
   82SLPC  H14C 7635   2.873   3.172   2.503
   82SLPC   C15 7636   3.163   3.127   2.339
   82SLPC  H15A 7637   3.184   3.031   2.383
   82SLPC  H15B 7638   3.124   3.108   2.240
   82SLPC  H15C 7639   3.257   3.180   2.328
   82SLPC   C12 7640   3.038   3.342   2.364
   82SLPC  H12A 7641   3.002   3.331   2.262
   82SLPC  H12B 7642   3.130   3.399   2.359
   82SLPC   C11 7643   2.938   3.434   2.438
   82SLPC  H11A 7644   2.843   3.378   2.451
   82SLPC  H11B 7645   2.915   3.522   2.374
   82SLPC     P 7646   2.893   3.511   2.679
   82SLPC   O13 7647   2.766   3.555   2.618
   82SLPC   O14 7648   2.891   3.390   2.764
   82SLPC   O12 7649   2.995   3.482   2.561
   82SLPC   O11 7650   2.958   3.632   2.759
   82SLPC    C1 7651   2.899   3.663   2.887
   82SLPC    HA 7652   2.824   3.744   2.875
   82SLPC    HB 7653   2.842   3.579   2.932
   82SLPC    C2 7654   3.007   3.708   2.990
   82SLPC    HS 7655   3.105   3.715   2.936
   82SLPC   O21 7656   3.018   3.616   3.098
   82SLPC   C21 7657   3.055   3.494   3.065
   82SLPC   O22 7658   3.129   3.463   2.973
   82SLPC   C22 7659   2.997   3.397   3.168
   82SLPC   H2R 7660   3.052   3.301   3.157
   82SLPC   H2S 7661   3.014   3.437   3.270
   82SLPC    C3 7662   2.977   3.848   3.050
   82SLPC    HX 7663   2.976   3.921   2.967
   82SLPC    HY 7664   3.061   3.871   3.118
   82SLPC   O31 7665   2.853   3.852   3.124
   82SLPC   C31 7666   2.825   3.974   3.169
   82SLPC   O32 7667   2.886   4.076   3.140
   82SLPC   C32 7668   2.711   3.967   3.269
   82SLPC   H2X 7669   2.632   3.902   3.226
   82SLPC   H2Y 7670   2.669   4.070   3.279
   82SLPC   C23 7671   2.846   3.373   3.144
   82SLPC   H3R 7672   2.815   3.283   3.202
   82SLPC   H3S 7673   2.828   3.351   3.037
   82SLPC   C24 7674   2.755   3.489   3.188
   82SLPC   H4R 7675   2.788   3.586   3.144
   82SLPC   H4S 7676   2.762   3.500   3.298
   82SLPC   C25 7677   2.609   3.468   3.145
   82SLPC   H5R 7678   2.573   3.372   3.189
   82SLPC   H5S 7679   2.605   3.455   3.035
   82SLPC   C26 7680   2.510   3.582   3.183
   82SLPC   H6R 7681   2.406   3.543   3.173
   82SLPC   H6S 7682   2.524   3.661   3.106
   82SLPC   C27 7683   2.529   3.649   3.321
   82SLPC   H7R 7684   2.472   3.744   3.319
   82SLPC   H7S 7685   2.636   3.676   3.334
   82SLPC   C28 7686   2.481   3.570   3.445
   82SLPC   H8R 7687   2.370   3.566   3.444
   82SLPC   H8S 7688   2.511   3.628   3.535
   82SLPC   C29 7689   2.534   3.430   3.447
   82SLPC   H9R 7690   2.487   3.365   3.373
   82SLPC  C210 7691   2.625   3.378   3.531
   82SLPC  H10R 7692   2.659   3.274   3.514
   82SLPC  C211 7693   2.694   3.448   3.643
   82SLPC  H11R 7694   2.733   3.373   3.715
   82SLPC  H11S 7695   2.616   3.504   3.700
   82SLPC  C212 7696   2.802   3.540   3.592
   82SLPC  H12R 7697   2.767   3.638   3.556
   82SLPC  C213 7698   2.933   3.511   3.586
   82SLPC  H13R 7699   3.002   3.586   3.547
   82SLPC  C214 7700   2.995   3.380   3.629
   82SLPC  H14R 7701   3.067   3.345   3.552
   82SLPC  H14S 7702   2.918   3.300   3.638
   82SLPC  C215 7703   3.067   3.391   3.765
   82SLPC  H15R 7704   3.158   3.454   3.757
   82SLPC  H15S 7705   3.100   3.289   3.794
   82SLPC  C216 7706   2.978   3.448   3.876
   82SLPC  H16R 7707   2.878   3.400   3.868
   82SLPC  H16S 7708   2.961   3.557   3.862
   82SLPC  C217 7709   3.032   3.421   4.016
   82SLPC  H17R 7710   3.109   3.497   4.042
   82SLPC  H17S 7711   3.082   3.322   4.017
   82SLPC  C218 7712   2.920   3.419   4.120
   82SLPC  H18R 7713   2.876   3.520   4.131
   82SLPC  H18S 7714   2.961   3.386   4.218
   82SLPC  H18T 7715   2.839   3.349   4.091
   82SLPC   C33 7716   2.756   3.912   3.407
   82SLPC   H3X 7717   2.809   3.815   3.395
   82SLPC   H3Y 7718   2.664   3.891   3.465
   82SLPC   C34 7719   2.844   4.009   3.488
   82SLPC   H4X 7720   2.850   4.108   3.438
   82SLPC   H4Y 7721   2.947   3.968   3.490
   82SLPC   C35 7722   2.796   4.029   3.633
   82SLPC   H5X 7723   2.750   3.934   3.668
   82SLPC   H5Y 7724   2.718   4.109   3.636
   82SLPC   C36 7725   2.910   4.062   3.729
   82SLPC   H6X 7726   2.967   4.147   3.687
   82SLPC   H6Y 7727   2.976   3.973   3.734
   82SLPC   C37 7728   2.870   4.098   3.873
   82SLPC   H7X 7729   2.777   4.160   3.873
   82SLPC   H7Y 7730   2.952   4.161   3.914
   82SLPC   C38 7731   2.853   3.979   3.969
   82SLPC   H8X 7732   2.933   3.904   3.948
   82SLPC   H8Y 7733   2.755   3.931   3.950
   82SLPC   C39 7734   2.857   4.020   4.116
   82SLPC   H9X 7735   2.762   4.073   4.142
   82SLPC   H9Y 7736   2.940   4.093   4.126
   82SLPC  C310 7737   2.884   3.909   4.219
   82SLPC  H10X 7738   2.794   3.845   4.232
   82SLPC  H10Y 7739   2.903   3.959   4.316
   82SLPC  C311 7740   3.005   3.820   4.188
   82SLPC  H11X 7741   3.086   3.883   4.145
   82SLPC  H11Y 7742   2.978   3.744   4.111
   82SLPC  C312 7743   3.061   3.750   4.313
   82SLPC  H12X 7744   3.088   3.830   4.385
   82SLPC  H12Y 7745   3.154   3.695   4.287
   82SLPC  C313 7746   2.962   3.653   4.380
   82SLPC  H13X 7747   2.969   3.553   4.333
   82SLPC  H13Y 7748   2.858   3.689   4.368
   82SLPC  C314 7749   2.989   3.634   4.530
   82SLPC  H14X 7750   3.014   3.735   4.569
   82SLPC  H14Y 7751   3.079   3.571   4.543
   82SLPC  C315 7752   2.871   3.577   4.609
   82SLPC  H15X 7753   2.910   3.539   4.705
   82SLPC  H15Y 7754   2.825   3.492   4.553
   82SLPC  C316 7755   2.764   3.682   4.641
   82SLPC  H16X 7756   2.718   3.720   4.547
   82SLPC  H16Y 7757   2.815   3.768   4.690
   82SLPC  C317 7758   2.655   3.642   4.740
   82SLPC  H17X 7759   2.639   3.727   4.810
   82SLPC  H17Y 7760   2.688   3.555   4.801
   82SLPC  C318 7761   2.524   3.615   4.669
   82SLPC  H18X 7762   2.533   3.519   4.613
   82SLPC  H18Y 7763   2.500   3.695   4.596
   82SLPC  H18Z 7764   2.441   3.608   4.742
   83SLPC     N 7765   3.751   5.469   2.347
   83SLPC   C13 7766   3.711   5.346   2.272
   83SLPC  H13A 7767   3.671   5.275   2.343
   83SLPC  H13B 7768   3.633   5.368   2.200
   83SLPC  H13C 7769   3.794   5.302   2.220
   83SLPC   C14 7770   3.799   5.574   2.252
   83SLPC  H14A 7771   3.718   5.605   2.188
   83SLPC  H14B 7772   3.833   5.661   2.306
   83SLPC  H14C 7773   3.880   5.537   2.191
   83SLPC   C15 7774   3.860   5.434   2.444
   83SLPC  H15A 7775   3.890   5.519   2.503
   83SLPC  H15B 7776   3.821   5.364   2.516
   83SLPC  H15C 7777   3.946   5.390   2.395
   83SLPC   C12 7778   3.631   5.523   2.426
   83SLPC  H12A 7779   3.568   5.579   2.359
   83SLPC  H12B 7780   3.666   5.592   2.501
   83SLPC   C11 7781   3.543   5.420   2.502
   83SLPC  H11A 7782   3.494   5.351   2.430
   83SLPC  H11B 7783   3.461   5.473   2.554
   83SLPC     P 7784   3.665   5.410   2.731
   83SLPC   O13 7785   3.678   5.556   2.709
   83SLPC   O14 7786   3.576   5.361   2.837
   83SLPC   O12 7787   3.621   5.343   2.593
   83SLPC   O11 7788   3.811   5.349   2.745
   83SLPC    C1 7789   3.838   5.212   2.710
   83SLPC    HA 7790   3.745   5.157   2.683
   83SLPC    HB 7791   3.905   5.209   2.621
   83SLPC    C2 7792   3.903   5.126   2.823
   83SLPC    HS 7793   3.850   5.029   2.816
   83SLPC   O21 7794   3.881   5.186   2.953
   83SLPC   C21 7795   3.892   5.096   3.050
   83SLPC   O22 7796   3.908   4.977   3.032
   83SLPC   C22 7797   3.885   5.160   3.188
   83SLPC   H2R 7798   3.990   5.182   3.217
   83SLPC   H2S 7799   3.827   5.255   3.184
   83SLPC    C3 7800   4.056   5.101   2.797
   83SLPC    HX 7801   4.066   5.064   2.693
   83SLPC    HY 7802   4.092   5.018   2.862
   83SLPC   O31 7803   4.135   5.220   2.811
   83SLPC   C31 7804   4.175   5.243   2.936
   83SLPC   O32 7805   4.180   5.161   3.026
   83SLPC   C32 7806   4.194   5.391   2.956
   83SLPC   H2X 7807   4.231   5.437   2.862
   83SLPC   H2Y 7808   4.267   5.408   3.038
   83SLPC   C23 7809   3.819   5.062   3.287
   83SLPC   H3R 7810   3.886   4.974   3.300
   83SLPC   H3S 7811   3.724   5.026   3.244
   83SLPC   C24 7812   3.791   5.115   3.428
   83SLPC   H4R 7813   3.723   5.042   3.477
   83SLPC   H4S 7814   3.734   5.210   3.422
   83SLPC   C25 7815   3.914   5.129   3.518
   83SLPC   H5R 7816   3.968   5.032   3.526
   83SLPC   H5S 7817   3.874   5.155   3.618
   83SLPC   C26 7818   4.013   5.241   3.482
   83SLPC   H6R 7819   3.955   5.329   3.448
   83SLPC   H6S 7820   4.080   5.209   3.399
   83SLPC   C27 7821   4.099   5.285   3.601
   83SLPC   H7R 7822   4.035   5.297   3.692
   83SLPC   H7S 7823   4.138   5.386   3.576
   83SLPC   C28 7824   4.216   5.190   3.631
   83SLPC   H8R 7825   4.269   5.168   3.536
   83SLPC   H8S 7826   4.177   5.094   3.670
   83SLPC   C29 7827   4.309   5.259   3.728
   83SLPC   H9R 7828   4.345   5.357   3.693
   83SLPC  C210 7829   4.352   5.215   3.847
   83SLPC  H10R 7830   4.414   5.285   3.906
   83SLPC  C211 7831   4.320   5.085   3.917
   83SLPC  H11R 7832   4.404   5.015   3.898
   83SLPC  H11S 7833   4.230   5.038   3.873
   83SLPC  C212 7834   4.305   5.100   4.067
   83SLPC  H12R 7835   4.348   5.190   4.112
   83SLPC  C213 7836   4.243   5.011   4.148
   83SLPC  H13R 7837   4.235   5.032   4.255
   83SLPC  C214 7838   4.179   4.882   4.102
   83SLPC  H14R 7839   4.231   4.845   4.010
   83SLPC  H14S 7840   4.074   4.903   4.074
   83SLPC  C215 7841   4.179   4.764   4.202
   83SLPC  H15R 7842   4.281   4.757   4.246
   83SLPC  H15S 7843   4.164   4.670   4.146
   83SLPC  C216 7844   4.076   4.773   4.317
   83SLPC  H16R 7845   4.068   4.879   4.351
   83SLPC  H16S 7846   4.116   4.714   4.402
   83SLPC  C217 7847   3.935   4.716   4.294
   83SLPC  H17R 7848   3.879   4.783   4.226
   83SLPC  H17S 7849   3.881   4.720   4.391
   83SLPC  C218 7850   3.929   4.571   4.244
   83SLPC  H18R 7851   3.987   4.557   4.150
   83SLPC  H18S 7852   3.824   4.542   4.222
   83SLPC  H18T 7853   3.969   4.501   4.320
   83SLPC   C33 7854   4.055   5.444   2.992
   83SLPC   H3X 7855   4.021   5.403   3.090
   83SLPC   H3Y 7856   3.981   5.411   2.916
   83SLPC   C34 7857   4.049   5.595   2.995
   83SLPC   H4X 7858   4.102   5.633   2.905
   83SLPC   H4Y 7859   4.101   5.632   3.086
   83SLPC   C35 7860   3.904   5.642   2.989
   83SLPC   H5X 7861   3.853   5.600   2.900
   83SLPC   H5Y 7862   3.905   5.753   2.978
   83SLPC   C36 7863   3.826   5.606   3.116
   83SLPC   H6X 7864   3.767   5.698   3.140
   83SLPC   H6Y 7865   3.895   5.586   3.200
   83SLPC   C37 7866   3.717   5.499   3.104
   83SLPC   H7X 7867   3.763   5.403   3.074
   83SLPC   H7Y 7868   3.649   5.527   3.020
   83SLPC   C38 7869   3.630   5.485   3.231
   83SLPC   H8X 7870   3.568   5.393   3.222
   83SLPC   H8Y 7871   3.559   5.571   3.235
   83SLPC   C39 7872   3.707   5.482   3.365
   83SLPC   H9X 7873   3.764   5.577   3.378
   83SLPC   H9Y 7874   3.782   5.400   3.357
   83SLPC  C310 7875   3.619   5.462   3.489
   83SLPC  H10X 7876   3.553   5.373   3.474
   83SLPC  H10Y 7877   3.553   5.551   3.500
   83SLPC  C311 7878   3.700   5.442   3.619
   83SLPC  H11X 7879   3.772   5.526   3.629
   83SLPC  H11Y 7880   3.759   5.348   3.609
   83SLPC  C312 7881   3.613   5.434   3.746
   83SLPC  H12X 7882   3.543   5.349   3.738
   83SLPC  H12Y 7883   3.552   5.527   3.753
   83SLPC  C313 7884   3.694   5.421   3.877
   83SLPC  H13X 7885   3.625   5.435   3.964
   83SLPC  H13Y 7886   3.770   5.502   3.881
   83SLPC  C314 7887   3.764   5.285   3.892
   83SLPC  H14X 7888   3.830   5.272   3.804
   83SLPC  H14Y 7889   3.689   5.204   3.891
   83SLPC  C315 7890   3.854   5.273   4.017
   83SLPC  H15X 7891   3.906   5.370   4.033
   83SLPC  H15Y 7892   3.932   5.197   3.998
   83SLPC  C316 7893   3.781   5.231   4.147
   83SLPC  H16X 7894   3.690   5.293   4.161
   83SLPC  H16Y 7895   3.851   5.253   4.231
   83SLPC  C317 7896   3.747   5.081   4.153
   83SLPC  H17X 7897   3.843   5.025   4.144
   83SLPC  H17Y 7898   3.684   5.057   4.065
   83SLPC  C318 7899   3.673   5.033   4.278
   83SLPC  H18X 7900   3.638   4.929   4.264
   83SLPC  H18Y 7901   3.584   5.097   4.298
   83SLPC  H18Z 7902   3.739   5.035   4.367
   84SLPC     N 7903   1.128   2.352   2.321
   84SLPC   C13 7904   1.189   2.476   2.378
   84SLPC  H13A 7905   1.128   2.563   2.359
   84SLPC  H13B 7906   1.192   2.469   2.486
   84SLPC  H13C 7907   1.289   2.495   2.342
   84SLPC   C14 7908   1.205   2.233   2.370
   84SLPC  H14A 7909   1.194   2.229   2.477
   84SLPC  H14B 7910   1.163   2.139   2.336
   84SLPC  H14C 7911   1.310   2.236   2.348
   84SLPC   C15 7912   1.128   2.357   2.171
   84SLPC  H15A 7913   1.066   2.438   2.136
   84SLPC  H15B 7914   1.229   2.374   2.135
   84SLPC  H15C 7915   1.089   2.265   2.131
   84SLPC   C12 7916   0.986   2.337   2.373
   84SLPC  H12A 7917   0.945   2.243   2.339
   84SLPC  H12B 7918   0.925   2.418   2.335
   84SLPC   C11 7919   0.967   2.338   2.526
   84SLPC  H11A 7920   0.857   2.334   2.544
   84SLPC  H11B 7921   1.005   2.434   2.568
   84SLPC     P 7922   1.032   2.227   2.749
   84SLPC   O13 7923   1.071   2.093   2.796
   84SLPC   O14 7924   1.114   2.342   2.793
   84SLPC   O12 7925   1.031   2.228   2.590
   84SLPC   O11 7926   0.878   2.254   2.780
   84SLPC    C1 7927   0.825   2.386   2.797
   84SLPC    HA 7928   0.892   2.466   2.758
   84SLPC    HB 7929   0.729   2.393   2.741
   84SLPC    C2 7930   0.797   2.415   2.945
   84SLPC    HS 7931   0.739   2.509   2.952
   84SLPC   O21 7932   0.921   2.425   3.016
   84SLPC   C21 7933   0.979   2.541   3.023
   84SLPC   O22 7934   0.944   2.644   2.968
   84SLPC   C22 7935   1.082   2.533   3.136
   84SLPC   H2R 7936   1.168   2.470   3.101
   84SLPC   H2S 7937   1.119   2.636   3.154
   84SLPC    C3 7938   0.715   2.304   3.013
   84SLPC    HX 7939   0.769   2.208   2.997
   84SLPC    HY 7940   0.615   2.294   2.965
   84SLPC   O31 7941   0.710   2.330   3.154
   84SLPC   C31 7942   0.600   2.382   3.203
   84SLPC   O32 7943   0.493   2.391   3.146
   84SLPC   C32 7944   0.630   2.429   3.345
   84SLPC   H2X 7945   0.705   2.510   3.335
   84SLPC   H2Y 7946   0.678   2.344   3.400
   84SLPC   C23 7947   1.020   2.473   3.265
   84SLPC   H3R 7948   0.918   2.515   3.280
   84SLPC   H3S 7949   1.081   2.506   3.352
   84SLPC   C24 7950   1.011   2.319   3.262
   84SLPC   H4R 7951   1.037   2.282   3.161
   84SLPC   H4S 7952   0.906   2.288   3.281
   84SLPC   C25 7953   1.103   2.248   3.362
   84SLPC   H5R 7954   1.207   2.284   3.346
   84SLPC   H5S 7955   1.102   2.139   3.340
   84SLPC   C26 7956   1.060   2.270   3.507
   84SLPC   H6R 7957   1.046   2.378   3.527
   84SLPC   H6S 7958   1.140   2.234   3.576
   84SLPC   C27 7959   0.933   2.195   3.546
   84SLPC   H7R 7960   0.852   2.229   3.478
   84SLPC   H7S 7961   0.906   2.233   3.647
   84SLPC   C28 7962   0.942   2.040   3.542
   84SLPC   H8R 7963   0.945   2.011   3.435
   84SLPC   H8S 7964   0.847   1.997   3.581
   84SLPC   C29 7965   1.059   1.974   3.613
   84SLPC   H9R 7966   1.143   1.955   3.544
   84SLPC  C210 7967   1.076   1.938   3.743
   84SLPC  H10R 7968   1.172   1.892   3.770
   84SLPC  C211 7969   0.982   1.952   3.862
   84SLPC  H11R 7970   1.042   1.950   3.956
   84SLPC  H11S 7971   0.915   1.864   3.866
   84SLPC  C212 7972   0.901   2.077   3.856
   84SLPC  H12R 7973   0.848   2.090   3.761
   84SLPC  C213 7974   0.867   2.167   3.948
   84SLPC  H13R 7975   0.804   2.251   3.916
   84SLPC  C214 7976   0.902   2.167   4.092
   84SLPC  H14R 7977   0.958   2.262   4.110
   84SLPC  H14S 7978   0.966   2.081   4.121
   84SLPC  C215 7979   0.777   2.170   4.178
   84SLPC  H15R 7980   0.802   2.124   4.276
   84SLPC  H15S 7981   0.699   2.102   4.138
   84SLPC  C216 7982   0.715   2.310   4.191
   84SLPC  H16R 7983   0.627   2.317   4.122
   84SLPC  H16S 7984   0.788   2.387   4.158
   84SLPC  C217 7985   0.669   2.343   4.332
   84SLPC  H17R 7986   0.582   2.279   4.355
   84SLPC  H17S 7987   0.632   2.448   4.333
   84SLPC  C218 7988   0.776   2.324   4.439
   84SLPC  H18R 7989   0.844   2.412   4.443
   84SLPC  H18S 7990   0.839   2.233   4.426
   84SLPC  H18T 7991   0.727   2.311   4.538
   84SLPC   C33 7992   0.506   2.478   3.423
   84SLPC   H3X 7993   0.498   2.424   3.520
   84SLPC   H3Y 7994   0.412   2.461   3.368
   84SLPC   C34 7995   0.516   2.626   3.456
   84SLPC   H4X 7996   0.422   2.661   3.503
   84SLPC   H4Y 7997   0.526   2.680   3.359
   84SLPC   C35 7998   0.634   2.656   3.548
   84SLPC   H5X 7999   0.661   2.763   3.537
   84SLPC   H5Y 8000   0.726   2.599   3.522
   84SLPC   C36 8001   0.597   2.632   3.694
   84SLPC   H6X 8002   0.487   2.627   3.705
   84SLPC   H6Y 8003   0.633   2.723   3.748
   84SLPC   C37 8004   0.661   2.508   3.755
   84SLPC   H7X 8005   0.767   2.501   3.724
   84SLPC   H7Y 8006   0.608   2.418   3.716
   84SLPC   C38 8007   0.653   2.508   3.909
   84SLPC   H8X 8008   0.710   2.420   3.946
   84SLPC   H8Y 8009   0.547   2.496   3.940
   84SLPC   C39 8010   0.711   2.634   3.975
   84SLPC   H9X 8011   0.716   2.620   4.085
   84SLPC   H9Y 8012   0.640   2.718   3.956
   84SLPC  C310 8013   0.846   2.681   3.919
   84SLPC  H10X 8014   0.870   2.780   3.964
   84SLPC  H10Y 8015   0.838   2.696   3.809
   84SLPC  C311 8016   0.963   2.587   3.944
   84SLPC  H11X 8017   1.051   2.620   3.884
   84SLPC  H11Y 8018   0.937   2.484   3.912
   84SLPC  C312 8019   1.002   2.589   4.091
   84SLPC  H12X 8020   0.911   2.565   4.151
   84SLPC  H12Y 8021   1.031   2.693   4.119
   84SLPC  C313 8022   1.111   2.489   4.125
   84SLPC  H13X 8023   1.212   2.536   4.124
   84SLPC  H13Y 8024   1.111   2.410   4.047
   84SLPC  C314 8025   1.083   2.421   4.260
   84SLPC  H14X 8026   0.974   2.402   4.268
   84SLPC  H14Y 8027   1.108   2.491   4.343
   84SLPC  C315 8028   1.154   2.286   4.274
   84SLPC  H15X 8029   1.264   2.303   4.271
   84SLPC  H15Y 8030   1.134   2.221   4.187
   84SLPC  C316 8031   1.112   2.212   4.402
   84SLPC  H16X 8032   1.024   2.148   4.381
   84SLPC  H16Y 8033   1.080   2.289   4.476
   84SLPC  C317 8034   1.224   2.130   4.465
   84SLPC  H17X 8035   1.322   2.179   4.445
   84SLPC  H17Y 8036   1.227   2.029   4.417
   84SLPC  C318 8037   1.206   2.116   4.615
   84SLPC  H18X 8038   1.289   2.056   4.658
   84SLPC  H18Y 8039   1.109   2.067   4.639
   84SLPC  H18Z 8040   1.206   2.216   4.664
   85SLPC     N 8041   6.953   4.582   2.538
   85SLPC   C13 8042   7.075   4.497   2.557
   85SLPC  H13A 8043   7.067   4.433   2.643
   85SLPC  H13B 8044   7.094   4.437   2.469
   85SLPC  H13C 8045   7.162   4.560   2.569
   85SLPC   C14 8046   6.833   4.495   2.521
   85SLPC  H14A 8047   6.842   4.429   2.436
   85SLPC  H14B 8048   6.810   4.438   2.610
   85SLPC  H14C 8049   6.747   4.558   2.502
   85SLPC   C15 8050   6.966   4.664   2.413
   85SLPC  H15A 8051   6.876   4.722   2.403
   85SLPC  H15B 8052   7.044   4.737   2.423
   85SLPC  H15C 8053   6.981   4.604   2.324
   85SLPC   C12 8054   6.932   4.678   2.655
   85SLPC  H12A 8055   7.017   4.744   2.662
   85SLPC  H12B 8056   6.927   4.622   2.748
   85SLPC   C11 8057   6.808   4.771   2.650
   85SLPC  H11A 8058   6.809   4.834   2.742
   85SLPC  H11B 8059   6.715   4.711   2.653
   85SLPC     P 8060   6.712   4.974   2.521
   85SLPC   O13 8061   6.723   5.027   2.382
   85SLPC   O14 8062   6.578   4.933   2.567
   85SLPC   O12 8063   6.810   4.851   2.533
   85SLPC   O11 8064   6.779   5.073   2.624
   85SLPC    C1 8065   6.877   5.168   2.580
   85SLPC    HA 8066   6.909   5.154   2.475
   85SLPC    HB 8067   6.833   5.270   2.587
   85SLPC    C2 8068   7.008   5.167   2.665
   85SLPC    HS 8069   7.071   5.246   2.619
   85SLPC   O21 8070   7.074   5.040   2.652
   85SLPC   C21 8071   7.201   5.043   2.690
   85SLPC   O22 8072   7.263   5.140   2.729
   85SLPC   C22 8073   7.261   4.907   2.674
   85SLPC   H2R 8074   7.219   4.860   2.582
   85SLPC   H2S 8075   7.370   4.922   2.660
   85SLPC    C3 8076   6.984   5.204   2.814
   85SLPC    HX 8077   6.937   5.304   2.810
   85SLPC    HY 8078   7.082   5.220   2.865
   85SLPC   O31 8079   6.898   5.114   2.887
   85SLPC   C31 8080   6.961   5.029   2.966
   85SLPC   O32 8081   7.082   5.021   2.980
   85SLPC   C32 8082   6.861   4.940   3.039
   85SLPC   H2X 8083   6.773   4.923   2.974
   85SLPC   H2Y 8084   6.829   4.993   3.131
   85SLPC   C23 8085   7.238   4.819   2.795
   85SLPC   H3R 8086   7.129   4.805   2.815
   85SLPC   H3S 8087   7.282   4.866   2.886
   85SLPC   C24 8088   7.304   4.686   2.766
   85SLPC   H4R 8089   7.414   4.703   2.754
   85SLPC   H4S 8090   7.266   4.650   2.668
   85SLPC   C25 8091   7.283   4.581   2.873
   85SLPC   H5R 8092   7.174   4.563   2.888
   85SLPC   H5S 8093   7.328   4.484   2.842
   85SLPC   C26 8094   7.347   4.626   3.004
   85SLPC   H6R 8095   7.410   4.716   2.985
   85SLPC   H6S 8096   7.416   4.548   3.042
   85SLPC   C27 8097   7.240   4.660   3.107
   85SLPC   H7R 8098   7.175   4.572   3.127
   85SLPC   H7S 8099   7.174   4.735   3.059
   85SLPC   C28 8100   7.298   4.710   3.238
   85SLPC   H8R 8101   7.395   4.659   3.256
   85SLPC   H8S 8102   7.230   4.685   3.322
   85SLPC   C29 8103   7.318   4.857   3.222
   85SLPC   H9R 8104   7.360   4.888   3.126
   85SLPC  C210 8105   7.284   4.952   3.309
   85SLPC  H10R 8106   7.297   5.055   3.273
   85SLPC  C211 8107   7.220   4.937   3.445
   85SLPC  H11R 8108   7.299   4.928   3.523
   85SLPC  H11S 8109   7.159   4.844   3.451
   85SLPC  C212 8110   7.139   5.061   3.469
   85SLPC  H12R 8111   7.196   5.155   3.469
   85SLPC  C213 8112   7.008   5.070   3.499
   85SLPC  H13R 8113   6.965   5.171   3.502
   85SLPC  C214 8114   6.911   4.956   3.515
   85SLPC  H14R 8115   6.955   4.863   3.474
   85SLPC  H14S 8116   6.819   4.979   3.456
   85SLPC  C215 8117   6.867   4.919   3.659
   85SLPC  H15R 8118   6.788   4.841   3.651
   85SLPC  H15S 8119   6.818   5.004   3.711
   85SLPC  C216 8120   6.980   4.866   3.749
   85SLPC  H16R 8121   7.037   4.786   3.695
   85SLPC  H16S 8122   6.933   4.819   3.838
   85SLPC  C217 8123   7.075   4.976   3.797
   85SLPC  H17R 8124   7.027   5.075   3.779
   85SLPC  H17S 8125   7.168   4.974   3.736
   85SLPC  C218 8126   7.109   4.969   3.945
   85SLPC  H18R 8127   7.165   4.875   3.966
   85SLPC  H18S 8128   7.017   4.970   4.007
   85SLPC  H18T 8129   7.173   5.055   3.975
   85SLPC   C33 8130   6.933   4.809   3.074
   85SLPC   H3X 8131   7.019   4.833   3.140
   85SLPC   H3Y 8132   6.972   4.763   2.980
   85SLPC   C34 8133   6.848   4.705   3.145
   85SLPC   H4X 8134   6.873   4.604   3.105
   85SLPC   H4Y 8135   6.740   4.725   3.127
   85SLPC   C35 8136   6.875   4.702   3.295
   85SLPC   H5X 8137   6.822   4.790   3.339
   85SLPC   H5Y 8138   6.984   4.711   3.315
   85SLPC   C36 8139   6.824   4.576   3.362
   85SLPC   H6X 8140   6.861   4.485   3.309
   85SLPC   H6Y 8141   6.713   4.579   3.354
   85SLPC   C37 8142   6.855   4.564   3.511
   85SLPC   H7X 8143   6.837   4.662   3.561
   85SLPC   H7Y 8144   6.963   4.538   3.526
   85SLPC   C38 8145   6.765   4.458   3.573
   85SLPC   H8X 8146   6.825   4.384   3.629
   85SLPC   H8Y 8147   6.716   4.403   3.489
   85SLPC   C39 8148   6.655   4.515   3.664
   85SLPC   H9X 8149   6.558   4.469   3.637
   85SLPC   H9Y 8150   6.643   4.625   3.649
   85SLPC  C310 8151   6.685   4.483   3.810
   85SLPC  H10X 8152   6.775   4.541   3.840
   85SLPC  H10Y 8153   6.712   4.375   3.819
   85SLPC  C311 8154   6.568   4.510   3.904
   85SLPC  H11X 8155   6.543   4.419   3.961
   85SLPC  H11Y 8156   6.477   4.538   3.845
   85SLPC  C312 8157   6.597   4.624   4.002
   85SLPC  H12X 8158   6.503   4.646   4.056
   85SLPC  H12Y 8159   6.627   4.714   3.945
   85SLPC  C313 8160   6.706   4.586   4.102
   85SLPC  H13X 8161   6.797   4.553   4.049
   85SLPC  H13Y 8162   6.668   4.500   4.162
   85SLPC  C314 8163   6.742   4.701   4.196
   85SLPC  H14X 8164   6.793   4.779   4.135
   85SLPC  H14Y 8165   6.814   4.666   4.273
   85SLPC  C315 8166   6.619   4.764   4.264
   85SLPC  H15X 8167   6.558   4.684   4.312
   85SLPC  H15Y 8168   6.556   4.811   4.186
   85SLPC  C316 8169   6.652   4.872   4.367
   85SLPC  H16X 8170   6.673   4.822   4.464
   85SLPC  H16Y 8171   6.563   4.936   4.383
   85SLPC  C317 8172   6.772   4.958   4.329
   85SLPC  H17X 8173   6.752   5.012   4.234
   85SLPC  H17Y 8174   6.861   4.893   4.312
   85SLPC  C318 8175   6.811   5.056   4.438
   85SLPC  H18X 8176   6.741   5.142   4.443
   85SLPC  H18Y 8177   6.914   5.091   4.418
   85SLPC  H18Z 8178   6.813   5.006   4.537
   86SLPC     N 8179   0.224   3.148   2.478
   86SLPC   C13 8180   0.360   3.105   2.523
   86SLPC  H13A 8181   0.359   3.002   2.556
   86SLPC  H13B 8182   0.433   3.114   2.444
   86SLPC  H13C 8183   0.396   3.169   2.602
   86SLPC   C14 8184   0.173   3.056   2.372
   86SLPC  H14A 8185   0.072   3.087   2.347
   86SLPC  H14B 8186   0.235   3.059   2.284
   86SLPC  H14C 8187   0.162   2.956   2.410
   86SLPC   C15 8188   0.235   3.288   2.424
   86SLPC  H15A 8189   0.138   3.323   2.392
   86SLPC  H15B 8190   0.270   3.354   2.501
   86SLPC  H15C 8191   0.303   3.293   2.341
   86SLPC   C12 8192   0.124   3.147   2.592
   86SLPC  H12A 8193   0.113   3.248   2.629
   86SLPC  H12B 8194   0.165   3.087   2.672
   86SLPC   C11 8195  -0.021   3.095   2.567
   86SLPC  H11A 8196  -0.080   3.106   2.661
   86SLPC  H11B 8197  -0.019   2.986   2.546
   86SLPC     P 8198  -0.136   3.311   2.473
   86SLPC   O13 8199  -0.047   3.395   2.388
   86SLPC   O14 8200  -0.280   3.313   2.442
   86SLPC   O12 8201  -0.084   3.162   2.458
   86SLPC   O11 8202  -0.109   3.344   2.627
   86SLPC    C1 8203  -0.023   3.456   2.650
   86SLPC    HA 8204   0.072   3.443   2.594
   86SLPC    HB 8205  -0.072   3.549   2.614
   86SLPC    C2 8206   0.026   3.483   2.796
   86SLPC    HS 8207   0.108   3.558   2.791
   86SLPC   O21 8208   0.074   3.364   2.857
   86SLPC   C21 8209   0.201   3.342   2.828
   86SLPC   O22 8210   0.263   3.388   2.734
   86SLPC   C22 8211   0.263   3.260   2.938
   86SLPC   H2R 8212   0.351   3.318   2.975
   86SLPC   H2S 8213   0.189   3.257   3.021
   86SLPC    C3 8214  -0.083   3.552   2.883
   86SLPC    HX 8215  -0.136   3.625   2.818
   86SLPC    HY 8216  -0.034   3.612   2.962
   86SLPC   O31 8217  -0.179   3.459   2.936
   86SLPC   C31 8218  -0.146   3.407   3.052
   86SLPC   O32 8219  -0.045   3.433   3.116
   86SLPC   C32 8220  -0.254   3.311   3.094
   86SLPC   H2X 8221  -0.228   3.210   3.057
   86SLPC   H2Y 8222  -0.350   3.341   3.046
   86SLPC   C23 8223   0.311   3.122   2.892
   86SLPC   H3R 8224   0.394   3.093   2.959
   86SLPC   H3S 8225   0.355   3.128   2.790
   86SLPC   C24 8226   0.204   3.012   2.899
   86SLPC   H4R 8227   0.254   2.914   2.882
   86SLPC   H4S 8228   0.126   3.022   2.821
   86SLPC   C25 8229   0.130   3.006   3.032
   86SLPC   H5R 8230   0.087   2.904   3.041
   86SLPC   H5S 8231   0.044   3.076   3.033
   86SLPC   C26 8232   0.218   3.035   3.154
   86SLPC   H6R 8233   0.224   3.144   3.175
   86SLPC   H6S 8234   0.321   2.997   3.136
   86SLPC   C27 8235   0.163   2.963   3.275
   86SLPC   H7R 8236   0.225   2.871   3.282
   86SLPC   H7S 8237   0.058   2.935   3.251
   86SLPC   C28 8238   0.158   3.026   3.414
   86SLPC   H8R 8239   0.199   2.956   3.489
   86SLPC   H8S 8240   0.050   3.025   3.439
   86SLPC   C29 8241   0.225   3.159   3.429
   86SLPC   H9R 8242   0.328   3.168   3.392
   86SLPC  C210 8243   0.165   3.264   3.484
   86SLPC  H10R 8244   0.218   3.360   3.487
   86SLPC  C211 8245   0.024   3.260   3.537
   86SLPC  H11R 8246   0.023   3.243   3.647
   86SLPC  H11S 8247  -0.039   3.181   3.490
   86SLPC  C212 8248  -0.044   3.384   3.497
   86SLPC  H12R 8249  -0.025   3.415   3.394
   86SLPC  C213 8250  -0.137   3.449   3.568
   86SLPC  H13R 8251  -0.186   3.538   3.527
   86SLPC  C214 8252  -0.196   3.417   3.698
   86SLPC  H14R 8253  -0.237   3.315   3.686
   86SLPC  H14S 8254  -0.282   3.487   3.708
   86SLPC  C215 8255  -0.116   3.425   3.826
   86SLPC  H15R 8256  -0.010   3.402   3.802
   86SLPC  H15S 8257  -0.146   3.342   3.893
   86SLPC  C216 8258  -0.143   3.559   3.894
   86SLPC  H16R 8259  -0.252   3.581   3.883
   86SLPC  H16S 8260  -0.094   3.645   3.843
   86SLPC  C217 8261  -0.117   3.557   4.044
   86SLPC  H17R 8262  -0.010   3.578   4.064
   86SLPC  H17S 8263  -0.139   3.455   4.081
   86SLPC  C218 8264  -0.207   3.657   4.115
   86SLPC  H18R 8265  -0.171   3.678   4.218
   86SLPC  H18S 8266  -0.311   3.617   4.123
   86SLPC  H18T 8267  -0.211   3.752   4.059
   86SLPC   C33 8268  -0.277   3.314   3.246
   86SLPC   H3X 8269  -0.260   3.415   3.289
   86SLPC   H3Y 8270  -0.197   3.248   3.286
   86SLPC   C34 8271  -0.421   3.272   3.282
   86SLPC   H4X 8272  -0.456   3.196   3.209
   86SLPC   H4Y 8273  -0.488   3.359   3.271
   86SLPC   C35 8274  -0.440   3.212   3.423
   86SLPC   H5X 8275  -0.519   3.134   3.419
   86SLPC   H5Y 8276  -0.475   3.292   3.492
   86SLPC   C36 8277  -0.311   3.153   3.480
   86SLPC   H6X 8278  -0.248   3.242   3.505
   86SLPC   H6Y 8279  -0.252   3.097   3.404
   86SLPC   C37 8280  -0.325   3.067   3.603
   86SLPC   H7X 8281  -0.352   2.966   3.565
   86SLPC   H7Y 8282  -0.410   3.102   3.665
   86SLPC   C38 8283  -0.198   3.047   3.685
   86SLPC   H8X 8284  -0.161   3.142   3.728
   86SLPC   H8Y 8285  -0.116   3.006   3.621
   86SLPC   C39 8286  -0.226   2.952   3.801
   86SLPC   H9X 8287  -0.181   2.853   3.778
   86SLPC   H9Y 8288  -0.335   2.936   3.811
   86SLPC  C310 8289  -0.171   3.002   3.933
   86SLPC  H10X 8290  -0.204   3.107   3.949
   86SLPC  H10Y 8291  -0.060   3.000   3.921
   86SLPC  C311 8292  -0.208   2.915   4.053
   86SLPC  H11X 8293  -0.144   2.825   4.052
   86SLPC  H11Y 8294  -0.314   2.882   4.043
   86SLPC  C312 8295  -0.194   2.987   4.189
   86SLPC  H12X 8296  -0.181   2.911   4.269
   86SLPC  H12Y 8297  -0.288   3.042   4.209
   86SLPC  C313 8298  -0.080   3.090   4.197
   86SLPC  H13X 8299  -0.075   3.127   4.301
   86SLPC  H13Y 8300  -0.106   3.178   4.133
   86SLPC  C314 8301   0.059   3.038   4.157
   86SLPC  H14X 8302   0.051   2.934   4.117
   86SLPC  H14Y 8303   0.122   3.030   4.248
   86SLPC  C315 8304   0.134   3.124   4.052
   86SLPC  H15X 8305   0.089   3.118   3.951
   86SLPC  H15Y 8306   0.238   3.086   4.043
   86SLPC  C316 8307   0.145   3.272   4.086
   86SLPC  H16X 8308   0.050   3.326   4.067
   86SLPC  H16Y 8309   0.223   3.310   4.016
   86SLPC  C317 8310   0.190   3.293   4.229
   86SLPC  H17X 8311   0.280   3.229   4.242
   86SLPC  H17Y 8312   0.113   3.254   4.299
   86SLPC  C318 8313   0.225   3.435   4.268
   86SLPC  H18X 8314   0.312   3.470   4.208
   86SLPC  H18Y 8315   0.255   3.443   4.375
   86SLPC  H18Z 8316   0.137   3.501   4.251
   87SLPC     N 8317   7.178   1.890   2.369
   87SLPC   C13 8318   7.267   1.952   2.472
   87SLPC  H13A 8319   7.329   2.031   2.431
   87SLPC  H13B 8320   7.207   1.996   2.550
   87SLPC  H13C 8321   7.332   1.879   2.518
   87SLPC   C14 8322   7.100   1.782   2.438
   87SLPC  H14A 8323   7.026   1.828   2.502
   87SLPC  H14B 8324   7.052   1.716   2.367
   87SLPC  H14C 8325   7.164   1.720   2.498
   87SLPC   C15 8326   7.265   1.828   2.265
   87SLPC  H15A 8327   7.328   1.751   2.308
   87SLPC  H15B 8328   7.206   1.777   2.190
   87SLPC  H15C 8329   7.331   1.901   2.220
   87SLPC   C12 8330   7.082   1.992   2.311
   87SLPC  H12A 8331   7.005   1.939   2.256
   87SLPC  H12B 8332   7.136   2.055   2.242
   87SLPC   C11 8333   7.008   2.086   2.409
   87SLPC  H11A 8334   6.953   2.162   2.350
   87SLPC  H11B 8335   7.082   2.141   2.471
   87SLPC     P 8336   6.857   2.101   2.614
   87SLPC   O13 8337   6.938   2.063   2.731
   87SLPC   O14 8338   6.855   2.242   2.572
   87SLPC   O12 8339   6.914   2.014   2.490
   87SLPC   O11 8340   6.710   2.049   2.632
   87SLPC    C1 8341   6.667   1.923   2.583
   87SLPC    HA 8342   6.624   1.937   2.482
   87SLPC    HB 8343   6.751   1.850   2.575
   87SLPC    C2 8344   6.558   1.863   2.675
   87SLPC    HS 8345   6.478   1.940   2.683
   87SLPC   O21 8346   6.615   1.835   2.805
   87SLPC   C21 8347   6.527   1.845   2.905
   87SLPC   O22 8348   6.407   1.860   2.891
   87SLPC   C22 8349   6.597   1.836   3.041
   87SLPC   H2R 8350   6.679   1.911   3.043
   87SLPC   H2S 8351   6.523   1.865   3.118
   87SLPC    C3 8352   6.499   1.737   2.607
   87SLPC    HX 8353   6.436   1.772   2.523
   87SLPC    HY 8354   6.432   1.682   2.676
   87SLPC   O31 8355   6.605   1.656   2.550
   87SLPC   C31 8356   6.651   1.564   2.632
   87SLPC   O32 8357   6.597   1.524   2.733
   87SLPC   C32 8358   6.785   1.515   2.574
   87SLPC   H2X 8359   6.832   1.600   2.521
   87SLPC   H2Y 8360   6.763   1.434   2.501
   87SLPC   C23 8361   6.649   1.693   3.069
   87SLPC   H3R 8362   6.724   1.665   2.991
   87SLPC   H3S 8363   6.565   1.625   3.043
   87SLPC   C24 8364   6.707   1.668   3.210
   87SLPC   H4R 8365   6.626   1.658   3.285
   87SLPC   H4S 8366   6.763   1.759   3.244
   87SLPC   C25 8367   6.809   1.552   3.223
   87SLPC   H5R 8368   6.910   1.597   3.229
   87SLPC   H5S 8369   6.808   1.494   3.128
   87SLPC   C26 8370   6.793   1.451   3.340
   87SLPC   H6R 8371   6.890   1.399   3.353
   87SLPC   H6S 8372   6.723   1.370   3.310
   87SLPC   C27 8373   6.745   1.501   3.479
   87SLPC   H7R 8374   6.759   1.419   3.552
   87SLPC   H7S 8375   6.636   1.521   3.480
   87SLPC   C28 8376   6.812   1.628   3.530
   87SLPC   H8R 8377   6.781   1.647   3.634
   87SLPC   H8S 8378   6.783   1.716   3.468
   87SLPC   C29 8379   6.957   1.595   3.514
   87SLPC   H9R 8380   7.003   1.629   3.420
   87SLPC  C210 8381   7.029   1.525   3.602
   87SLPC  H10R 8382   7.132   1.495   3.577
   87SLPC  C211 8383   6.988   1.468   3.733
   87SLPC  H11R 8384   6.996   1.358   3.728
   87SLPC  H11S 8385   6.882   1.492   3.758
   87SLPC  C212 8386   7.087   1.529   3.829
   87SLPC  H12R 8387   7.174   1.466   3.853
   87SLPC  C213 8388   7.083   1.655   3.878
   87SLPC  H13R 8389   7.166   1.690   3.942
   87SLPC  C214 8390   6.978   1.757   3.846
   87SLPC  H14R 8391   6.930   1.738   3.748
   87SLPC  H14S 8392   7.027   1.856   3.835
   87SLPC  C215 8393   6.867   1.761   3.953
   87SLPC  H15R 8394   6.798   1.845   3.929
   87SLPC  H15S 8395   6.912   1.782   4.052
   87SLPC  C216 8396   6.786   1.632   3.962
   87SLPC  H16R 8397   6.854   1.545   3.969
   87SLPC  H16S 8398   6.724   1.619   3.871
   87SLPC  C217 8399   6.697   1.625   4.086
   87SLPC  H17R 8400   6.622   1.707   4.082
   87SLPC  H17S 8401   6.760   1.642   4.176
   87SLPC  C218 8402   6.627   1.490   4.098
   87SLPC  H18R 8403   6.702   1.411   4.122
   87SLPC  H18S 8404   6.577   1.464   4.003
   87SLPC  H18T 8405   6.551   1.491   4.179
   87SLPC   C33 8406   6.883   1.462   2.681
   87SLPC   H3X 8407   6.983   1.448   2.634
   87SLPC   H3Y 8408   6.850   1.363   2.718
   87SLPC   C34 8409   6.899   1.556   2.802
   87SLPC   H4X 8410   6.981   1.517   2.866
   87SLPC   H4Y 8411   6.807   1.548   2.863
   87SLPC   C35 8412   6.925   1.703   2.764
   87SLPC   H5X 8413   6.830   1.756   2.743
   87SLPC   H5Y 8414   6.984   1.702   2.670
   87SLPC   C36 8415   7.007   1.787   2.863
   87SLPC   H6X 8416   7.059   1.868   2.808
   87SLPC   H6Y 8417   7.082   1.723   2.915
   87SLPC   C37 8418   6.932   1.853   2.976
   87SLPC   H7X 8419   6.869   1.776   3.025
   87SLPC   H7Y 8420   6.869   1.937   2.939
   87SLPC   C38 8421   7.023   1.895   3.090
   87SLPC   H8X 8422   7.107   1.955   3.049
   87SLPC   H8Y 8423   7.066   1.802   3.134
   87SLPC   C39 8424   6.942   1.968   3.198
   87SLPC   H9X 8425   6.837   1.931   3.199
   87SLPC   H9Y 8426   6.931   2.074   3.169
   87SLPC  C310 8427   7.002   1.953   3.338
   87SLPC  H10X 8428   7.112   1.970   3.333
   87SLPC  H10Y 8429   6.989   1.848   3.375
   87SLPC  C311 8430   6.937   2.051   3.436
   87SLPC  H11X 8431   6.918   2.147   3.384
   87SLPC  H11Y 8432   7.005   2.072   3.521
   87SLPC  C312 8433   6.806   1.993   3.489
   87SLPC  H12X 8434   6.832   1.917   3.566
   87SLPC  H12Y 8435   6.753   1.940   3.407
   87SLPC  C313 8436   6.712   2.099   3.544
   87SLPC  H13X 8437   6.684   2.162   3.456
   87SLPC  H13Y 8438   6.764   2.163   3.618
   87SLPC  C314 8439   6.585   2.041   3.605
   87SLPC  H14X 8440   6.534   1.980   3.527
   87SLPC  H14Y 8441   6.515   2.122   3.633
   87SLPC  C315 8442   6.611   1.953   3.728
   87SLPC  H15X 8443   6.656   2.014   3.810
   87SLPC  H15Y 8444   6.683   1.874   3.701
   87SLPC  C316 8445   6.483   1.884   3.775
   87SLPC  H16X 8446   6.508   1.786   3.819
   87SLPC  H16Y 8447   6.421   1.867   3.684
   87SLPC  C317 8448   6.401   1.965   3.876
   87SLPC  H17X 8449   6.297   1.926   3.874
   87SLPC  H17Y 8450   6.397   2.071   3.845
   87SLPC  C318 8451   6.454   1.953   4.019
   87SLPC  H18X 8452   6.383   1.998   4.091
   87SLPC  H18Y 8453   6.553   2.002   4.029
   87SLPC  H18Z 8454   6.467   1.845   4.045
   88SLPC     N 8455   0.213   7.087   2.524
   88SLPC   C13 8456   0.336   7.126   2.447
   88SLPC  H13A 8457   0.338   7.234   2.439
   88SLPC  H13B 8458   0.427   7.098   2.497
   88SLPC  H13C 8459   0.335   7.087   2.346
   88SLPC   C14 8460   0.212   6.940   2.545
   88SLPC  H14A 8461   0.211   6.888   2.451
   88SLPC  H14B 8462   0.298   6.907   2.601
   88SLPC  H14C 8463   0.123   6.909   2.598
   88SLPC   C15 8464   0.093   7.123   2.441
   88SLPC  H15A 8465   0.094   7.229   2.419
   88SLPC  H15B 8466   0.092   7.071   2.346
   88SLPC  H15C 8467   0.000   7.102   2.492
   88SLPC   C12 8468   0.210   7.163   2.655
   88SLPC  H12A 8469   0.307   7.156   2.702
   88SLPC  H12B 8470   0.137   7.118   2.721
   88SLPC   C11 8471   0.176   7.314   2.646
   88SLPC  H11A 8472   0.181   7.359   2.747
   88SLPC  H11B 8473   0.071   7.325   2.613
   88SLPC     P 8474   0.216   7.486   2.455
   88SLPC   O13 8475   0.326   7.549   2.380
   88SLPC   O14 8476   0.116   7.418   2.371
   88SLPC   O12 8477   0.270   7.379   2.560
   88SLPC   O11 8478   0.145   7.590   2.550
   88SLPC    C1 8479   0.218   7.698   2.608
   88SLPC    HA 8480   0.323   7.706   2.572
   88SLPC    HB 8481   0.169   7.792   2.575
   88SLPC    C2 8482   0.217   7.702   2.765
   88SLPC    HS 8483   0.275   7.792   2.796
   88SLPC   O21 8484   0.269   7.586   2.830
   88SLPC   C21 8485   0.383   7.534   2.797
   88SLPC   O22 8486   0.455   7.564   2.704
   88SLPC   C22 8487   0.417   7.430   2.904
   88SLPC   H2R 8488   0.368   7.457   2.999
   88SLPC   H2S 8489   0.376   7.334   2.867
   88SLPC    C3 8490   0.072   7.718   2.818
   88SLPC    HX 8491   0.013   7.761   2.735
   88SLPC    HY 8492   0.074   7.792   2.902
   88SLPC   O31 8493   0.009   7.594   2.856
   88SLPC   C31 8494   0.020   7.559   2.983
   88SLPC   O32 8495   0.077   7.621   3.071
   88SLPC   C32 8496  -0.056   7.429   3.004
   88SLPC   H2X 8497  -0.119   7.409   2.914
   88SLPC   H2Y 8498  -0.124   7.442   3.091
   88SLPC   C23 8499   0.570   7.422   2.925
   88SLPC   H3R 8500   0.604   7.515   2.975
   88SLPC   H3S 8501   0.621   7.414   2.827
   88SLPC   C24 8502   0.615   7.304   3.010
   88SLPC   H4R 8503   0.574   7.317   3.112
   88SLPC   H4S 8504   0.725   7.307   3.021
   88SLPC   C25 8505   0.575   7.168   2.950
   88SLPC   H5R 8506   0.616   7.161   2.847
   88SLPC   H5S 8507   0.465   7.160   2.944
   88SLPC   C26 8508   0.627   7.050   3.033
   88SLPC   H6R 8509   0.738   7.048   3.027
   88SLPC   H6S 8510   0.589   6.955   2.989
   88SLPC   C27 8511   0.587   7.055   3.182
   88SLPC   H7R 8512   0.641   7.139   3.232
   88SLPC   H7S 8513   0.625   6.962   3.229
   88SLPC   C28 8514   0.435   7.063   3.210
   88SLPC   H8R 8515   0.418   7.013   3.308
   88SLPC   H8S 8516   0.385   6.999   3.134
   88SLPC   C29 8517   0.363   7.196   3.215
   88SLPC   H9R 8518   0.283   7.208   3.141
   88SLPC  C210 8519   0.388   7.301   3.296
   88SLPC  H10R 8520   0.326   7.391   3.286
   88SLPC  C211 8521   0.495   7.308   3.402
   88SLPC  H11R 8522   0.568   7.386   3.373
   88SLPC  H11S 8523   0.554   7.214   3.407
   88SLPC  C212 8524   0.438   7.343   3.537
   88SLPC  H12R 8525   0.393   7.443   3.544
   88SLPC  C213 8526   0.437   7.264   3.646
   88SLPC  H13R 8527   0.394   7.306   3.739
   88SLPC  C214 8528   0.491   7.123   3.659
   88SLPC  H14R 8529   0.588   7.125   3.712
   88SLPC  H14S 8530   0.511   7.078   3.559
   88SLPC  C215 8531   0.396   7.027   3.733
   88SLPC  H15R 8532   0.445   6.928   3.741
   88SLPC  H15S 8533   0.304   7.013   3.673
   88SLPC  C216 8534   0.356   7.073   3.874
   88SLPC  H16R 8535   0.307   7.173   3.869
   88SLPC  H16S 8536   0.446   7.083   3.939
   88SLPC  C217 8537   0.255   6.978   3.941
   88SLPC  H17R 8538   0.308   6.884   3.971
   88SLPC  H17S 8539   0.178   6.950   3.866
   88SLPC  C218 8540   0.186   7.039   4.063
   88SLPC  H18R 8541   0.260   7.067   4.140
   88SLPC  H18S 8542   0.114   6.967   4.107
   88SLPC  H18T 8543   0.130   7.130   4.033
   88SLPC   C33 8544   0.039   7.310   3.029
   88SLPC   H3X 8545   0.078   7.320   3.133
   88SLPC   H3Y 8546   0.126   7.314   2.961
   88SLPC   C34 8547  -0.032   7.175   3.010
   88SLPC   H4X 8548  -0.039   7.153   2.901
   88SLPC   H4Y 8549  -0.137   7.185   3.047
   88SLPC   C35 8550   0.035   7.060   3.085
   88SLPC   H5X 8551   0.145   7.064   3.072
   88SLPC   H5Y 8552  -0.001   6.963   3.045
   88SLPC   C36 8553  -0.002   7.067   3.234
   88SLPC   H6X 8554  -0.109   7.036   3.241
   88SLPC   H6Y 8555   0.006   7.172   3.267
   88SLPC   C37 8556   0.079   6.980   3.330
   88SLPC   H7X 8557   0.188   6.995   3.313
   88SLPC   H7Y 8558   0.055   6.873   3.307
   88SLPC   C38 8559   0.048   7.008   3.478
   88SLPC   H8X 8560   0.095   6.932   3.543
   88SLPC   H8Y 8561  -0.062   7.001   3.495
   88SLPC   C39 8562   0.099   7.144   3.526
   88SLPC   H9X 8563   0.062   7.226   3.461
   88SLPC   H9Y 8564   0.209   7.144   3.517
   88SLPC  C310 8565   0.062   7.172   3.673
   88SLPC  H10X 8566   0.149   7.220   3.722
   88SLPC  H10Y 8567   0.044   7.076   3.726
   88SLPC  C311 8568  -0.061   7.263   3.692
   88SLPC  H11X 8569  -0.070   7.286   3.801
   88SLPC  H11Y 8570  -0.153   7.208   3.663
   88SLPC  C312 8571  -0.056   7.397   3.618
   88SLPC  H12X 8572  -0.147   7.454   3.647
   88SLPC  H12Y 8573  -0.058   7.384   3.508
   88SLPC  C313 8574   0.069   7.476   3.654
   88SLPC  H13X 8575   0.147   7.465   3.576
   88SLPC  H13Y 8576   0.108   7.425   3.746
   88SLPC  C314 8577   0.045   7.623   3.688
   88SLPC  H14X 8578  -0.035   7.629   3.765
   88SLPC  H14Y 8579   0.008   7.678   3.599
   88SLPC  C315 8580   0.168   7.692   3.747
   88SLPC  H15X 8581   0.138   7.782   3.804
   88SLPC  H15Y 8582   0.232   7.726   3.662
   88SLPC  C316 8583   0.255   7.601   3.835
   88SLPC  H16X 8584   0.344   7.661   3.862
   88SLPC  H16Y 8585   0.294   7.516   3.775
   88SLPC  C317 8586   0.192   7.547   3.965
   88SLPC  H17X 8587   0.096   7.495   3.942
   88SLPC  H17Y 8588   0.166   7.633   4.031
   88SLPC  C318 8589   0.285   7.450   4.038
   88SLPC  H18X 8590   0.228   7.368   4.086
   88SLPC  H18Y 8591   0.342   7.502   4.118
   88SLPC  H18Z 8592   0.358   7.404   3.968
   89SAPE     N 8593   4.041   2.579   6.459
   89SAPE   HN1 8594   3.998   2.652   6.398
   89SAPE   HN2 8595   3.985   2.575   6.547
   89SAPE   HN3 8596   4.141   2.599   6.479
   89SAPE   C12 8597   4.028   2.451   6.381
   89SAPE  H12A 8598   4.048   2.366   6.449
   89SAPE  H12B 8599   4.104   2.454   6.300
   89SAPE   C11 8600   3.887   2.440   6.320
   89SAPE  H11A 8601   3.820   2.401   6.399
   89SAPE  H11B 8602   3.890   2.366   6.237
   89SAPE     P 8603   3.692   2.589   6.230
   89SAPE   O13 8604   3.611   2.489   6.304
   89SAPE   O14 8605   3.662   2.731   6.258
   89SAPE   O12 8606   3.844   2.568   6.272
   89SAPE   O11 8607   3.689   2.557   6.077
   89SAPE    C1 8608   3.802   2.572   5.989
   89SAPE    HA 8609   3.899   2.577   6.043
   89SAPE    HB 8610   3.809   2.482   5.924
   89SAPE    C2 8611   3.793   2.700   5.899
   89SAPE    HS 8612   3.809   2.788   5.964
   89SAPE   O21 8613   3.664   2.715   5.838
   89SAPE   C21 8614   3.602   2.618   5.775
   89SAPE   O22 8615   3.633   2.501   5.767
   89SAPE   C22 8616   3.477   2.678   5.710
   89SAPE   H2R 8617   3.404   2.696   5.792
   89SAPE   H2S 8618   3.504   2.776   5.664
   89SAPE    C3 8619   3.904   2.699   5.790
   89SAPE    HX 8620   4.001   2.710   5.844
   89SAPE    HY 8621   3.894   2.791   5.728
   89SAPE   O31 8622   3.909   2.577   5.713
   89SAPE   C31 8623   3.862   2.585   5.588
   89SAPE   O32 8624   3.811   2.683   5.539
   89SAPE   C32 8625   3.888   2.452   5.516
   89SAPE   H2X 8626   3.815   2.377   5.554
   89SAPE   H2Y 8627   3.990   2.419   5.544
   89SAPE   C23 8628   3.413   2.585   5.604
   89SAPE   H3R 8629   3.305   2.609   5.595
   89SAPE   H3S 8630   3.419   2.480   5.641
   89SAPE   C24 8631   3.478   2.591   5.464
   89SAPE   H4R 8632   3.445   2.501   5.409
   89SAPE   H4S 8633   3.588   2.583   5.474
   89SAPE   C25 8634   3.437   2.713   5.384
   89SAPE   H5R 8635   3.335   2.748   5.406
   89SAPE   C26 8636   3.509   2.781   5.293
   89SAPE   H6R 8637   3.460   2.865   5.242
   89SAPE   C27 8638   3.651   2.756   5.245
   89SAPE   H7R 8639   3.650   2.723   5.139
   89SAPE   H7S 8640   3.697   2.673   5.303
   89SAPE   C28 8641   3.736   2.880   5.260
   89SAPE   H8R 8642   3.721   2.932   5.356
   89SAPE   C29 8643   3.829   2.929   5.175
   89SAPE   H9R 8644   3.881   3.021   5.205
   89SAPE  C210 8645   3.876   2.874   5.042
   89SAPE  H10R 8646   3.886   2.764   5.051
   89SAPE  H10S 8647   3.979   2.910   5.024
   89SAPE  C211 8648   3.789   2.903   4.921
   89SAPE  H11R 8649   3.690   2.857   4.927
   89SAPE  C212 8650   3.819   2.977   4.811
   89SAPE  H12R 8651   3.742   2.984   4.733
   89SAPE  C213 8652   3.946   3.052   4.776
   89SAPE  H13R 8653   3.980   3.108   4.866
   89SAPE  H13S 8654   3.920   3.131   4.702
   89SAPE  C214 8655   4.063   2.970   4.726
   89SAPE  H14R 8656   4.112   2.912   4.805
   89SAPE  C215 8657   4.113   2.958   4.600
   89SAPE  H15R 8658   4.198   2.890   4.586
   89SAPE  C216 8659   4.068   3.024   4.472
   89SAPE  H16R 8660   4.155   3.076   4.426
   89SAPE  H16S 8661   3.992   3.103   4.493
   89SAPE  C217 8662   4.008   2.932   4.363
   89SAPE  H17R 8663   3.993   2.993   4.271
   89SAPE  H17S 8664   3.907   2.897   4.396
   89SAPE  C218 8665   4.092   2.808   4.324
   89SAPE  H18R 8666   4.089   2.734   4.407
   89SAPE  H18S 8667   4.198   2.838   4.311
   89SAPE  C219 8668   4.046   2.736   4.195
   89SAPE  H19R 8669   4.090   2.634   4.194
   89SAPE  H19S 8670   4.089   2.789   4.107
   89SAPE  C220 8671   3.895   2.726   4.172
   89SAPE  H20R 8672   3.848   2.827   4.168
   89SAPE  H20S 8673   3.846   2.667   4.252
   89SAPE  H20T 8674   3.875   2.676   4.074
   89SAPE   C33 8675   3.877   2.464   5.362
   89SAPE   H3X 8676   3.902   2.567   5.331
   89SAPE   H3Y 8677   3.772   2.448   5.330
   89SAPE   C34 8678   3.974   2.371   5.286
   89SAPE   H4X 8679   4.054   2.337   5.356
   89SAPE   H4Y 8680   4.025   2.428   5.206
   89SAPE   C35 8681   3.910   2.249   5.220
   89SAPE   H5X 8682   3.823   2.214   5.280
   89SAPE   H5Y 8683   3.987   2.169   5.222
   89SAPE   C36 8684   3.874   2.270   5.072
   89SAPE   H6X 8685   3.840   2.173   5.029
   89SAPE   H6Y 8686   3.966   2.299   5.017
   89SAPE   C37 8687   3.765   2.374   5.045
   89SAPE   H7X 8688   3.751   2.380   4.935
   89SAPE   H7Y 8689   3.799   2.473   5.080
   89SAPE   C38 8690   3.631   2.339   5.110
   89SAPE   H8X 8691   3.644   2.331   5.220
   89SAPE   H8Y 8692   3.597   2.239   5.074
   89SAPE   C39 8693   3.523   2.442   5.080
   89SAPE   H9X 8694   3.574   2.540   5.065
   89SAPE   H9Y 8695   3.454   2.454   5.166
   89SAPE  C310 8696   3.443   2.404   4.956
   89SAPE  H10X 8697   3.368   2.327   4.984
   89SAPE  H10Y 8698   3.511   2.357   4.882
   89SAPE  C311 8699   3.372   2.524   4.891
   89SAPE  H11X 8700   3.308   2.573   4.969
   89SAPE  H11Y 8701   3.305   2.487   4.811
   89SAPE  C312 8702   3.466   2.631   4.832
   89SAPE  H12X 8703   3.516   2.686   4.914
   89SAPE  H12Y 8704   3.404   2.704   4.777
   89SAPE  C313 8705   3.573   2.575   4.737
   89SAPE  H13X 8706   3.652   2.522   4.795
   89SAPE  H13Y 8707   3.621   2.663   4.688
   89SAPE  C314 8708   3.517   2.482   4.629
   89SAPE  H14X 8709   3.432   2.537   4.584
   89SAPE  H14Y 8710   3.476   2.389   4.672
   89SAPE  C315 8711   3.618   2.447   4.518
   89SAPE  H15X 8712   3.685   2.533   4.501
   89SAPE  H15Y 8713   3.563   2.432   4.423
   89SAPE  C316 8714   3.698   2.318   4.541
   89SAPE  H16X 8715   3.627   2.234   4.557
   89SAPE  H16Y 8716   3.760   2.327   4.633
   89SAPE  C317 8717   3.787   2.286   4.420
   89SAPE  H17X 8718   3.847   2.376   4.396
   89SAPE  H17Y 8719   3.721   2.266   4.333
   89SAPE  C318 8720   3.881   2.167   4.440
   89SAPE  H18X 8721   3.944   2.152   4.350
   89SAPE  H18Y 8722   3.822   2.074   4.457
   89SAPE  H18Z 8723   3.947   2.183   4.527
   90SAPE     N 8724   5.094   3.086   6.397
   90SAPE   HN1 8725   5.050   3.175   6.428
   90SAPE   HN2 8726   5.026   3.009   6.412
   90SAPE   HN3 8727   5.178   3.069   6.456
   90SAPE   C12 8728   5.129   3.107   6.251
   90SAPE  H12A 8729   5.172   3.013   6.211
   90SAPE  H12B 8730   5.207   3.186   6.249
   90SAPE   C11 8731   5.006   3.154   6.169
   90SAPE  H11A 8732   4.949   3.064   6.139
   90SAPE  H11B 8733   5.041   3.202   6.075
   90SAPE     P 8734   4.965   3.382   6.294
   90SAPE   O13 8735   4.849   3.472   6.313
   90SAPE   O14 8736   5.048   3.353   6.413
   90SAPE   O12 8737   4.919   3.241   6.240
   90SAPE   O11 8738   5.059   3.436   6.180
   90SAPE    C1 8739   5.144   3.548   6.212
   90SAPE    HA 8740   5.084   3.641   6.212
   90SAPE    HB 8741   5.189   3.539   6.313
   90SAPE    C2 8742   5.262   3.563   6.113
   90SAPE    HS 8743   5.308   3.663   6.129
   90SAPE   O21 8744   5.221   3.551   5.977
   90SAPE   C21 8745   5.124   3.624   5.929
   90SAPE   O22 8746   5.069   3.719   5.984
   90SAPE   C22 8747   5.094   3.573   5.788
   90SAPE   H2R 8748   5.164   3.622   5.717
   90SAPE   H2S 8749   5.115   3.464   5.786
   90SAPE    C3 8750   5.374   3.456   6.139
   90SAPE    HX 8751   5.395   3.460   6.248
   90SAPE    HY 8752   5.467   3.489   6.088
   90SAPE   O31 8753   5.338   3.319   6.104
   90SAPE   C31 8754   5.360   3.290   5.975
   90SAPE   O32 8755   5.404   3.367   5.893
   90SAPE   C32 8756   5.327   3.143   5.947
   90SAPE   H2X 8757   5.220   3.125   5.970
   90SAPE   H2Y 8758   5.389   3.081   6.015
   90SAPE   C23 8759   4.948   3.597   5.748
   90SAPE   H3R 8760   4.923   3.705   5.745
   90SAPE   H3S 8761   4.884   3.550   5.826
   90SAPE   C24 8762   4.912   3.528   5.615
   90SAPE   H4R 8763   4.808   3.491   5.621
   90SAPE   H4S 8764   4.975   3.438   5.602
   90SAPE   C25 8765   4.917   3.619   5.495
   90SAPE   H5R 8766   4.873   3.719   5.511
   90SAPE   C26 8767   4.965   3.587   5.374
   90SAPE   H6R 8768   4.957   3.662   5.293
   90SAPE   C27 8769   5.023   3.455   5.334
   90SAPE   H7R 8770   5.026   3.449   5.223
   90SAPE   H7S 8771   4.956   3.373   5.367
   90SAPE   C28 8772   5.161   3.435   5.394
   90SAPE   H8R 8773   5.182   3.491   5.486
   90SAPE   C29 8774   5.256   3.357   5.343
   90SAPE   H9R 8775   5.353   3.351   5.394
   90SAPE  C210 8776   5.240   3.276   5.217
   90SAPE  H10R 8777   5.183   3.335   5.141
   90SAPE  H10S 8778   5.176   3.188   5.239
   90SAPE  C211 8779   5.369   3.226   5.160
   90SAPE  H11R 8780   5.446   3.193   5.232
   90SAPE  C212 8781   5.398   3.218   5.030
   90SAPE  H12R 8782   5.498   3.183   5.002
   90SAPE  C213 8783   5.305   3.258   4.918
   90SAPE  H13R 8784   5.205   3.216   4.940
   90SAPE  H13S 8785   5.337   3.209   4.824
   90SAPE  C214 8786   5.288   3.406   4.897
   90SAPE  H14R 8787   5.185   3.443   4.912
   90SAPE  C215 8788   5.383   3.495   4.866
   90SAPE  H15R 8789   5.355   3.601   4.858
   90SAPE  C216 8790   5.529   3.466   4.845
   90SAPE  H16R 8791   5.557   3.365   4.883
   90SAPE  H16S 8792   5.589   3.538   4.905
   90SAPE  C217 8793   5.576   3.471   4.698
   90SAPE  H17R 8794   5.682   3.437   4.695
   90SAPE  H17S 8795   5.573   3.575   4.660
   90SAPE  C218 8796   5.497   3.379   4.604
   90SAPE  H18R 8797   5.434   3.309   4.663
   90SAPE  H18S 8798   5.567   3.316   4.544
   90SAPE  C219 8799   5.409   3.458   4.507
   90SAPE  H19R 8800   5.473   3.515   4.437
   90SAPE  H19S 8801   5.348   3.531   4.565
   90SAPE  C220 8802   5.316   3.367   4.429
   90SAPE  H20R 8803   5.250   3.309   4.497
   90SAPE  H20S 8804   5.375   3.294   4.368
   90SAPE  H20T 8805   5.251   3.427   4.361
   90SAPE   C33 8806   5.358   3.101   5.800
   90SAPE   H3X 8807   5.335   2.993   5.789
   90SAPE   H3Y 8808   5.467   3.113   5.781
   90SAPE   C34 8809   5.281   3.178   5.691
   90SAPE   H4X 8810   5.314   3.141   5.592
   90SAPE   H4Y 8811   5.309   3.285   5.693
   90SAPE   C35 8812   5.128   3.168   5.698
   90SAPE   H5X 8813   5.084   3.261   5.656
   90SAPE   H5Y 8814   5.094   3.161   5.804
   90SAPE   C36 8815   5.073   3.050   5.618
   90SAPE   H6X 8816   4.970   3.025   5.652
   90SAPE   H6Y 8817   5.137   2.961   5.637
   90SAPE   C37 8818   5.068   3.078   5.467
   90SAPE   H7X 8819   5.170   3.104   5.433
   90SAPE   H7Y 8820   5.001   3.164   5.445
   90SAPE   C38 8821   5.022   2.954   5.390
   90SAPE   H8X 8822   4.916   2.931   5.415
   90SAPE   H8Y 8823   5.088   2.874   5.430
   90SAPE   C39 8824   5.043   2.950   5.239
   90SAPE   H9X 8825   5.024   2.846   5.204
   90SAPE   H9Y 8826   5.149   2.973   5.216
   90SAPE  C310 8827   4.951   3.042   5.158
   90SAPE  H10X 8828   4.967   3.147   5.191
   90SAPE  H10Y 8829   4.844   3.017   5.177
   90SAPE  C311 8830   4.982   3.030   5.008
   90SAPE  H11X 8831   4.951   2.930   4.970
   90SAPE  H11Y 8832   5.092   3.039   4.996
   90SAPE  C312 8833   4.915   3.141   4.929
   90SAPE  H12X 8834   4.927   3.234   4.989
   90SAPE  H12Y 8835   4.805   3.123   4.921
   90SAPE  C313 8836   4.974   3.167   4.789
   90SAPE  H13X 8837   4.923   3.100   4.716
   90SAPE  H13Y 8838   5.083   3.144   4.787
   90SAPE  C314 8839   4.952   3.314   4.757
   90SAPE  H14X 8840   4.993   3.372   4.843
   90SAPE  H14Y 8841   4.842   3.329   4.751
   90SAPE  C315 8842   5.010   3.379   4.632
   90SAPE  H15X 8843   4.991   3.315   4.542
   90SAPE  H15Y 8844   5.119   3.394   4.644
   90SAPE  C316 8845   4.940   3.514   4.611
   90SAPE  H16X 8846   4.945   3.569   4.708
   90SAPE  H16Y 8847   4.833   3.498   4.588
   90SAPE  C317 8848   5.002   3.601   4.502
   90SAPE  H17X 8849   5.110   3.611   4.526
   90SAPE  H17Y 8850   4.956   3.702   4.502
   90SAPE  C318 8851   4.984   3.545   4.362
   90SAPE  H18X 8852   5.023   3.441   4.356
   90SAPE  H18Y 8853   5.039   3.607   4.288
   90SAPE  H18Z 8854   4.876   3.544   4.335
   91SAPE     N 8855   1.793   3.264   6.537
   91SAPE   HN1 8856   1.858   3.337   6.572
   91SAPE   HN2 8857   1.704   3.313   6.512
   91SAPE   HN3 8858   1.776   3.190   6.609
   91SAPE   C12 8859   1.848   3.204   6.411
   91SAPE  H12A 8860   1.762   3.169   6.350
   91SAPE  H12B 8861   1.913   3.118   6.438
   91SAPE   C11 8862   1.925   3.311   6.334
   91SAPE  H11A 8863   1.946   3.273   6.231
   91SAPE  H11B 8864   2.023   3.330   6.383
   91SAPE     P 8865   1.869   3.547   6.232
   91SAPE   O13 8866   1.745   3.627   6.235
   91SAPE   O14 8867   1.995   3.610   6.277
   91SAPE   O12 8868   1.846   3.429   6.334
   91SAPE   O11 8869   1.889   3.465   6.098
   91SAPE    C1 8870   1.781   3.393   6.036
   91SAPE    HA 8871   1.772   3.291   6.079
   91SAPE    HB 8872   1.684   3.446   6.049
   91SAPE    C2 8873   1.806   3.380   5.884
   91SAPE    HS 8874   1.898   3.320   5.873
   91SAPE   O21 8875   1.819   3.514   5.833
   91SAPE   C21 8876   1.911   3.528   5.740
   91SAPE   O22 8877   1.978   3.437   5.693
   91SAPE   C22 8878   1.912   3.672   5.693
   91SAPE   H2R 8879   1.879   3.738   5.776
   91SAPE   H2S 8880   2.015   3.700   5.664
   91SAPE    C3 8881   1.690   3.306   5.810
   91SAPE    HX 8882   1.600   3.371   5.815
   91SAPE    HY 8883   1.665   3.213   5.864
   91SAPE   O31 8884   1.720   3.281   5.671
   91SAPE   C31 8885   1.799   3.177   5.649
   91SAPE   O32 8886   1.833   3.094   5.731
   91SAPE   C32 8887   1.841   3.174   5.502
   91SAPE   H2X 8888   1.895   3.079   5.485
   91SAPE   H2Y 8889   1.911   3.259   5.490
   91SAPE   C23 8890   1.816   3.684   5.573
   91SAPE   H3R 8891   1.719   3.639   5.602
   91SAPE   H3S 8892   1.859   3.624   5.490
   91SAPE   C24 8893   1.790   3.827   5.525
   91SAPE   H4R 8894   1.886   3.881   5.510
   91SAPE   H4S 8895   1.735   3.884   5.602
   91SAPE   C25 8896   1.709   3.815   5.398
   91SAPE   H5R 8897   1.601   3.799   5.414
   91SAPE   C26 8898   1.748   3.836   5.272
   91SAPE   H6R 8899   1.674   3.825   5.190
   91SAPE   C27 8900   1.884   3.879   5.228
   91SAPE   H7R 8901   1.889   3.986   5.256
   91SAPE   H7S 8902   1.891   3.871   5.117
   91SAPE   C28 8903   2.009   3.822   5.286
   91SAPE   H8R 8904   2.070   3.890   5.347
   91SAPE   C29 8905   2.043   3.695   5.276
   91SAPE   H9R 8906   2.135   3.666   5.329
   91SAPE  C210 8907   1.965   3.588   5.205
   91SAPE  H10R 8908   2.008   3.574   5.104
   91SAPE  H10S 8909   1.859   3.616   5.187
   91SAPE  C211 8910   1.967   3.463   5.288
   91SAPE  H11R 8911   1.914   3.468   5.385
   91SAPE  C212 8912   2.028   3.349   5.256
   91SAPE  H12R 8913   2.027   3.264   5.326
   91SAPE  C213 8914   2.105   3.323   5.131
   91SAPE  H13R 8915   2.208   3.297   5.165
   91SAPE  H13S 8916   2.118   3.414   5.068
   91SAPE  C214 8917   2.045   3.211   5.050
   91SAPE  H14R 8918   2.063   3.110   5.088
   91SAPE  C215 8919   1.971   3.224   4.939
   91SAPE  H15R 8920   1.939   3.132   4.889
   91SAPE  C216 8921   1.929   3.351   4.868
   91SAPE  H16R 8922   1.984   3.440   4.904
   91SAPE  H16S 8923   1.821   3.372   4.883
   91SAPE  C217 8924   1.954   3.334   4.717
   91SAPE  H17R 8925   1.901   3.245   4.677
   91SAPE  H17S 8926   2.061   3.308   4.700
   91SAPE  C218 8927   1.927   3.458   4.633
   91SAPE  H18R 8928   1.961   3.548   4.689
   91SAPE  H18S 8929   1.818   3.469   4.615
   91SAPE  C219 8930   2.004   3.453   4.500
   91SAPE  H19R 8931   2.112   3.449   4.525
   91SAPE  H19S 8932   1.993   3.549   4.445
   91SAPE  C220 8933   1.967   3.337   4.408
   91SAPE  H20R 8934   1.861   3.345   4.376
   91SAPE  H20S 8935   1.980   3.239   4.460
   91SAPE  H20T 8936   2.031   3.336   4.318
   91SAPE   C33 8937   1.722   3.187   5.405
   91SAPE   H3X 8938   1.678   3.289   5.411
   91SAPE   H3Y 8939   1.642   3.115   5.434
   91SAPE   C34 8940   1.757   3.156   5.259
   91SAPE   H4X 8941   1.819   3.064   5.251
   91SAPE   H4Y 8942   1.813   3.241   5.214
   91SAPE   C35 8943   1.631   3.144   5.175
   91SAPE   H5X 8944   1.577   3.240   5.191
   91SAPE   H5Y 8945   1.568   3.060   5.213
   91SAPE   C36 8946   1.653   3.128   5.025
   91SAPE   H6X 8947   1.718   3.211   4.989
   91SAPE   H6Y 8948   1.554   3.144   4.976
   91SAPE   C37 8949   1.712   2.992   4.985
   91SAPE   H7X 8950   1.646   2.912   5.025
   91SAPE   H7Y 8951   1.812   2.980   5.032
   91SAPE   C38 8952   1.726   2.971   4.833
   91SAPE   H8X 8953   1.768   2.870   4.814
   91SAPE   H8Y 8954   1.798   3.043   4.789
   91SAPE   C39 8955   1.593   2.985   4.759
   91SAPE   H9X 8956   1.513   3.019   4.828
   91SAPE   H9Y 8957   1.563   2.883   4.726
   91SAPE  C310 8958   1.594   3.080   4.639
   91SAPE  H10X 8959   1.490   3.089   4.599
   91SAPE  H10Y 8960   1.654   3.030   4.560
   91SAPE  C311 8961   1.649   3.222   4.657
   91SAPE  H11X 8962   1.728   3.237   4.580
   91SAPE  H11Y 8963   1.693   3.233   4.758
   91SAPE  C312 8964   1.547   3.334   4.634
   91SAPE  H12X 8965   1.592   3.433   4.655
   91SAPE  H12Y 8966   1.465   3.317   4.708
   91SAPE  C313 8967   1.486   3.332   4.494
   91SAPE  H13X 8968   1.378   3.355   4.505
   91SAPE  H13Y 8969   1.494   3.231   4.449
   91SAPE  C314 8970   1.539   3.434   4.393
   91SAPE  H14X 8971   1.507   3.400   4.292
   91SAPE  H14Y 8972   1.650   3.431   4.396
   91SAPE  C315 8973   1.483   3.576   4.414
   91SAPE  H15X 8974   1.551   3.635   4.480
   91SAPE  H15Y 8975   1.387   3.568   4.468
   91SAPE  C316 8976   1.448   3.652   4.285
   91SAPE  H16X 8977   1.362   3.603   4.236
   91SAPE  H16Y 8978   1.533   3.647   4.214
   91SAPE  C317 8979   1.416   3.800   4.310
   91SAPE  H17X 8980   1.438   3.857   4.217
   91SAPE  H17Y 8981   1.485   3.839   4.388
   91SAPE  C318 8982   1.271   3.827   4.350
   91SAPE  H18X 8983   1.203   3.790   4.270
   91SAPE  H18Y 8984   1.252   3.935   4.362
   91SAPE  H18Z 8985   1.246   3.775   4.445
   92SAPE     N 8986   3.154   5.643   6.418
   92SAPE   HN1 8987   3.055   5.665   6.438
   92SAPE   HN2 8988   3.180   5.570   6.488
   92SAPE   HN3 8989   3.208   5.729   6.437
   92SAPE   C12 8990   3.155   5.597   6.274
   92SAPE  H12A 8991   3.108   5.496   6.273
   92SAPE  H12B 8992   3.260   5.587   6.240
   92SAPE   C11 8993   3.074   5.692   6.182
   92SAPE  H11A 8994   3.044   5.637   6.090
   92SAPE  H11B 8995   3.142   5.774   6.149
   92SAPE     P 8996   2.845   5.667   6.311
   92SAPE   O13 8997   2.886   5.653   6.453
   92SAPE   O14 8998   2.709   5.718   6.282
   92SAPE   O12 8999   2.960   5.752   6.244
   92SAPE   O11 9000   2.870   5.529   6.242
   92SAPE    C1 9001   2.845   5.407   6.313
   92SAPE    HA 9002   2.921   5.392   6.392
   92SAPE    HB 9003   2.746   5.409   6.362
   92SAPE    C2 9004   2.843   5.287   6.214
   92SAPE    HS 9005   2.817   5.195   6.272
   92SAPE   O21 9006   2.969   5.266   6.146
   92SAPE   C21 9007   3.076   5.231   6.215
   92SAPE   O22 9008   3.087   5.232   6.336
   92SAPE   C22 9009   3.192   5.189   6.121
   92SAPE   H2R 9010   3.286   5.188   6.182
   92SAPE   H2S 9011   3.172   5.083   6.093
   92SAPE    C3 9012   2.731   5.310   6.108
   92SAPE    HX 9013   2.638   5.340   6.161
   92SAPE    HY 9014   2.711   5.212   6.058
   92SAPE   O31 9015   2.769   5.411   6.012
   92SAPE   C31 9016   2.680   5.445   5.919
   92SAPE   O32 9017   2.573   5.392   5.900
   92SAPE   C32 9018   2.737   5.562   5.838
   92SAPE   H2X 9019   2.848   5.562   5.852
   92SAPE   H2Y 9020   2.698   5.656   5.882
   92SAPE   C23 9021   3.213   5.273   5.992
   92SAPE   H3R 9022   3.269   5.365   6.017
   92SAPE   H3S 9023   3.112   5.305   5.955
   92SAPE   C24 9024   3.282   5.198   5.874
   92SAPE   H4R 9025   3.223   5.106   5.852
   92SAPE   H4S 9026   3.383   5.165   5.906
   92SAPE   C25 9027   3.289   5.286   5.752
   92SAPE   H5R 9028   3.271   5.392   5.775
   92SAPE   C26 9029   3.309   5.256   5.621
   92SAPE   H6R 9030   3.308   5.341   5.551
   92SAPE   C27 9031   3.333   5.125   5.549
   92SAPE   H7R 9032   3.422   5.078   5.595
   92SAPE   H7S 9033   3.363   5.149   5.445
   92SAPE   C28 9034   3.227   5.018   5.543
   92SAPE   H8R 9035   3.202   4.977   5.642
   92SAPE   C29 9036   3.159   4.968   5.437
   92SAPE   H9R 9037   3.088   4.887   5.458
   92SAPE  C210 9038   3.168   5.004   5.289
   92SAPE  H10R 9039   3.260   4.959   5.246
   92SAPE  H10S 9040   3.180   5.114   5.275
   92SAPE  C211 9041   3.049   4.952   5.210
   92SAPE  H11R 9042   2.993   4.871   5.260
   92SAPE  C212 9043   3.003   4.989   5.088
   92SAPE  H12R 9044   2.912   4.941   5.051
   92SAPE  C213 9045   3.058   5.095   4.995
   92SAPE  H13R 9046   3.155   5.134   5.031
   92SAPE  H13S 9047   2.988   5.182   4.996
   92SAPE  C214 9048   3.073   5.047   4.852
   92SAPE  H14R 9049   3.172   5.004   4.830
   92SAPE  C215 9050   2.981   5.047   4.752
   92SAPE  H15R 9051   3.011   5.007   4.654
   92SAPE  C216 9052   2.838   5.096   4.758
   92SAPE  H16R 9053   2.812   5.134   4.859
   92SAPE  H16S 9054   2.771   5.010   4.738
   92SAPE  C217 9055   2.801   5.206   4.655
   92SAPE  H17R 9056   2.850   5.185   4.558
   92SAPE  H17S 9057   2.838   5.304   4.691
   92SAPE  C218 9058   2.649   5.212   4.630
   92SAPE  H18R 9059   2.596   5.225   4.726
   92SAPE  H18S 9060   2.618   5.115   4.586
   92SAPE  C219 9061   2.605   5.325   4.535
   92SAPE  H19R 9062   2.692   5.358   4.474
   92SAPE  H19S 9063   2.573   5.411   4.596
   92SAPE  C220 9064   2.491   5.286   4.440
   92SAPE  H20R 9065   2.521   5.202   4.375
   92SAPE  H20S 9066   2.464   5.372   4.375
   92SAPE  H20T 9067   2.401   5.256   4.498
   92SAPE   C33 9068   2.707   5.558   5.686
   92SAPE   H3X 9069   2.601   5.588   5.667
   92SAPE   H3Y 9070   2.718   5.454   5.650
   92SAPE   C34 9071   2.803   5.649   5.606
   92SAPE   H4X 9072   2.906   5.624   5.639
   92SAPE   H4Y 9073   2.785   5.755   5.632
   92SAPE   C35 9074   2.797   5.630   5.453
   92SAPE   H5X 9075   2.725   5.703   5.408
   92SAPE   H5Y 9076   2.757   5.529   5.433
   92SAPE   C36 9077   2.934   5.639   5.382
   92SAPE   H6X 9078   2.922   5.600   5.279
   92SAPE   H6Y 9079   3.004   5.571   5.434
   92SAPE   C37 9080   3.000   5.778   5.375
   92SAPE   H7X 9081   3.100   5.766   5.328
   92SAPE   H7Y 9082   3.015   5.815   5.478
   92SAPE   C38 9083   2.922   5.884   5.295
   92SAPE   H8X 9084   2.978   5.980   5.298
   92SAPE   H8Y 9085   2.825   5.901   5.346
   92SAPE   C39 9086   2.893   5.849   5.147
   92SAPE   H9X 9087   2.819   5.924   5.110
   92SAPE   H9Y 9088   2.845   5.749   5.141
   92SAPE  C310 9089   3.014   5.854   5.052
   92SAPE  H10X 9090   3.080   5.766   5.070
   92SAPE  H10Y 9091   3.074   5.945   5.074
   92SAPE  C311 9092   2.970   5.859   4.905
   92SAPE  H11X 9093   2.897   5.942   4.894
   92SAPE  H11Y 9094   2.915   5.765   4.879
   92SAPE  C312 9095   3.082   5.882   4.803
   92SAPE  H12X 9096   3.136   5.975   4.830
   92SAPE  H12Y 9097   3.036   5.899   4.703
   92SAPE  C313 9098   3.185   5.767   4.790
   92SAPE  H13X 9099   3.236   5.755   4.887
   92SAPE  H13Y 9100   3.261   5.800   4.716
   92SAPE  C314 9101   3.128   5.631   4.746
   92SAPE  H14X 9102   3.044   5.603   4.813
   92SAPE  H14Y 9103   3.207   5.553   4.760
   92SAPE  C315 9104   3.079   5.624   4.600
   92SAPE  H15X 9105   3.013   5.711   4.580
   92SAPE  H15Y 9106   3.017   5.533   4.587
   92SAPE  C316 9107   3.191   5.620   4.495
   92SAPE  H16X 9108   3.261   5.705   4.510
   92SAPE  H16Y 9109   3.145   5.632   4.394
   92SAPE  C317 9110   3.270   5.487   4.494
   92SAPE  H17X 9111   3.197   5.405   4.482
   92SAPE  H17Y 9112   3.321   5.473   4.592
   92SAPE  C318 9113   3.373   5.477   4.381
   92SAPE  H18X 9114   3.346   5.547   4.300
   92SAPE  H18Y 9115   3.378   5.374   4.341
   92SAPE  H18Z 9116   3.476   5.504   4.414
   93SAPE     N 9117   5.755   3.524   6.483
   93SAPE   HN1 9118   5.849   3.483   6.462
   93SAPE   HN2 9119   5.764   3.628   6.483
   93SAPE   HN3 9120   5.727   3.491   6.577
   93SAPE   C12 9121   5.667   3.474   6.373
   93SAPE  H12A 9122   5.691   3.534   6.282
   93SAPE  H12B 9123   5.561   3.491   6.401
   93SAPE   C11 9124   5.697   3.326   6.345
   93SAPE  H11A 9125   5.657   3.298   6.245
   93SAPE  H11B 9126   5.640   3.264   6.418
   93SAPE     P 9127   5.928   3.271   6.232
   93SAPE   O13 9128   6.069   3.278   6.276
   93SAPE   O14 9129   5.877   3.148   6.169
   93SAPE   O12 9130   5.837   3.298   6.360
   93SAPE   O11 9131   5.893   3.398   6.142
   93SAPE    C1 9132   5.967   3.520   6.158
   93SAPE    HA 9133   5.926   3.575   6.245
   93SAPE    HB 9134   6.075   3.502   6.177
   93SAPE    C2 9135   5.958   3.618   6.036
   93SAPE    HS 9136   5.934   3.719   6.076
   93SAPE   O21 9137   5.858   3.577   5.942
   93SAPE   C21 9138   5.734   3.595   5.979
   93SAPE   O22 9139   5.696   3.651   6.081
   93SAPE   C22 9140   5.643   3.531   5.877
   93SAPE   H2R 9141   5.632   3.425   5.907
   93SAPE   H2S 9142   5.544   3.581   5.884
   93SAPE    C3 9143   6.092   3.629   5.958
   93SAPE    HX 9144   6.170   3.665   6.028
   93SAPE    HY 9145   6.082   3.707   5.879
   93SAPE   O31 9146   6.133   3.502   5.904
   93SAPE   C31 9147   6.081   3.473   5.784
   93SAPE   O32 9148   6.024   3.550   5.710
   93SAPE   C32 9149   6.113   3.327   5.753
   93SAPE   H2X 9150   6.134   3.274   5.848
   93SAPE   H2Y 9151   6.205   3.329   5.691
   93SAPE   C23 9152   5.692   3.534   5.730
   93SAPE   H3R 9153   5.781   3.468   5.722
   93SAPE   H3S 9154   5.724   3.636   5.700
   93SAPE   C24 9155   5.582   3.483   5.636
   93SAPE   H4R 9156   5.495   3.552   5.636
   93SAPE   H4S 9157   5.544   3.390   5.682
   93SAPE   C25 9158   5.630   3.464   5.495
   93SAPE   H5R 9159   5.671   3.554   5.447
   93SAPE   C26 9160   5.630   3.348   5.428
   93SAPE   H6R 9161   5.668   3.347   5.325
   93SAPE   C27 9162   5.580   3.215   5.480
   93SAPE   H7R 9163   5.497   3.177   5.417
   93SAPE   H7S 9164   5.533   3.223   5.581
   93SAPE   C28 9165   5.687   3.110   5.488
   93SAPE   H8R 9166   5.726   3.092   5.590
   93SAPE   C29 9167   5.738   3.041   5.385
   93SAPE   H9R 9168   5.817   2.967   5.407
   93SAPE  C210 9169   5.699   3.056   5.240
   93SAPE  H10R 9170   5.694   3.163   5.211
   93SAPE  H10S 9171   5.597   3.015   5.226
   93SAPE  C211 9172   5.794   2.981   5.149
   93SAPE  H11R 9173   5.830   2.886   5.191
   93SAPE  C212 9174   5.838   3.015   5.027
   93SAPE  H12R 9175   5.907   2.947   4.975
   93SAPE  C213 9176   5.805   3.139   4.947
   93SAPE  H13R 9177   5.900   3.180   4.907
   93SAPE  H13S 9178   5.763   3.219   5.011
   93SAPE  C214 9179   5.709   3.110   4.834
   93SAPE  H14R 9180   5.602   3.124   4.857
   93SAPE  C215 9181   5.740   3.070   4.709
   93SAPE  H15R 9182   5.659   3.055   4.636
   93SAPE  C216 9183   5.879   3.045   4.659
   93SAPE  H16R 9184   5.876   2.973   4.575
   93SAPE  H16S 9185   5.940   2.997   4.739
   93SAPE  C217 9186   5.949   3.174   4.613
   93SAPE  H17R 9187   6.051   3.149   4.578
   93SAPE  H17S 9188   5.961   3.244   4.699
   93SAPE  C218 9189   5.877   3.245   4.498
   93SAPE  H18R 9190   5.787   3.296   4.538
   93SAPE  H18S 9191   5.844   3.170   4.423
   93SAPE  C219 9192   5.968   3.347   4.430
   93SAPE  H19R 9193   6.054   3.293   4.384
   93SAPE  H19S 9194   6.010   3.413   4.509
   93SAPE  C220 9195   5.898   3.432   4.325
   93SAPE  H20R 9196   5.854   3.367   4.246
   93SAPE  H20S 9197   5.970   3.502   4.277
   93SAPE  H20T 9198   5.817   3.491   4.371
   93SAPE   C33 9199   6.001   3.251   5.679
   93SAPE   H3X 9200   5.977   3.303   5.583
   93SAPE   H3Y 9201   5.908   3.252   5.740
   93SAPE   C34 9202   6.040   3.105   5.649
   93SAPE   H4X 9203   5.959   3.059   5.588
   93SAPE   H4Y 9204   6.045   3.050   5.745
   93SAPE   C35 9205   6.174   3.089   5.575
   93SAPE   H5X 9206   6.189   2.981   5.551
   93SAPE   H5Y 9207   6.256   3.119   5.643
   93SAPE   C36 9208   6.184   3.171   5.446
   93SAPE   H6X 9209   6.287   3.166   5.405
   93SAPE   H6Y 9210   6.160   3.278   5.465
   93SAPE   C37 9211   6.095   3.116   5.335
   93SAPE   H7X 9212   5.991   3.104   5.372
   93SAPE   H7Y 9213   6.134   3.015   5.311
   93SAPE   C38 9214   6.093   3.207   5.213
   93SAPE   H8X 9215   6.068   3.148   5.122
   93SAPE   H8Y 9216   6.194   3.252   5.197
   93SAPE   C39 9217   5.988   3.316   5.230
   93SAPE   H9X 9218   6.008   3.374   5.323
   93SAPE   H9Y 9219   5.889   3.269   5.242
   93SAPE  C310 9220   5.984   3.412   5.112
   93SAPE  H10X 9221   5.986   3.357   5.016
   93SAPE  H10Y 9222   6.076   3.474   5.117
   93SAPE  C311 9223   5.860   3.501   5.116
   93SAPE  H11X 9224   5.827   3.512   5.222
   93SAPE  H11Y 9225   5.776   3.455   5.060
   93SAPE  C312 9226   5.893   3.640   5.065
   93SAPE  H12X 9227   5.970   3.679   5.134
   93SAPE  H12Y 9228   5.803   3.706   5.071
   93SAPE  C313 9229   5.954   3.647   4.925
   93SAPE  H13X 9230   6.054   3.598   4.923
   93SAPE  H13Y 9231   5.969   3.755   4.903
   93SAPE  C314 9232   5.866   3.585   4.817
   93SAPE  H14X 9233   5.762   3.620   4.834
   93SAPE  H14Y 9234   5.866   3.474   4.828
   93SAPE  C315 9235   5.910   3.623   4.675
   93SAPE  H15X 9236   5.846   3.570   4.602
   93SAPE  H15Y 9237   6.014   3.585   4.663
   93SAPE  C316 9238   5.906   3.773   4.645
   93SAPE  H16X 9239   5.941   3.790   4.541
   93SAPE  H16Y 9240   5.976   3.828   4.712
   93SAPE  C317 9241   5.767   3.834   4.660
   93SAPE  H17X 9242   5.723   3.804   4.757
   93SAPE  H17Y 9243   5.702   3.790   4.581
   93SAPE  C318 9244   5.765   3.987   4.653
   93SAPE  H18X 9245   5.783   4.031   4.753
   93SAPE  H18Y 9246   5.666   4.024   4.616
   93SAPE  H18Z 9247   5.844   4.025   4.585
   94SAPE     N 9248   4.163   5.691   6.055
   94SAPE   HN1 9249   4.096   5.629   6.007
   94SAPE   HN2 9250   4.214   5.752   5.988
   94SAPE   HN3 9251   4.230   5.633   6.110
   94SAPE   C12 9252   4.082   5.776   6.149
   94SAPE  H12A 9253   3.987   5.723   6.171
   94SAPE  H12B 9254   4.057   5.870   6.095
   94SAPE   C11 9255   4.157   5.801   6.280
   94SAPE  H11A 9256   4.256   5.848   6.263
   94SAPE  H11B 9257   4.175   5.704   6.332
   94SAPE     P 9258   4.064   6.038   6.340
   94SAPE   O13 9259   3.922   6.062   6.305
   94SAPE   O14 9260   4.122   6.104   6.457
   94SAPE   O12 9261   4.075   5.881   6.365
   94SAPE   O11 9262   4.152   6.052   6.209
   94SAPE    C1 9263   4.178   6.182   6.154
   94SAPE    HA 9264   4.095   6.253   6.171
   94SAPE    HB 9265   4.268   6.223   6.204
   94SAPE    C2 9266   4.202   6.180   6.000
   94SAPE    HS 9267   4.211   6.286   5.969
   94SAPE   O21 9268   4.088   6.114   5.941
   94SAPE   C21 9269   4.044   6.171   5.829
   94SAPE   O22 9270   4.101   6.257   5.764
   94SAPE   C22 9271   3.906   6.115   5.795
   94SAPE   H2R 9272   3.863   6.065   5.884
   94SAPE   H2S 9273   3.843   6.203   5.770
   94SAPE    C3 9274   4.337   6.109   5.962
   94SAPE    HX 9275   4.344   6.016   6.023
   94SAPE    HY 9276   4.417   6.178   5.995
   94SAPE   O31 9277   4.346   6.076   5.821
   94SAPE   C31 9278   4.471   6.058   5.776
   94SAPE   O32 9279   4.570   6.051   5.847
   94SAPE   C32 9280   4.472   6.034   5.624
   94SAPE   H2X 9281   4.376   6.071   5.581
   94SAPE   H2Y 9282   4.476   5.924   5.610
   94SAPE   C23 9283   3.909   6.020   5.673
   94SAPE   H3R 9284   3.971   6.062   5.591
   94SAPE   H3S 9285   3.805   6.013   5.634
   94SAPE   C24 9286   3.953   5.876   5.707
   94SAPE   H4R 9287   3.924   5.811   5.623
   94SAPE   H4S 9288   3.894   5.844   5.796
   94SAPE   C25 9289   4.100   5.863   5.738
   94SAPE   H5R 9290   4.132   5.904   5.834
   94SAPE   C26 9291   4.195   5.820   5.653
   94SAPE   H6R 9292   4.299   5.819   5.687
   94SAPE   C27 9293   4.174   5.776   5.510
   94SAPE   H7R 9294   4.091   5.834   5.464
   94SAPE   H7S 9295   4.142   5.670   5.507
   94SAPE   C28 9296   4.301   5.792   5.429
   94SAPE   H8R 9297   4.394   5.768   5.482
   94SAPE   C29 9298   4.312   5.832   5.301
   94SAPE   H9R 9299   4.412   5.839   5.256
   94SAPE  C210 9300   4.197   5.871   5.212
   94SAPE  H10R 9301   4.116   5.921   5.268
   94SAPE  H10S 9302   4.154   5.776   5.173
   94SAPE  C211 9303   4.239   5.958   5.097
   94SAPE  H11R 9304   4.230   6.066   5.116
   94SAPE  C212 9305   4.286   5.918   4.977
   94SAPE  H12R 9306   4.317   5.996   4.906
   94SAPE  C213 9307   4.308   5.778   4.926
   94SAPE  H13R 9308   4.277   5.701   4.999
   94SAPE  H13S 9309   4.418   5.762   4.914
   94SAPE  C214 9310   4.236   5.759   4.794
   94SAPE  H14R 9311   4.130   5.732   4.803
   94SAPE  C215 9312   4.288   5.776   4.671
   94SAPE  H15R 9313   4.223   5.762   4.583
   94SAPE  C216 9314   4.429   5.817   4.640
   94SAPE  H16R 9315   4.481   5.739   4.581
   94SAPE  H16S 9316   4.489   5.831   4.732
   94SAPE  C217 9317   4.436   5.950   4.563
   94SAPE  H17R 9318   4.542   5.985   4.569
   94SAPE  H17S 9319   4.374   6.028   4.612
   94SAPE  C218 9320   4.399   5.940   4.415
   94SAPE  H18R 9321   4.289   5.948   4.402
   94SAPE  H18S 9322   4.431   5.841   4.376
   94SAPE  C219 9323   4.471   6.048   4.335
   94SAPE  H19R 9324   4.450   6.037   4.227
   94SAPE  H19S 9325   4.579   6.028   4.345
   94SAPE  C220 9326   4.442   6.192   4.381
   94SAPE  H20R 9327   4.335   6.217   4.364
   94SAPE  H20S 9328   4.504   6.265   4.324
   94SAPE  H20T 9329   4.465   6.205   4.489
   94SAPE   C33 9330   4.594   6.096   5.551
   94SAPE   H3X 9331   4.686   6.055   5.599
   94SAPE   H3Y 9332   4.598   6.206   5.565
   94SAPE   C34 9333   4.605   6.065   5.399
   94SAPE   H4X 9334   4.584   5.957   5.381
   94SAPE   H4Y 9335   4.710   6.085   5.371
   94SAPE   C35 9336   4.522   6.152   5.303
   94SAPE   H5X 9337   4.543   6.258   5.328
   94SAPE   H5Y 9338   4.414   6.133   5.318
   94SAPE   C36 9339   4.559   6.131   5.154
   94SAPE   H6X 9340   4.534   6.027   5.125
   94SAPE   H6Y 9341   4.669   6.144   5.142
   94SAPE   C37 9342   4.487   6.229   5.059
   94SAPE   H7X 9343   4.516   6.333   5.085
   94SAPE   H7Y 9344   4.378   6.220   5.075
   94SAPE   C38 9345   4.519   6.205   4.910
   94SAPE   H8X 9346   4.507   6.097   4.886
   94SAPE   H8Y 9347   4.625   6.231   4.893
   94SAPE   C39 9348   4.431   6.287   4.813
   94SAPE   H9X 9349   4.475   6.281   4.712
   94SAPE   H9Y 9350   4.434   6.394   4.844
   94SAPE  C310 9351   4.285   6.240   4.805
   94SAPE  H10X 9352   4.238   6.245   4.905
   94SAPE  H10Y 9353   4.283   6.134   4.772
   94SAPE  C311 9354   4.198   6.317   4.705
   94SAPE  H11X 9355   4.244   6.309   4.604
   94SAPE  H11Y 9356   4.197   6.424   4.735
   94SAPE  C312 9357   4.053   6.267   4.700
   94SAPE  H12X 9358   3.991   6.335   4.762
   94SAPE  H12Y 9359   4.046   6.166   4.746
   94SAPE  C313 9360   3.994   6.260   4.558
   94SAPE  H13X 9361   4.025   6.352   4.503
   94SAPE  H13Y 9362   3.883   6.261   4.567
   94SAPE  C314 9363   4.035   6.134   4.480
   94SAPE  H14X 9364   4.025   6.046   4.547
   94SAPE  H14Y 9365   4.142   6.143   4.451
   94SAPE  C315 9366   3.950   6.109   4.354
   94SAPE  H15X 9367   3.844   6.094   4.386
   94SAPE  H15Y 9368   3.983   6.015   4.304
   94SAPE  C316 9369   3.954   6.224   4.252
   94SAPE  H16X 9370   4.056   6.239   4.212
   94SAPE  H16Y 9371   3.929   6.316   4.308
   94SAPE  C317 9372   3.850   6.214   4.140
   94SAPE  H17X 9373   3.833   6.319   4.106
   94SAPE  H17Y 9374   3.754   6.176   4.182
   94SAPE  C318 9375   3.887   6.134   4.015
   94SAPE  H18X 9376   3.801   6.129   3.945
   94SAPE  H18Y 9377   3.916   6.030   4.041
   94SAPE  H18Z 9378   3.971   6.183   3.961
   95SAPE     N 9379   0.868   3.472   6.128
   95SAPE   HN1 9380   0.824   3.511   6.042
   95SAPE   HN2 9381   0.917   3.548   6.179
   95SAPE   HN3 9382   0.947   3.409   6.102
   95SAPE   C12 9383   0.777   3.401   6.225
   95SAPE  H12A 9384   0.712   3.334   6.165
   95SAPE  H12B 9385   0.714   3.478   6.275
   95SAPE   C11 9386   0.855   3.317   6.330
   95SAPE  H11A 9387   0.912   3.236   6.281
   95SAPE  H11B 9388   0.777   3.267   6.392
   95SAPE     P 9389   1.067   3.468   6.371
   95SAPE   O13 9390   1.020   3.598   6.319
   95SAPE   O14 9391   1.170   3.465   6.477
   95SAPE   O12 9392   0.938   3.393   6.419
   95SAPE   O11 9393   1.106   3.377   6.247
   95SAPE    C1 9394   1.241   3.362   6.204
   95SAPE    HA 9395   1.314   3.390   6.282
   95SAPE    HB 9396   1.261   3.256   6.179
   95SAPE    C2 9397   1.269   3.449   6.078
   95SAPE    HS 9398   1.225   3.549   6.095
   95SAPE   O21 9399   1.217   3.384   5.959
   95SAPE   C21 9400   1.121   3.447   5.894
   95SAPE   O22 9401   1.053   3.538   5.938
   95SAPE   C22 9402   1.096   3.380   5.759
   95SAPE   H2R 9403   1.192   3.375   5.703
   95SAPE   H2S 9404   1.063   3.276   5.781
   95SAPE    C3 9405   1.422   3.468   6.062
   95SAPE    HX 9406   1.468   3.367   6.076
   95SAPE    HY 9407   1.462   3.533   6.143
   95SAPE   O31 9408   1.461   3.516   5.933
   95SAPE   C31 9409   1.422   3.640   5.905
   95SAPE   O32 9410   1.354   3.711   5.976
   95SAPE   C32 9411   1.465   3.671   5.762
   95SAPE   H2X 9412   1.576   3.660   5.759
   95SAPE   H2Y 9413   1.440   3.777   5.740
   95SAPE   C23 9414   0.988   3.451   5.674
   95SAPE   H3R 9415   0.901   3.480   5.736
   95SAPE   H3S 9416   0.952   3.379   5.597
   95SAPE   C24 9417   1.043   3.574   5.600
   95SAPE   H4R 9418   1.132   3.542   5.541
   95SAPE   H4S 9419   1.079   3.650   5.673
   95SAPE   C25 9420   0.940   3.637   5.510
   95SAPE   H5R 9421   0.880   3.715   5.558
   95SAPE   C26 9422   0.924   3.615   5.378
   95SAPE   H6R 9423   0.845   3.670   5.324
   95SAPE   C27 9424   1.006   3.523   5.291
   95SAPE   H7R 9425   1.087   3.472   5.348
   95SAPE   H7S 9426   1.060   3.584   5.215
   95SAPE   C28 9427   0.923   3.419   5.221
   95SAPE   H8R 9428   0.913   3.324   5.277
   95SAPE   C29 9429   0.856   3.430   5.105
   95SAPE   H9R 9430   0.803   3.343   5.065
   95SAPE  C210 9431   0.850   3.553   5.018
   95SAPE  H10R 9432   0.881   3.643   5.075
   95SAPE  H10S 9433   0.744   3.571   4.989
   95SAPE  C211 9434   0.939   3.541   4.897
   95SAPE  H11R 9435   1.033   3.486   4.913
   95SAPE  C212 9436   0.915   3.592   4.775
   95SAPE  H12R 9437   0.995   3.586   4.698
   95SAPE  C213 9438   0.797   3.671   4.730
   95SAPE  H13R 9439   0.836   3.774   4.717
   95SAPE  H13S 9440   0.722   3.676   4.812
   95SAPE  C214 9441   0.725   3.632   4.604
   95SAPE  H14R 9442   0.653   3.550   4.615
   95SAPE  C215 9443   0.740   3.690   4.483
   95SAPE  H15R 9444   0.677   3.654   4.400
   95SAPE  C216 9445   0.832   3.803   4.448
   95SAPE  H16R 9446   0.925   3.800   4.509
   95SAPE  H16S 9447   0.782   3.900   4.470
   95SAPE  C217 9448   0.874   3.807   4.299
   95SAPE  H17R 9449   0.940   3.895   4.286
   95SAPE  H17S 9450   0.786   3.824   4.234
   95SAPE  C218 9451   0.951   3.684   4.245
   95SAPE  H18R 9452   1.032   3.658   4.317
   95SAPE  H18S 9453   0.999   3.714   4.150
   95SAPE  C219 9454   0.867   3.557   4.215
   95SAPE  H19R 9455   0.837   3.511   4.311
   95SAPE  H19S 9456   0.934   3.484   4.165
   95SAPE  C220 9457   0.743   3.579   4.128
   95SAPE  H20R 9458   0.669   3.644   4.179
   95SAPE  H20S 9459   0.693   3.482   4.107
   95SAPE  H20T 9460   0.771   3.626   4.031
   95SAPE   C33 9461   1.398   3.575   5.660
   95SAPE   H3X 9462   1.293   3.610   5.648
   95SAPE   H3Y 9463   1.398   3.470   5.696
   95SAPE   C34 9464   1.469   3.580   5.525
   95SAPE   H4X 9465   1.566   3.527   5.532
   95SAPE   H4Y 9466   1.487   3.688   5.508
   95SAPE   C35 9467   1.395   3.527   5.401
   95SAPE   H5X 9468   1.301   3.583   5.388
   95SAPE   H5Y 9469   1.371   3.419   5.414
   95SAPE   C36 9470   1.484   3.546   5.277
   95SAPE   H6X 9471   1.572   3.479   5.283
   95SAPE   H6Y 9472   1.522   3.650   5.279
   95SAPE   C37 9473   1.413   3.529   5.143
   95SAPE   H7X 9474   1.327   3.600   5.140
   95SAPE   H7Y 9475   1.372   3.427   5.133
   95SAPE   C38 9476   1.507   3.559   5.025
   95SAPE   H8X 9477   1.572   3.471   5.007
   95SAPE   H8Y 9478   1.574   3.644   5.052
   95SAPE   C39 9479   1.433   3.597   4.896
   95SAPE   H9X 9480   1.507   3.601   4.814
   95SAPE   H9Y 9481   1.391   3.700   4.908
   95SAPE  C310 9482   1.318   3.502   4.859
   95SAPE  H10X 9483   1.237   3.509   4.934
   95SAPE  H10Y 9484   1.357   3.398   4.862
   95SAPE  C311 9485   1.264   3.533   4.719
   95SAPE  H11X 9486   1.355   3.551   4.657
   95SAPE  H11Y 9487   1.207   3.628   4.721
   95SAPE  C312 9488   1.182   3.420   4.652
   95SAPE  H12X 9489   1.096   3.392   4.717
   95SAPE  H12Y 9490   1.245   3.329   4.647
   95SAPE  C313 9491   1.130   3.457   4.510
   95SAPE  H13X 9492   1.199   3.527   4.458
   95SAPE  H13Y 9493   1.035   3.513   4.520
   95SAPE  C314 9494   1.106   3.336   4.417
   95SAPE  H14X 9495   1.007   3.350   4.369
   95SAPE  H14Y 9496   1.101   3.244   4.479
   95SAPE  C315 9497   1.210   3.318   4.306
   95SAPE  H15X 9498   1.298   3.265   4.347
   95SAPE  H15Y 9499   1.242   3.417   4.266
   95SAPE  C316 9500   1.162   3.231   4.190
   95SAPE  H16X 9501   1.088   3.289   4.131
   95SAPE  H16Y 9502   1.111   3.142   4.232
   95SAPE  C317 9503   1.277   3.183   4.101
   95SAPE  H17X 9504   1.238   3.108   4.028
   95SAPE  H17Y 9505   1.351   3.130   4.164
   95SAPE  C318 9506   1.349   3.293   4.022
   95SAPE  H18X 9507   1.422   3.249   3.952
   95SAPE  H18Y 9508   1.403   3.362   4.091
   95SAPE  H18Z 9509   1.275   3.353   3.964
   96SAPE     N 9510   3.671   6.106   6.268
   96SAPE   HN1 9511   3.773   6.125   6.276
   96SAPE   HN2 9512   3.636   6.097   6.366
   96SAPE   HN3 9513   3.663   6.014   6.219
   96SAPE   C12 9514   3.596   6.214   6.196
   96SAPE  H12A 9515   3.498   6.172   6.164
   96SAPE  H12B 9516   3.653   6.246   6.107
   96SAPE   C11 9517   3.571   6.330   6.291
   96SAPE  H11A 9518   3.664   6.391   6.302
   96SAPE  H11B 9519   3.542   6.291   6.391
   96SAPE     P 9520   3.358   6.479   6.322
   96SAPE   O13 9521   3.249   6.381   6.347
   96SAPE   O14 9522   3.425   6.531   6.443
   96SAPE   O12 9523   3.468   6.408   6.235
   96SAPE   O11 9524   3.309   6.594   6.228
   96SAPE    C1 9525   3.393   6.701   6.182
   96SAPE    HA 9526   3.336   6.796   6.193
   96SAPE    HB 9527   3.486   6.713   6.242
   96SAPE    C2 9528   3.433   6.694   6.031
   96SAPE    HS 9529   3.487   6.788   6.010
   96SAPE   O21 9530   3.315   6.678   5.950
   96SAPE   C21 9531   3.325   6.736   5.832
   96SAPE   O22 9532   3.414   6.809   5.793
   96SAPE   C22 9533   3.212   6.686   5.741
   96SAPE   H2R 9534   3.182   6.584   5.774
   96SAPE   H2S 9535   3.127   6.756   5.754
   96SAPE    C3 9536   3.529   6.576   6.000
   96SAPE    HX 9537   3.472   6.483   6.020
   96SAPE    HY 9538   3.614   6.581   6.072
   96SAPE   O31 9539   3.569   6.574   5.861
   96SAPE   C31 9540   3.698   6.585   5.836
   96SAPE   O32 9541   3.788   6.578   5.917
   96SAPE   C32 9542   3.715   6.591   5.685
   96SAPE   H2X 9543   3.685   6.692   5.651
   96SAPE   H2Y 9544   3.647   6.517   5.639
   96SAPE   C23 9545   3.264   6.685   5.596
   96SAPE   H3R 9546   3.359   6.629   5.591
   96SAPE   H3S 9547   3.287   6.791   5.572
   96SAPE   C24 9548   3.167   6.627   5.491
   96SAPE   H4R 9549   3.074   6.687   5.490
   96SAPE   H4S 9550   3.138   6.526   5.529
   96SAPE   C25 9551   3.220   6.612   5.351
   96SAPE   H5R 9552   3.192   6.518   5.302
   96SAPE   C26 9553   3.295   6.700   5.280
   96SAPE   H6R 9554   3.325   6.671   5.178
   96SAPE   C27 9555   3.345   6.836   5.321
   96SAPE   H7R 9556   3.280   6.883   5.398
   96SAPE   H7S 9557   3.337   6.906   5.235
   96SAPE   C28 9558   3.487   6.829   5.369
   96SAPE   H8R 9559   3.500   6.801   5.475
   96SAPE   C29 9560   3.594   6.859   5.295
   96SAPE   H9R 9561   3.693   6.847   5.341
   96SAPE  C210 9562   3.594   6.906   5.151
   96SAPE  H10R 9563   3.645   7.004   5.149
   96SAPE  H10S 9564   3.492   6.925   5.111
   96SAPE  C211 9565   3.667   6.806   5.065
   96SAPE  H11R 9566   3.758   6.764   5.110
   96SAPE  C212 9567   3.633   6.764   4.942
   96SAPE  H12R 9568   3.697   6.689   4.894
   96SAPE  C213 9569   3.513   6.807   4.861
   96SAPE  H13R 9570   3.493   6.915   4.877
   96SAPE  H13S 9571   3.424   6.752   4.896
   96SAPE  C214 9572   3.537   6.781   4.714
   96SAPE  H14R 9573   3.642   6.775   4.682
   96SAPE  C215 9574   3.442   6.768   4.619
   96SAPE  H15R 9575   3.473   6.748   4.515
   96SAPE  C216 9576   3.294   6.780   4.642
   96SAPE  H16R 9577   3.248   6.844   4.565
   96SAPE  H16S 9578   3.275   6.829   4.740
   96SAPE  C217 9579   3.221   6.645   4.646
   96SAPE  H17R 9580   3.117   6.665   4.679
   96SAPE  H17S 9581   3.269   6.580   4.722
   96SAPE  C218 9582   3.218   6.574   4.510
   96SAPE  H18R 9583   3.322   6.560   4.473
   96SAPE  H18S 9584   3.168   6.641   4.437
   96SAPE  C219 9585   3.148   6.437   4.510
   96SAPE  H19R 9586   3.225   6.361   4.537
   96SAPE  H19S 9587   3.115   6.414   4.407
   96SAPE  C220 9588   3.031   6.417   4.608
   96SAPE  H20R 9589   3.060   6.444   4.712
   96SAPE  H20S 9590   2.999   6.311   4.608
   96SAPE  H20T 9591   2.943   6.480   4.581
   96SAPE   C33 9592   3.861   6.561   5.644
   96SAPE   H3X 9593   3.897   6.468   5.692
   96SAPE   H3Y 9594   3.927   6.643   5.680
   96SAPE   C34 9595   3.877   6.547   5.493
   96SAPE   H4X 9596   3.986   6.545   5.471
   96SAPE   H4Y 9597   3.835   6.635   5.441
   96SAPE   C35 9598   3.814   6.419   5.436
   96SAPE   H5X 9599   3.705   6.434   5.421
   96SAPE   H5Y 9600   3.828   6.337   5.511
   96SAPE   C36 9601   3.881   6.375   5.306
   96SAPE   H6X 9602   3.844   6.274   5.276
   96SAPE   H6Y 9603   3.989   6.362   5.328
   96SAPE   C37 9604   3.867   6.475   5.191
   96SAPE   H7X 9605   3.934   6.443   5.108
   96SAPE   H7Y 9606   3.900   6.576   5.223
   96SAPE   C38 9607   3.725   6.484   5.135
   96SAPE   H8X 9608   3.731   6.539   5.039
   96SAPE   H8Y 9609   3.659   6.542   5.204
   96SAPE   C39 9610   3.663   6.348   5.107
   96SAPE   H9X 9611   3.642   6.295   5.203
   96SAPE   H9Y 9612   3.735   6.287   5.048
   96SAPE  C310 9613   3.533   6.360   5.028
   96SAPE  H10X 9614   3.552   6.421   4.938
   96SAPE  H10Y 9615   3.457   6.413   5.090
   96SAPE  C311 9616   3.481   6.221   4.989
   96SAPE  H11X 9617   3.477   6.156   5.079
   96SAPE  H11Y 9618   3.553   6.175   4.918
   96SAPE  C312 9619   3.342   6.226   4.925
   96SAPE  H12X 9620   3.267   6.253   5.003
   96SAPE  H12Y 9621   3.315   6.126   4.886
   96SAPE  C313 9622   3.332   6.330   4.812
   96SAPE  H13X 9623   3.342   6.431   4.855
   96SAPE  H13Y 9624   3.230   6.323   4.768
   96SAPE  C314 9625   3.435   6.313   4.700
   96SAPE  H14X 9626   3.539   6.322   4.740
   96SAPE  H14Y 9627   3.421   6.398   4.630
   96SAPE  C315 9628   3.421   6.180   4.624
   96SAPE  H15X 9629   3.316   6.170   4.592
   96SAPE  H15Y 9630   3.443   6.096   4.693
   96SAPE  C316 9631   3.512   6.169   4.501
   96SAPE  H16X 9632   3.484   6.075   4.449
   96SAPE  H16Y 9633   3.619   6.161   4.532
   96SAPE  C317 9634   3.495   6.282   4.401
   96SAPE  H17X 9635   3.393   6.324   4.410
   96SAPE  H17Y 9636   3.503   6.241   4.298
   96SAPE  C318 9637   3.600   6.391   4.416
   96SAPE  H18X 9638   3.576   6.480   4.354
   96SAPE  H18Y 9639   3.698   6.350   4.384
   96SAPE  H18Z 9640   3.610   6.424   4.522
   97SAPE     N 9641   6.565   2.473   6.227
   97SAPE   HN1 9642   6.665   2.483   6.201
   97SAPE   HN2 9643   6.550   2.377   6.265
   97SAPE   HN3 9644   6.506   2.486   6.142
   97SAPE   C12 9645   6.524   2.571   6.333
   97SAPE  H12A 9646   6.540   2.674   6.294
   97SAPE  H12B 9647   6.589   2.554   6.421
   97SAPE   C11 9648   6.376   2.551   6.373
   97SAPE  H11A 9649   6.353   2.618   6.459
   97SAPE  H11B 9650   6.362   2.446   6.408
   97SAPE     P 9651   6.222   2.717   6.243
   97SAPE   O13 9652   6.101   2.721   6.329
   97SAPE   O14 9653   6.328   2.818   6.265
   97SAPE   O12 9654   6.289   2.574   6.263
   97SAPE   O11 9655   6.180   2.714   6.092
   97SAPE    C1 9656   6.113   2.601   6.034
   97SAPE    HA 9657   6.052   2.546   6.108
   97SAPE    HB 9658   6.045   2.638   5.955
   97SAPE    C2 9659   6.213   2.504   5.966
   97SAPE    HS 9660   6.283   2.466   6.044
   97SAPE   O21 9661   6.279   2.575   5.861
   97SAPE   C21 9662   6.410   2.587   5.870
   97SAPE   O22 9663   6.479   2.553   5.965
   97SAPE   C22 9664   6.459   2.645   5.737
   97SAPE   H2R 9665   6.446   2.568   5.659
   97SAPE   H2S 9666   6.393   2.731   5.713
   97SAPE    C3 9667   6.143   2.379   5.906
   97SAPE    HX 9668   6.045   2.413   5.866
   97SAPE    HY 9669   6.126   2.304   5.986
   97SAPE   O31 9670   6.221   2.326   5.796
   97SAPE   C31 9671   6.184   2.208   5.750
   97SAPE   O32 9672   6.119   2.125   5.810
   97SAPE   C32 9673   6.222   2.201   5.603
   97SAPE   H2X 9674   6.187   2.102   5.565
   97SAPE   H2Y 9675   6.332   2.208   5.594
   97SAPE   C23 9676   6.605   2.694   5.740
   97SAPE   H3R 9677   6.676   2.609   5.751
   97SAPE   H3S 9678   6.619   2.759   5.829
   97SAPE   C24 9679   6.641   2.780   5.617
   97SAPE   H4R 9680   6.737   2.829   5.643
   97SAPE   H4S 9681   6.565   2.860   5.608
   97SAPE   C25 9682   6.661   2.710   5.485
   97SAPE   H5R 9683   6.759   2.662   5.473
   97SAPE   C26 9684   6.574   2.701   5.382
   97SAPE   H6R 9685   6.608   2.650   5.290
   97SAPE   C27 9686   6.434   2.757   5.372
   97SAPE   H7R 9687   6.389   2.763   5.473
   97SAPE   H7S 9688   6.370   2.685   5.316
   97SAPE   C28 9689   6.423   2.894   5.308
   97SAPE   H8R 9690   6.474   2.973   5.366
   97SAPE   C29 9691   6.362   2.929   5.193
   97SAPE   H9R 9692   6.365   3.036   5.165
   97SAPE  C210 9693   6.286   2.844   5.093
   97SAPE  H10R 9694   6.339   2.747   5.080
   97SAPE  H10S 9695   6.297   2.894   4.995
   97SAPE  C211 9696   6.139   2.817   5.113
   97SAPE  H11R 9697   6.085   2.895   5.168
   97SAPE  C212 9698   6.065   2.715   5.065
   97SAPE  H12R 9699   5.958   2.713   5.090
   97SAPE  C213 9700   6.108   2.597   4.980
   97SAPE  H13R 9701   6.071   2.506   5.032
   97SAPE  H13S 9702   6.218   2.588   4.977
   97SAPE  C214 9703   6.051   2.600   4.840
   97SAPE  H14R 9704   5.979   2.681   4.821
   97SAPE  C215 9705   6.076   2.516   4.737
   97SAPE  H15R 9706   6.024   2.535   4.642
   97SAPE  C216 9707   6.167   2.396   4.732
   97SAPE  H16R 9708   6.106   2.304   4.742
   97SAPE  H16S 9709   6.240   2.394   4.816
   97SAPE  C217 9710   6.240   2.371   4.599
   97SAPE  H17R 9711   6.340   2.418   4.609
   97SAPE  H17S 9712   6.185   2.418   4.514
   97SAPE  C218 9713   6.255   2.221   4.567
   97SAPE  H18R 9714   6.154   2.174   4.562
   97SAPE  H18S 9715   6.308   2.170   4.650
   97SAPE  C219 9716   6.325   2.191   4.434
   97SAPE  H19R 9717   6.424   2.240   4.434
   97SAPE  H19S 9718   6.265   2.235   4.352
   97SAPE  C220 9719   6.344   2.041   4.410
   97SAPE  H20R 9720   6.392   2.023   4.311
   97SAPE  H20S 9721   6.246   1.988   4.411
   97SAPE  H20T 9722   6.407   1.996   4.489
   97SAPE   C33 9723   6.152   2.315   5.525
   97SAPE   H3X 9724   6.186   2.414   5.562
   97SAPE   H3Y 9725   6.043   2.309   5.544
   97SAPE   C34 9726   6.173   2.308   5.373
   97SAPE   H4X 9727   6.077   2.335   5.324
   97SAPE   H4Y 9728   6.199   2.204   5.344
   97SAPE   C35 9729   6.279   2.407   5.322
   97SAPE   H5X 9730   6.366   2.401   5.391
   97SAPE   H5Y 9731   6.239   2.510   5.329
   97SAPE   C36 9732   6.327   2.380   5.178
   97SAPE   H6X 9733   6.244   2.392   5.106
   97SAPE   H6Y 9734   6.359   2.273   5.175
   97SAPE   C37 9735   6.445   2.472   5.141
   97SAPE   H7X 9736   6.512   2.474   5.230
   97SAPE   H7Y 9737   6.406   2.575   5.130
   97SAPE   C38 9738   6.534   2.437   5.020
   97SAPE   H8X 9739   6.525   2.330   4.990
   97SAPE   H8Y 9740   6.640   2.453   5.048
   97SAPE   C39 9741   6.509   2.518   4.894
   97SAPE   H9X 9742   6.399   2.519   4.876
   97SAPE   H9Y 9743   6.556   2.468   4.807
   97SAPE  C310 9744   6.567   2.658   4.908
   97SAPE  H10X 9745   6.678   2.652   4.914
   97SAPE  H10Y 9746   6.532   2.703   5.003
   97SAPE  C311 9747   6.527   2.749   4.793
   97SAPE  H11X 9748   6.584   2.721   4.702
   97SAPE  H11Y 9749   6.554   2.852   4.823
   97SAPE  C312 9750   6.378   2.746   4.759
   97SAPE  H12X 9751   6.320   2.723   4.852
   97SAPE  H12Y 9752   6.357   2.664   4.687
   97SAPE  C313 9753   6.329   2.881   4.708
   97SAPE  H13X 9754   6.384   2.910   4.616
   97SAPE  H13Y 9755   6.349   2.956   4.787
   97SAPE  C314 9756   6.180   2.884   4.678
   97SAPE  H14X 9757   6.150   2.991   4.667
   97SAPE  H14Y 9758   6.125   2.843   4.765
   97SAPE  C315 9759   6.143   2.808   4.550
   97SAPE  H15X 9760   6.040   2.769   4.562
   97SAPE  H15Y 9761   6.210   2.720   4.535
   97SAPE  C316 9762   6.145   2.897   4.425
   97SAPE  H16X 9763   6.246   2.939   4.407
   97SAPE  H16Y 9764   6.076   2.982   4.443
   97SAPE  C317 9765   6.095   2.823   4.301
   97SAPE  H17X 9766   6.051   2.896   4.229
   97SAPE  H17Y 9767   6.015   2.753   4.333
   97SAPE  C318 9768   6.202   2.741   4.230
   97SAPE  H18X 9769   6.289   2.805   4.204
   97SAPE  H18Y 9770   6.162   2.696   4.136
   97SAPE  H18Z 9771   6.235   2.659   4.296
   98SAPE     N 9772   5.725   1.584   6.307
   98SAPE   HN1 9773   5.743   1.592   6.409
   98SAPE   HN2 9774   5.764   1.668   6.259
   98SAPE   HN3 9775   5.622   1.578   6.294
   98SAPE   C12 9776   5.783   1.457   6.252
   98SAPE  H12A 9777   5.893   1.467   6.250
   98SAPE  H12B 9778   5.746   1.446   6.148
   98SAPE   C11 9779   5.741   1.334   6.337
   98SAPE  H11A 9780   5.824   1.310   6.406
   98SAPE  H11B 9781   5.732   1.246   6.270
   98SAPE     P 9782   5.480   1.368   6.344
   98SAPE   O13 9783   5.375   1.326   6.439
   98SAPE   O14 9784   5.471   1.508   6.296
   98SAPE   O12 9785   5.622   1.355   6.415
   98SAPE   O11 9786   5.495   1.273   6.223
   98SAPE    C1 9787   5.484   1.132   6.229
   98SAPE    HA 9788   5.580   1.087   6.263
   98SAPE    HB 9789   5.403   1.099   6.299
   98SAPE    C2 9790   5.451   1.076   6.088
   98SAPE    HS 9791   5.469   0.967   6.090
   98SAPE   O21 9792   5.535   1.144   5.991
   98SAPE   C21 9793   5.589   1.075   5.893
   98SAPE   O22 9794   5.569   0.959   5.865
   98SAPE   C22 9795   5.689   1.161   5.815
   98SAPE   H2R 9796   5.678   1.268   5.843
   98SAPE   H2S 9797   5.789   1.126   5.848
   98SAPE    C3 9798   5.299   1.098   6.063
   98SAPE    HX 9799   5.242   1.058   6.149
   98SAPE    HY 9800   5.267   1.037   5.976
   98SAPE   O31 9801   5.274   1.239   6.050
   98SAPE   C31 9802   5.263   1.275   5.924
   98SAPE   O32 9803   5.204   1.211   5.838
   98SAPE   C32 9804   5.349   1.398   5.898
   98SAPE   H2X 9805   5.441   1.365   5.845
   98SAPE   H2Y 9806   5.378   1.442   5.996
   98SAPE   C23 9807   5.676   1.140   5.662
   98SAPE   H3R 9808   5.663   1.032   5.636
   98SAPE   H3S 9809   5.770   1.174   5.615
   98SAPE   C24 9810   5.560   1.217   5.598
   98SAPE   H4R 9811   5.585   1.231   5.491
   98SAPE   H4S 9812   5.558   1.318   5.644
   98SAPE   C25 9813   5.427   1.147   5.616
   98SAPE   H5R 9814   5.391   1.144   5.720
   98SAPE   C26 9815   5.351   1.085   5.523
   98SAPE   H6R 9816   5.257   1.038   5.554
   98SAPE   C27 9817   5.386   1.072   5.377
   98SAPE   H7R 9818   5.436   0.974   5.366
   98SAPE   H7S 9819   5.460   1.150   5.351
   98SAPE   C28 9820   5.277   1.084   5.274
   98SAPE   H8R 9821   5.183   1.131   5.307
   98SAPE   C29 9822   5.290   1.043   5.146
   98SAPE   H9R 9823   5.205   1.057   5.077
   98SAPE  C210 9824   5.412   0.978   5.084
   98SAPE  H10R 9825   5.380   0.884   5.035
   98SAPE  H10S 9826   5.480   0.941   5.163
   98SAPE  C211 9827   5.492   1.065   4.990
   98SAPE  H11R 9828   5.506   1.169   5.025
   98SAPE  C212 9829   5.548   1.031   4.872
   98SAPE  H12R 9830   5.601   1.107   4.813
   98SAPE  C213 9831   5.542   0.896   4.807
   98SAPE  H13R 9832   5.463   0.906   4.729
   98SAPE  H13S 9833   5.506   0.818   4.878
   98SAPE  C214 9834   5.661   0.838   4.738
   98SAPE  H14R 9835   5.748   0.815   4.802
   98SAPE  C215 9836   5.666   0.811   4.607
   98SAPE  H15R 9837   5.751   0.751   4.570
   98SAPE  C216 9838   5.556   0.833   4.504
   98SAPE  H16R 9839   5.522   0.938   4.506
   98SAPE  H16S 9840   5.466   0.772   4.526
   98SAPE  C217 9841   5.601   0.799   4.360
   98SAPE  H17R 9842   5.514   0.815   4.293
   98SAPE  H17S 9843   5.628   0.692   4.352
   98SAPE  C218 9844   5.718   0.884   4.306
   98SAPE  H18R 9845   5.704   0.901   4.198
   98SAPE  H18S 9846   5.813   0.827   4.316
   98SAPE  C219 9847   5.736   1.018   4.376
   98SAPE  H19R 9848   5.743   1.011   4.487
   98SAPE  H19S 9849   5.644   1.077   4.356
   98SAPE  C220 9850   5.863   1.090   4.334
   98SAPE  H20R 9851   5.865   1.192   4.378
   98SAPE  H20S 9852   5.869   1.098   4.223
   98SAPE  H20T 9853   5.953   1.037   4.372
   98SAPE   C33 9854   5.273   1.501   5.814
   98SAPE   H3X 9855   5.328   1.598   5.816
   98SAPE   H3Y 9856   5.174   1.517   5.863
   98SAPE   C34 9857   5.250   1.460   5.668
   98SAPE   H4X 9858   5.150   1.494   5.634
   98SAPE   H4Y 9859   5.247   1.349   5.657
   98SAPE   C35 9860   5.353   1.514   5.569
   98SAPE   H5X 9861   5.456   1.489   5.603
   98SAPE   H5Y 9862   5.346   1.625   5.563
   98SAPE   C36 9863   5.326   1.453   5.432
   98SAPE   H6X 9864   5.221   1.475   5.402
   98SAPE   H6Y 9865   5.332   1.342   5.440
   98SAPE   C37 9866   5.422   1.499   5.323
   98SAPE   H7X 9867   5.525   1.464   5.346
   98SAPE   H7Y 9868   5.423   1.610   5.318
   98SAPE   C38 9869   5.375   1.441   5.189
   98SAPE   H8X 9870   5.270   1.471   5.170
   98SAPE   H8Y 9871   5.377   1.330   5.195
   98SAPE   C39 9872   5.461   1.486   5.071
   98SAPE   H9X 9873   5.565   1.450   5.087
   98SAPE   H9Y 9874   5.465   1.597   5.066
   98SAPE  C310 9875   5.406   1.429   4.941
   98SAPE  H10X 9876   5.316   1.487   4.909
   98SAPE  H10Y 9877   5.374   1.324   4.957
   98SAPE  C311 9878   5.512   1.433   4.832
   98SAPE  H11X 9879   5.604   1.383   4.871
   98SAPE  H11Y 9880   5.539   1.538   4.810
   98SAPE  C312 9881   5.470   1.362   4.704
   98SAPE  H12X 9882   5.388   1.421   4.657
   98SAPE  H12Y 9883   5.430   1.260   4.726
   98SAPE  C313 9884   5.590   1.351   4.610
   98SAPE  H13X 9885   5.658   1.269   4.642
   98SAPE  H13Y 9886   5.647   1.445   4.623
   98SAPE  C314 9887   5.555   1.337   4.461
   98SAPE  H14X 9888   5.465   1.397   4.437
   98SAPE  H14Y 9889   5.531   1.231   4.440
   98SAPE  C315 9890   5.673   1.388   4.376
   98SAPE  H15X 9891   5.767   1.372   4.433
   98SAPE  H15Y 9892   5.659   1.497   4.362
   98SAPE  C316 9893   5.688   1.330   4.237
   98SAPE  H16X 9894   5.653   1.225   4.232
   98SAPE  H16Y 9895   5.795   1.332   4.207
   98SAPE  C317 9896   5.608   1.408   4.136
   98SAPE  H17X 9897   5.664   1.499   4.106
   98SAPE  H17Y 9898   5.518   1.443   4.190
   98SAPE  C318 9899   5.565   1.328   4.014
   98SAPE  H18X 9900   5.639   1.340   3.932
   98SAPE  H18Y 9901   5.466   1.362   3.976
   98SAPE  H18Z 9902   5.555   1.220   4.039
   99SAPE     N 9903   5.235   6.399   6.396
   99SAPE   HN1 9904   5.325   6.436   6.433
   99SAPE   HN2 9905   5.158   6.417   6.464
   99SAPE   HN3 9906   5.237   6.299   6.371
   99SAPE   C12 9907   5.201   6.473   6.271
   99SAPE  H12A 9908   5.143   6.405   6.204
   99SAPE  H12B 9909   5.296   6.498   6.219
   99SAPE   C11 9910   5.115   6.595   6.303
   99SAPE  H11A 9911   5.028   6.565   6.365
   99SAPE  H11B 9912   5.067   6.629   6.208
   99SAPE     P 9913   5.301   6.781   6.291
   99SAPE   O13 9914   5.304   6.917   6.348
   99SAPE   O14 9915   5.425   6.701   6.299
   99SAPE   O12 9916   5.188   6.698   6.369
   99SAPE   O11 9917   5.255   6.781   6.141
   99SAPE    C1 9918   5.132   6.833   6.090
   99SAPE    HA 9919   5.052   6.839   6.168
   99SAPE    HB 9920   5.147   6.937   6.054
   99SAPE    C2 9921   5.078   6.752   5.968
   99SAPE    HS 9922   5.029   6.661   6.008
   99SAPE   O21 9923   5.193   6.714   5.886
   99SAPE   C21 9924   5.254   6.598   5.917
   99SAPE   O22 9925   5.208   6.515   5.993
   99SAPE   C22 9926   5.389   6.578   5.842
   99SAPE   H2R 9927   5.392   6.639   5.749
   99SAPE   H2S 9928   5.463   6.624   5.910
   99SAPE    C3 9929   4.956   6.830   5.894
   99SAPE    HX 9930   4.877   6.835   5.971
   99SAPE    HY 9931   4.923   6.760   5.814
   99SAPE   O31 9932   4.970   6.965   5.838
   99SAPE   C31 9933   4.861   7.000   5.763
   99SAPE   O32 9934   4.768   6.925   5.741
   99SAPE   C32 9935   4.868   7.141   5.697
   99SAPE   H2X 9936   4.860   7.213   5.781
   99SAPE   H2Y 9937   4.777   7.148   5.635
   99SAPE   C23 9938   5.438   6.429   5.817
   99SAPE   H3R 9939   5.422   6.369   5.910
   99SAPE   H3S 9940   5.548   6.440   5.809
   99SAPE   C24 9941   5.401   6.340   5.690
   99SAPE   H4R 9942   5.476   6.258   5.696
   99SAPE   H4S 9943   5.430   6.397   5.599
   99SAPE   C25 9944   5.264   6.271   5.685
   99SAPE   H5R 9945   5.236   6.259   5.790
   99SAPE   C26 9946   5.165   6.222   5.600
   99SAPE   H6R 9947   5.084   6.177   5.659
   99SAPE   C27 9948   5.122   6.203   5.453
   99SAPE   H7R 9949   5.119   6.093   5.434
   99SAPE   H7S 9950   5.197   6.233   5.376
   99SAPE   C28 9951   4.975   6.237   5.420
   99SAPE   H8R 9952   4.910   6.188   5.494
   99SAPE   C29 9953   4.907   6.313   5.329
   99SAPE   H9R 9954   4.798   6.318   5.345
   99SAPE  C210 9955   4.946   6.401   5.211
   99SAPE  H10R 9956   4.861   6.411   5.140
   99SAPE  H10S 9957   5.025   6.344   5.157
   99SAPE  C211 9958   4.998   6.539   5.246
   99SAPE  H11R 9959   5.035   6.541   5.349
   99SAPE  C212 9960   5.008   6.661   5.188
   99SAPE  H12R 9961   5.063   6.734   5.250
   99SAPE  C213 9962   4.971   6.719   5.055
   99SAPE  H13R 9963   4.861   6.737   5.061
   99SAPE  H13S 9964   4.981   6.644   4.974
   99SAPE  C214 9965   5.038   6.855   5.032
   99SAPE  H14R 9966   5.017   6.918   5.119
   99SAPE  C215 9967   5.108   6.921   4.935
   99SAPE  H15R 9968   5.127   7.025   4.962
   99SAPE  C216 9969   5.161   6.898   4.794
   99SAPE  H16R 9970   5.252   6.834   4.804
   99SAPE  H16S 9971   5.200   6.995   4.757
   99SAPE  C217 9972   5.080   6.841   4.675
   99SAPE  H17R 9973   5.001   6.774   4.715
   99SAPE  H17S 9974   5.152   6.781   4.616
   99SAPE  C218 9975   5.026   6.942   4.572
   99SAPE  H18R 9976   5.108   7.013   4.547
   99SAPE  H18S 9977   4.944   7.001   4.618
   99SAPE  C219 9978   4.978   6.881   4.438
   99SAPE  H19R 9979   4.931   6.963   4.379
   99SAPE  H19S 9980   4.898   6.806   4.458
   99SAPE  C220 9981   5.084   6.814   4.349
   99SAPE  H20R 9982   5.040   6.791   4.250
   99SAPE  H20S 9983   5.118   6.718   4.394
   99SAPE  H20T 9984   5.172   6.880   4.335
   99SAPE   C33 9985   4.994   7.157   5.605
   99SAPE   H3X 9986   4.981   7.058   5.557
   99SAPE   H3Y 9987   5.085   7.164   5.668
   99SAPE   C34 9988   5.015   7.239   5.474
   99SAPE   H4X 9989   5.080   7.326   5.495
   99SAPE   H4Y 9990   4.914   7.276   5.444
   99SAPE   C35 9991   5.071   7.161   5.347
   99SAPE   H5X 9992   5.042   7.219   5.257
   99SAPE   H5Y 9993   5.013   7.067   5.338
   99SAPE   C36 9994   5.223   7.126   5.330
   99SAPE   H6X 9995   5.278   7.127   5.427
   99SAPE   H6Y 9996   5.263   7.214   5.275
   99SAPE   C37 9997   5.255   6.992   5.252
   99SAPE   H7X 9998   5.249   7.017   5.144
   99SAPE   H7Y 9999   5.174   6.919   5.273
   99SAPE   C3810000   5.390   6.913   5.275
   99SAPE   H8X10001   5.387   6.849   5.365
   99SAPE   H8Y10002   5.468   6.990   5.296
   99SAPE   C3910003   5.440   6.821   5.158
   99SAPE   H9X10004   5.489   6.883   5.079
   99SAPE   H9Y10005   5.352   6.778   5.108
   99SAPE  C31010006   5.546   6.710   5.189
   99SAPE  H10X10007   5.498   6.621   5.235
   99SAPE  H10Y10008   5.611   6.746   5.271
   99SAPE  C31110009   5.634   6.670   5.067
   99SAPE  H11X10010   5.733   6.716   5.088
   99SAPE  H11Y10011   5.597   6.721   4.975
   99SAPE  C31210012   5.676   6.523   5.036
   99SAPE  H12X10013   5.689   6.468   5.132
   99SAPE  H12Y10014   5.777   6.530   4.991
   99SAPE  C31310015   5.595   6.437   4.936
   99SAPE  H13X10016   5.511   6.392   4.994
   99SAPE  H13Y10017   5.657   6.351   4.903
   99SAPE  C31410018   5.533   6.506   4.812
   99SAPE  H14X10019   5.514   6.614   4.830
   99SAPE  H14Y10020   5.435   6.456   4.796
   99SAPE  C31510021   5.605   6.491   4.677
   99SAPE  H15X10022   5.612   6.383   4.654
   99SAPE  H15Y10023   5.708   6.531   4.687
   99SAPE  C31610024   5.534   6.562   4.559
   99SAPE  H16X10025   5.598   6.550   4.469
   99SAPE  H16Y10026   5.527   6.671   4.582
   99SAPE  C31710027   5.392   6.515   4.525
   99SAPE  H17X10028   5.326   6.595   4.566
   99SAPE  H17Y10029   5.372   6.420   4.578
   99SAPE  C31810030   5.351   6.500   4.377
   99SAPE  H18X10031   5.271   6.423   4.368
   99SAPE  H18Y10032   5.437   6.468   4.315
   99SAPE  H18Z10033   5.309   6.594   4.337
  100SAPE     N10034   0.867   6.292   6.307
  100SAPE   HN110035   0.864   6.214   6.239
  100SAPE   HN210036   0.776   6.342   6.305
  100SAPE   HN310037   0.945   6.357   6.284
  100SAPE   C1210038   0.894   6.232   6.443
  100SAPE  H12A10039   0.835   6.289   6.518
  100SAPE  H12B10040   1.002   6.246   6.465
  100SAPE   C1110041   0.861   6.082   6.443
  100SAPE  H11A10042   0.753   6.067   6.420
  100SAPE  H11B10043   0.876   6.043   6.546
  100SAPE     P10044   0.894   5.943   6.223
  100SAPE   O1310045   1.012   5.892   6.151
  100SAPE   O1410046   0.787   5.851   6.263
  100SAPE   O1210047   0.949   6.013   6.355
  100SAPE   O1110048   0.834   6.075   6.157
  100SAPE    C110049   0.854   6.106   6.019
  100SAPE    HA10050   0.843   6.216   6.006
  100SAPE    HB10051   0.955   6.079   5.982
  100SAPE    C210052   0.748   6.041   5.926
  100SAPE    HS10053   0.650   6.045   5.977
  100SAPE   O2110054   0.788   5.905   5.902
  100SAPE   C2110055   0.690   5.831   5.852
  100SAPE   O2210056   0.573   5.862   5.846
  100SAPE   C2210057   0.750   5.702   5.797
  100SAPE   H2R10058   0.861   5.710   5.795
  100SAPE   H2S10059   0.721   5.622   5.869
  100SAPE    C310060   0.738   6.118   5.791
  100SAPE    HX10061   0.686   6.214   5.811
  100SAPE    HY10062   0.675   6.058   5.722
  100SAPE   O3110063   0.868   6.143   5.734
  100SAPE   C3110064   0.861   6.204   5.615
  100SAPE   O3210065   0.758   6.231   5.557
  100SAPE   C3210066   1.003   6.240   5.572
  100SAPE   H2X10067   1.065   6.148   5.575
  100SAPE   H2Y10068   1.042   6.310   5.649
  100SAPE   C2310069   0.696   5.671   5.656
  100SAPE   H3R10070   0.585   5.667   5.658
  100SAPE   H3S10071   0.734   5.570   5.630
  100SAPE   C2410072   0.742   5.768   5.547
  100SAPE   H4R10073   0.853   5.775   5.549
  100SAPE   H4S10074   0.702   5.869   5.569
  100SAPE   C2510075   0.697   5.719   5.412
  100SAPE   H5R10076   0.692   5.609   5.402
  100SAPE   C2610077   0.661   5.793   5.306
  100SAPE   H6R10078   0.630   5.742   5.214
  100SAPE   C2710079   0.657   5.944   5.299
  100SAPE   H7R10080   0.743   5.981   5.239
  100SAPE   H7S10081   0.668   5.992   5.399
  100SAPE   C2810082   0.526   5.985   5.237
  100SAPE   H8R10083   0.437   5.955   5.294
  100SAPE   C2910084   0.507   6.051   5.122
  100SAPE   H9R10085   0.403   6.063   5.089
  100SAPE  C21010086   0.612   6.102   5.026
  100SAPE  H10R10087   0.577   6.080   4.923
  100SAPE  H10S10088   0.706   6.044   5.039
  100SAPE  C21110089   0.649   6.248   5.036
  100SAPE  H11R10090   0.598   6.308   5.112
  100SAPE  C21210091   0.742   6.305   4.956
  100SAPE  H12R10092   0.764   6.413   4.967
  100SAPE  C21310093   0.817   6.229   4.850
  100SAPE  H13R10094   0.749   6.214   4.763
  100SAPE  H13S10095   0.841   6.128   4.887
  100SAPE  C21410096   0.944   6.293   4.799
  100SAPE  H14R10097   0.965   6.396   4.831
  100SAPE  C21510098   1.032   6.231   4.717
  100SAPE  H15R10099   1.121   6.285   4.683
  100SAPE  C21610100   1.017   6.090   4.665
  100SAPE  H16R10101   0.960   6.027   4.736
  100SAPE  H16S10102   1.117   6.042   4.656
  100SAPE  C21710103   0.945   6.082   4.529
  100SAPE  H17R10104   0.847   6.132   4.535
  100SAPE  H17S10105   0.926   5.975   4.506
  100SAPE  C21810106   1.027   6.141   4.412
  100SAPE  H18R10107   1.130   6.099   4.417
  100SAPE  H18S10108   1.034   6.251   4.424
  100SAPE  C21910109   0.968   6.108   4.274
  100SAPE  H19R10110   0.954   5.998   4.267
  100SAPE  H19S10111   1.042   6.137   4.197
  100SAPE  C22010112   0.835   6.177   4.244
  100SAPE  H20R10113   0.758   6.149   4.318
  100SAPE  H20S10114   0.798   6.148   4.143
  100SAPE  H20T10115   0.847   6.288   4.246
  100SAPE   C3310116   1.009   6.309   5.434
  100SAPE   H3X10117   1.107   6.362   5.427
  100SAPE   H3Y10118   0.930   6.386   5.425
  100SAPE   C3410119   1.002   6.213   5.314
  100SAPE   H4X10120   1.012   6.274   5.221
  100SAPE   H4Y10121   0.902   6.164   5.309
  100SAPE   C3510122   1.112   6.106   5.314
  100SAPE   H5X10123   1.079   6.019   5.375
  100SAPE   H5Y10124   1.202   6.149   5.364
  100SAPE   C3610125   1.156   6.059   5.174
  100SAPE   H6X10126   1.245   5.993   5.185
  100SAPE   H6Y10127   1.188   6.148   5.116
  100SAPE   C3710128   1.049   5.984   5.093
  100SAPE   H7X10129   1.092   5.963   4.993
  100SAPE   H7Y10130   0.960   6.048   5.079
  100SAPE   C3810131   1.008   5.850   5.156
  100SAPE   H8X10132   0.936   5.870   5.239
  100SAPE   H8Y10133   1.097   5.802   5.202
  100SAPE   C3910134   0.946   5.750   5.056
  100SAPE   H9X10135   0.915   5.659   5.113
  100SAPE   H9Y10136   1.024   5.719   4.983
  100SAPE  C31010137   0.825   5.804   4.980
  100SAPE  H10X10138   0.858   5.886   4.912
  100SAPE  H10Y10139   0.754   5.847   5.053
  100SAPE  C31110140   0.749   5.697   4.901
  100SAPE  H11X10141   0.716   5.618   4.971
  100SAPE  H11Y10142   0.817   5.651   4.826
  100SAPE  C31210143   0.625   5.753   4.828
  100SAPE  H12X10144   0.555   5.798   4.902
  100SAPE  H12Y10145   0.572   5.667   4.781
  100SAPE  C31310146   0.658   5.856   4.720
  100SAPE  H13X10147   0.747   5.820   4.663
  100SAPE  H13Y10148   0.685   5.953   4.766
  100SAPE  C31410149   0.543   5.875   4.620
  100SAPE  H14X10150   0.452   5.910   4.673
  100SAPE  H14Y10151   0.521   5.776   4.576
  100SAPE  C31510152   0.580   5.974   4.508
  100SAPE  H15X10153   0.684   5.956   4.476
  100SAPE  H15Y10154   0.577   6.077   4.549
  100SAPE  C31610155   0.488   5.966   4.385
  100SAPE  H16X10156   0.524   6.040   4.310
  100SAPE  H16Y10157   0.384   5.993   4.413
  100SAPE  C31710158   0.488   5.829   4.315
  100SAPE  H17X10159   0.430   5.837   4.220
  100SAPE  H17Y10160   0.435   5.755   4.379
  100SAPE  C31810161   0.628   5.776   4.284
  100SAPE  H18X10162   0.688   5.762   4.377
  100SAPE  H18Y10163   0.683   5.846   4.217
  100SAPE  H18Z10164   0.622   5.677   4.234
  101SAPE     N10165   0.477   1.434   6.147
  101SAPE   HN110166   0.396   1.469   6.202
  101SAPE   HN210167   0.560   1.465   6.202
  101SAPE   HN310168   0.482   1.482   6.055
  101SAPE   C1210169   0.484   1.284   6.135
  101SAPE  H12A10170   0.446   1.255   6.035
  101SAPE  H12B10171   0.419   1.240   6.214
  101SAPE   C1110172   0.629   1.232   6.155
  101SAPE  H11A10173   0.695   1.272   6.076
  101SAPE  H11B10174   0.627   1.122   6.142
  101SAPE     P10175   0.775   1.380   6.314
  101SAPE   O1310176   0.705   1.499   6.260
  101SAPE   O1410177   0.818   1.383   6.454
  101SAPE   O1210178   0.676   1.260   6.288
  101SAPE   O1110179   0.899   1.344   6.222
  101SAPE    C110180   1.006   1.439   6.209
  101SAPE    HA10181   1.002   1.520   6.285
  101SAPE    HB10182   1.102   1.386   6.224
  101SAPE    C210183   1.006   1.505   6.069
  101SAPE    HS10184   1.076   1.591   6.069
  101SAPE   O2110185   0.875   1.544   6.031
  101SAPE   C2110186   0.836   1.665   6.063
  101SAPE   O2210187   0.892   1.740   6.141
  101SAPE   C2210188   0.720   1.699   5.970
  101SAPE   H2R10189   0.627   1.659   6.017
  101SAPE   H2S10190   0.712   1.809   5.963
  101SAPE    C310191   1.053   1.405   5.959
  101SAPE    HX10192   0.996   1.311   5.975
  101SAPE    HY10193   1.160   1.382   5.976
  101SAPE   O3110194   1.029   1.450   5.824
  101SAPE   C3110195   1.102   1.553   5.783
  101SAPE   O3210196   1.188   1.608   5.850
  101SAPE   C3210197   1.064   1.588   5.640
  101SAPE   H2X10198   0.960   1.629   5.638
  101SAPE   H2Y10199   1.062   1.494   5.581
  101SAPE   C2310200   0.745   1.637   5.830
  101SAPE   H3R10201   0.761   1.527   5.836
  101SAPE   H3S10202   0.839   1.682   5.791
  101SAPE   C2410203   0.636   1.659   5.725
  101SAPE   H4R10204   0.673   1.619   5.629
  101SAPE   H4S10205   0.624   1.769   5.712
  101SAPE   C2510206   0.507   1.593   5.768
  101SAPE   H5R10207   0.461   1.637   5.858
  101SAPE   C2610208   0.443   1.492   5.706
  101SAPE   H6R10209   0.349   1.455   5.750
  101SAPE   C2710210   0.482   1.422   5.578
  101SAPE   H7R10211   0.555   1.484   5.521
  101SAPE   H7S10212   0.394   1.417   5.512
  101SAPE   C2810213   0.533   1.282   5.602
  101SAPE   H8R10214   0.476   1.223   5.675
  101SAPE   C2910215   0.636   1.223   5.537
  101SAPE   H9R10216   0.659   1.118   5.560
  101SAPE  C21010217   0.720   1.286   5.429
  101SAPE  H10R10218   0.711   1.396   5.428
  101SAPE  H10S10219   0.680   1.252   5.331
  101SAPE  C21110220   0.867   1.253   5.438
  101SAPE  H11R10221   0.904   1.223   5.538
  101SAPE  C21210222   0.954   1.258   5.335
  101SAPE  H12R10223   1.059   1.232   5.354
  101SAPE  C21310224   0.923   1.297   5.193
  101SAPE  H13R10225   0.974   1.393   5.169
  101SAPE  H13S10226   0.814   1.317   5.178
  101SAPE  C21410227   0.966   1.192   5.093
  101SAPE  H14R10228   1.019   1.105   5.135
  101SAPE  C21510229   0.947   1.195   4.960
  101SAPE  H15R10230   0.985   1.112   4.900
  101SAPE  C21610231   0.878   1.304   4.881
  101SAPE  H16R10232   0.877   1.400   4.936
  101SAPE  H16S10233   0.772   1.275   4.865
  101SAPE  C21710234   0.939   1.329   4.740
  101SAPE  H17R10235   1.039   1.376   4.748
  101SAPE  H17S10236   0.873   1.402   4.688
  101SAPE  C21810237   0.948   1.201   4.654
  101SAPE  H18R10238   0.872   1.130   4.691
  101SAPE  H18S10239   1.048   1.154   4.669
  101SAPE  C21910240   0.921   1.220   4.504
  101SAPE  H19R10241   0.829   1.281   4.491
  101SAPE  H19S10242   0.899   1.119   4.462
  101SAPE  C22010243   1.035   1.280   4.422
  101SAPE  H20R10244   1.014   1.272   4.314
  101SAPE  H20S10245   1.131   1.228   4.444
  101SAPE  H20T10246   1.048   1.388   4.446
  101SAPE   C3310247   1.160   1.691   5.575
  101SAPE   H3X10248   1.264   1.655   5.586
  101SAPE   H3Y10249   1.156   1.788   5.629
  101SAPE   C3410250   1.128   1.715   5.427
  101SAPE   H4X10251   1.027   1.760   5.415
  101SAPE   H4Y10252   1.124   1.618   5.375
  101SAPE   C3510253   1.233   1.803   5.359
  101SAPE   H5X10254   1.335   1.766   5.385
  101SAPE   H5Y10255   1.226   1.908   5.395
  101SAPE   C3610256   1.219   1.798   5.207
  101SAPE   H6X10257   1.121   1.841   5.175
  101SAPE   H6Y10258   1.216   1.691   5.176
  101SAPE   C3710259   1.334   1.864   5.130
  101SAPE   H7X10260   1.425   1.864   5.193
  101SAPE   H7Y10261   1.308   1.970   5.109
  101SAPE   C3810262   1.368   1.790   4.999
  101SAPE   H8X10263   1.415   1.693   5.026
  101SAPE   H8Y10264   1.442   1.851   4.943
  101SAPE   C3910265   1.249   1.757   4.908
  101SAPE   H9X10266   1.188   1.676   4.953
  101SAPE   H9Y10267   1.289   1.719   4.812
  101SAPE  C31010268   1.159   1.877   4.880
  101SAPE  H10X10269   1.218   1.953   4.824
  101SAPE  H10Y10270   1.131   1.924   4.977
  101SAPE  C31110271   1.029   1.844   4.804
  101SAPE  H11X10272   0.973   1.939   4.789
  101SAPE  H11Y10273   0.966   1.777   4.866
  101SAPE  C31210274   1.049   1.782   4.666
  101SAPE  H12X10275   1.084   1.677   4.677
  101SAPE  H12Y10276   1.126   1.839   4.610
  101SAPE  C31310277   0.919   1.780   4.585
  101SAPE  H13X10278   0.869   1.879   4.591
  101SAPE  H13Y10279   0.850   1.705   4.630
  101SAPE  C31410280   0.944   1.747   4.438
  101SAPE  H14X10281   1.016   1.662   4.429
  101SAPE  H14Y10282   0.989   1.836   4.389
  101SAPE  C31510283   0.815   1.709   4.365
  101SAPE  H15X10284   0.828   1.731   4.257
  101SAPE  H15Y10285   0.733   1.773   4.405
  101SAPE  C31610286   0.776   1.561   4.380
  101SAPE  H16X10287   0.739   1.541   4.483
  101SAPE  H16Y10288   0.869   1.502   4.366
  101SAPE  C31710289   0.674   1.512   4.276
  101SAPE  H17X10290   0.685   1.402   4.265
  101SAPE  H17Y10291   0.699   1.557   4.178
  101SAPE  C31810292   0.527   1.541   4.310
  101SAPE  H18X10293   0.475   1.587   4.222
  101SAPE  H18Y10294   0.519   1.611   4.395
  101SAPE  H18Z10295   0.473   1.447   4.335
  102SAPE     N10296   7.140   0.807   6.198
  102SAPE   HN110297   7.197   0.799   6.111
  102SAPE   HN210298   7.153   0.899   6.243
  102SAPE   HN310299   7.173   0.732   6.262
  102SAPE   C1210300   6.994   0.786   6.170
  102SAPE  H12A10301   6.979   0.678   6.148
  102SAPE  H12B10302   6.963   0.848   6.083
  102SAPE   C1110303   6.912   0.819   6.294
  102SAPE  H11A10304   6.919   0.928   6.316
  102SAPE  H11B10305   6.958   0.763   6.378
  102SAPE     P10306   6.702   0.684   6.369
  102SAPE   O1310307   6.764   0.698   6.503
  102SAPE   O1410308   6.557   0.705   6.361
  102SAPE   O1210309   6.776   0.784   6.272
  102SAPE   O1110310   6.744   0.543   6.307
  102SAPE    C110311   6.680   0.502   6.185
  102SAPE    HA10312   6.587   0.446   6.208
  102SAPE    HB10313   6.652   0.591   6.124
  102SAPE    C210314   6.771   0.413   6.093
  102SAPE    HS10315   6.796   0.322   6.151
  102SAPE   O2110316   6.891   0.487   6.062
  102SAPE   C2110317   6.975   0.426   5.981
  102SAPE   O2210318   6.984   0.306   5.963
  102SAPE   C2210319   7.061   0.532   5.911
  102SAPE   H2R10320   7.048   0.630   5.961
  102SAPE   H2S10321   7.167   0.500   5.921
  102SAPE    C310322   6.698   0.368   5.961
  102SAPE    HX10323   6.594   0.336   5.984
  102SAPE    HY10324   6.748   0.277   5.922
  102SAPE   O3110325   6.704   0.471   5.859
  102SAPE   C3110326   6.609   0.563   5.870
  102SAPE   O3210327   6.514   0.555   5.945
  102SAPE   C3210328   6.638   0.683   5.781
  102SAPE   H2X10329   6.723   0.739   5.826
  102SAPE   H2Y10330   6.548   0.748   5.786
  102SAPE   C2310331   7.023   0.552   5.763
  102SAPE   H3R10332   6.920   0.593   5.759
  102SAPE   H3S10333   7.018   0.453   5.712
  102SAPE   C2410334   7.123   0.645   5.690
  102SAPE   H4R10335   7.180   0.586   5.615
  102SAPE   H4S10336   7.200   0.679   5.763
  102SAPE   C2510337   7.062   0.764   5.620
  102SAPE   H5R10338   7.007   0.834   5.685
  102SAPE   C2610339   7.067   0.788   5.487
  102SAPE   H6R10340   7.018   0.878   5.448
  102SAPE   C2710341   7.134   0.701   5.382
  102SAPE   H7R10342   7.232   0.665   5.419
  102SAPE   H7S10343   7.159   0.764   5.294
  102SAPE   C2810344   7.051   0.581   5.341
  102SAPE   H8R10345   7.038   0.505   5.419
  102SAPE   C2910346   6.992   0.561   5.221
  102SAPE   H9R10347   6.933   0.469   5.207
  102SAPE  C21010348   6.994   0.653   5.101
  102SAPE  H10R10349   6.935   0.607   5.020
  102SAPE  H10S10350   7.098   0.660   5.062
  102SAPE  C21110351   6.940   0.792   5.127
  102SAPE  H11R10352   6.906   0.811   5.230
  102SAPE  C21210353   6.931   0.892   5.038
  102SAPE  H12R10354   6.889   0.988   5.070
  102SAPE  C21310355   6.974   0.887   4.893
  102SAPE  H13R10356   7.073   0.837   4.887
  102SAPE  H13S10357   6.989   0.990   4.856
  102SAPE  C21410358   6.873   0.824   4.801
  102SAPE  H14R10359   6.770   0.826   4.839
  102SAPE  C21510360   6.894   0.778   4.677
  102SAPE  H15R10361   6.810   0.732   4.623
  102SAPE  C21610362   7.023   0.780   4.601
  102SAPE  H16R10363   7.066   0.882   4.598
  102SAPE  H16S10364   7.004   0.749   4.496
  102SAPE  C21710365   7.128   0.684   4.660
  102SAPE  H17R10366   7.174   0.731   4.750
  102SAPE  H17S10367   7.210   0.671   4.587
  102SAPE  C21810368   7.073   0.547   4.702
  102SAPE  H18R10369   6.995   0.558   4.780
  102SAPE  H18S10370   7.155   0.490   4.750
  102SAPE  C21910371   7.015   0.465   4.586
  102SAPE  H19R10372   6.929   0.519   4.541
  102SAPE  H19S10373   6.975   0.370   4.628
  102SAPE  C22010374   7.117   0.430   4.477
  102SAPE  H20R10375   7.204   0.376   4.520
  102SAPE  H20S10376   7.153   0.522   4.426
  102SAPE  H20T10377   7.069   0.364   4.401
  102SAPE   C3310378   6.668   0.650   5.633
  102SAPE   H3X10379   6.593   0.579   5.593
  102SAPE   H3Y10380   6.766   0.600   5.623
  102SAPE   C3410381   6.668   0.779   5.550
  102SAPE   H4X10382   6.734   0.853   5.600
  102SAPE   H4Y10383   6.566   0.824   5.546
  102SAPE   C3510384   6.721   0.756   5.409
  102SAPE   H5X10385   6.818   0.703   5.417
  102SAPE   H5Y10386   6.740   0.854   5.360
  102SAPE   C3610387   6.630   0.677   5.315
  102SAPE   H6X10388   6.541   0.636   5.368
  102SAPE   H6Y10389   6.688   0.590   5.280
  102SAPE   C3710390   6.586   0.759   5.193
  102SAPE   H7X10391   6.674   0.815   5.154
  102SAPE   H7Y10392   6.508   0.834   5.218
  102SAPE   C3810393   6.538   0.668   5.081
  102SAPE   H8X10394   6.432   0.638   5.093
  102SAPE   H8Y10395   6.603   0.578   5.092
  102SAPE   C3910396   6.569   0.715   4.940
  102SAPE   H9X10397   6.672   0.681   4.920
  102SAPE   H9Y10398   6.565   0.826   4.934
  102SAPE  C31010399   6.479   0.656   4.831
  102SAPE  H10X10400   6.385   0.714   4.827
  102SAPE  H10Y10401   6.453   0.550   4.854
  102SAPE  C31110402   6.546   0.666   4.695
  102SAPE  H11X10403   6.622   0.586   4.684
  102SAPE  H11Y10404   6.600   0.763   4.690
  102SAPE  C31210405   6.450   0.663   4.577
  102SAPE  H12X10406   6.366   0.734   4.592
  102SAPE  H12Y10407   6.407   0.560   4.567
  102SAPE  C31310408   6.526   0.702   4.452
  102SAPE  H13X10409   6.631   0.668   4.462
  102SAPE  H13Y10410   6.529   0.813   4.443
  102SAPE  C31410411   6.468   0.641   4.326
  102SAPE  H14X10412   6.366   0.679   4.305
  102SAPE  H14Y10413   6.461   0.531   4.340
  102SAPE  C31510414   6.561   0.670   4.209
  102SAPE  H15X10415   6.665   0.648   4.243
  102SAPE  H15Y10416   6.560   0.778   4.185
  102SAPE  C31610417   6.529   0.586   4.086
  102SAPE  H16X10418   6.455   0.638   4.022
  102SAPE  H16Y10419   6.485   0.490   4.120
  102SAPE  C31710420   6.654   0.548   4.010
  102SAPE  H17X10421   6.715   0.639   3.991
  102SAPE  H17Y10422   6.623   0.507   3.911
  102SAPE  C31810423   6.737   0.444   4.085
  102SAPE  H18X10424   6.703   0.341   4.060
  102SAPE  H18Y10425   6.731   0.456   4.195
  102SAPE  H18Z10426   6.843   0.455   4.056
  103SAPE     N10427   2.903   4.328   2.322
  103SAPE   HN110428   2.830   4.361   2.389
  103SAPE   HN210429   2.934   4.233   2.352
  103SAPE   HN310430   2.986   4.391   2.325
  103SAPE   C1210431   2.844   4.324   2.184
  103SAPE  H12A10432   2.888   4.236   2.132
  103SAPE  H12B10433   2.875   4.416   2.131
  103SAPE   C1110434   2.691   4.317   2.192
  103SAPE  H11A10435   2.650   4.297   2.090
  103SAPE  H11B10436   2.652   4.417   2.221
  103SAPE     P10437   2.632   4.070   2.244
  103SAPE   O1310438   2.507   4.061   2.166
  103SAPE   O1410439   2.758   4.032   2.178
  103SAPE   O1210440   2.647   4.221   2.289
  103SAPE   O1110441   2.619   3.995   2.383
  103SAPE    C110442   2.718   4.023   2.483
  103SAPE    HA10443   2.819   3.994   2.448
  103SAPE    HB10444   2.717   4.130   2.510
  103SAPE    C210445   2.691   3.944   2.615
  103SAPE    HS10446   2.704   3.836   2.591
  103SAPE   O2110447   2.557   3.970   2.661
  103SAPE   C2110448   2.517   3.885   2.755
  103SAPE   O2210449   2.581   3.791   2.798
  103SAPE   C2210450   2.379   3.924   2.805
  103SAPE   H2R10451   2.354   4.024   2.764
  103SAPE   H2S10452   2.307   3.849   2.767
  103SAPE    C310453   2.797   3.983   2.724
  103SAPE    HX10454   2.893   3.943   2.687
  103SAPE    HY10455   2.777   3.928   2.818
  103SAPE   O3110456   2.809   4.126   2.746
  103SAPE   C3110457   2.738   4.172   2.849
  103SAPE   O3210458   2.665   4.106   2.920
  103SAPE   C3210459   2.763   4.322   2.867
  103SAPE   H2X10460   2.743   4.372   2.770
  103SAPE   H2Y10461   2.870   4.336   2.894
  103SAPE   C2310462   2.378   3.927   2.960
  103SAPE   H3R10463   2.460   3.991   2.998
  103SAPE   H3S10464   2.398   3.824   2.997
  103SAPE   C2410465   2.245   3.975   3.020
  103SAPE   H4R10466   2.252   3.962   3.130
  103SAPE   H4S10467   2.163   3.909   2.985
  103SAPE   C2510468   2.213   4.118   2.982
  103SAPE   H5R10469   2.192   4.132   2.875
  103SAPE   C2610470   2.210   4.225   3.063
  103SAPE   H6R10471   2.185   4.323   3.019
  103SAPE   C2710472   2.236   4.228   3.212
  103SAPE   H7R10473   2.232   4.126   3.256
  103SAPE   H7S10474   2.154   4.284   3.262
  103SAPE   C2810475   2.368   4.295   3.245
  103SAPE   H8R10476   2.392   4.384   3.184
  103SAPE   C2910477   2.456   4.255   3.338
  103SAPE   H9R10478   2.549   4.312   3.351
  103SAPE  C21010479   2.443   4.136   3.430
  103SAPE  H10R10480   2.546   4.104   3.458
  103SAPE  H10S10481   2.399   4.050   3.374
  103SAPE  C21110482   2.361   4.161   3.554
  103SAPE  H11R10483   2.287   4.242   3.547
  103SAPE  C21210484   2.372   4.092   3.670
  103SAPE  H12R10485   2.315   4.127   3.757
  103SAPE  C21310486   2.466   3.978   3.700
  103SAPE  H13R10487   2.525   4.007   3.789
  103SAPE  H13S10488   2.539   3.967   3.617
  103SAPE  C21410489   2.403   3.842   3.720
  103SAPE  H14R10490   2.302   3.828   3.677
  103SAPE  C21510491   2.464   3.739   3.781
  103SAPE  H15R10492   2.414   3.641   3.785
  103SAPE  C21610493   2.602   3.741   3.841
  103SAPE  H16R10494   2.649   3.840   3.820
  103SAPE  H16S10495   2.670   3.670   3.789
  103SAPE  C21710496   2.613   3.711   3.991
  103SAPE  H17R10497   2.721   3.711   4.017
  103SAPE  H17S10498   2.575   3.608   4.013
  103SAPE  C21810499   2.542   3.814   4.080
  103SAPE  H18R10500   2.540   3.913   4.029
  103SAPE  H18S10501   2.599   3.827   4.175
  103SAPE  C21910502   2.401   3.771   4.119
  103SAPE  H19R10503   2.408   3.675   4.174
  103SAPE  H19S10504   2.341   3.754   4.027
  103SAPE  C22010505   2.330   3.873   4.206
  103SAPE  H20R10506   2.320   3.970   4.154
  103SAPE  H20S10507   2.386   3.890   4.301
  103SAPE  H20T10508   2.229   3.834   4.231
  103SAPE   C3310509   2.672   4.381   2.978
  103SAPE   H3X10510   2.693   4.330   3.075
  103SAPE   H3Y10511   2.567   4.359   2.952
  103SAPE   C3410512   2.685   4.533   2.996
  103SAPE   H4X10513   2.599   4.568   3.058
  103SAPE   H4Y10514   2.676   4.582   2.897
  103SAPE   C3510515   2.814   4.581   3.064
  103SAPE   H5X10516   2.813   4.692   3.068
  103SAPE   H5Y10517   2.901   4.552   3.001
  103SAPE   C3610518   2.837   4.528   3.207
  103SAPE   H6X10519   2.930   4.575   3.246
  103SAPE   H6Y10520   2.854   4.419   3.204
  103SAPE   C3710521   2.723   4.558   3.305
  103SAPE   H7X10522   2.633   4.499   3.276
  103SAPE   H7Y10523   2.695   4.666   3.299
  103SAPE   C3810524   2.762   4.525   3.450
  103SAPE   H8X10525   2.840   4.598   3.482
  103SAPE   H8Y10526   2.807   4.424   3.453
  103SAPE   C3910527   2.646   4.530   3.550
  103SAPE   H9X10528   2.584   4.438   3.539
  103SAPE   H9Y10529   2.580   4.617   3.524
  103SAPE  C31010530   2.690   4.546   3.696
  103SAPE  H10X10531   2.601   4.536   3.762
  103SAPE  H10Y10532   2.731   4.648   3.711
  103SAPE  C31110533   2.798   4.444   3.738
  103SAPE  H11X10534   2.886   4.455   3.672
  103SAPE  H11Y10535   2.758   4.341   3.723
  103SAPE  C31210536   2.846   4.458   3.884
  103SAPE  H12X10537   2.882   4.562   3.902
  103SAPE  H12Y10538   2.933   4.390   3.894
  103SAPE  C31310539   2.737   4.422   3.986
  103SAPE  H13X10540   2.691   4.326   3.955
  103SAPE  H13Y10541   2.659   4.500   3.977
  103SAPE  C31410542   2.779   4.408   4.134
  103SAPE  H14X10543   2.714   4.331   4.180
  103SAPE  H14Y10544   2.759   4.504   4.187
  103SAPE  C31510545   2.926   4.371   4.155
  103SAPE  H15X10546   2.989   4.461   4.141
  103SAPE  H15Y10547   2.955   4.298   4.076
  103SAPE  C31610548   2.960   4.304   4.289
  103SAPE  H16X10549   2.891   4.219   4.307
  103SAPE  H16Y10550   2.948   4.375   4.373
  103SAPE  C31710551   3.105   4.251   4.283
  103SAPE  H17X10552   3.172   4.338   4.265
  103SAPE  H17Y10553   3.116   4.184   4.195
  103SAPE  C31810554   3.151   4.175   4.407
  103SAPE  H18X10555   3.262   4.164   4.406
  103SAPE  H18Y10556   3.106   4.074   4.409
  103SAPE  H18Z10557   3.122   4.230   4.499
  104SAPE     N10558   2.387   2.424   2.323
  104SAPE   HN110559   2.456   2.483   2.374
  104SAPE   HN210560   2.379   2.331   2.369
  104SAPE   HN310561   2.422   2.408   2.226
  104SAPE   C1210562   2.259   2.502   2.316
  104SAPE  H12A10563   2.232   2.533   2.419
  104SAPE  H12B10564   2.179   2.434   2.277
  104SAPE   C1110565   2.273   2.625   2.224
  104SAPE  H11A10566   2.180   2.684   2.236
  104SAPE  H11B10567   2.279   2.592   2.118
  104SAPE     P10568   2.404   2.846   2.182
  104SAPE   O1310569   2.537   2.904   2.212
  104SAPE   O1410570   2.371   2.824   2.040
  104SAPE   O1210571   2.388   2.704   2.256
  104SAPE   O1110572   2.288   2.936   2.241
  104SAPE    C110573   2.231   2.919   2.371
  104SAPE    HA10574   2.120   2.920   2.362
  104SAPE    HB10575   2.260   2.823   2.418
  104SAPE    C210576   2.269   3.031   2.472
  104SAPE    HS10577   2.215   3.123   2.440
  104SAPE   O2110578   2.412   3.051   2.470
  104SAPE   C2110579   2.450   3.174   2.501
  104SAPE   O2210580   2.376   3.269   2.520
  104SAPE   C2210581   2.602   3.179   2.507
  104SAPE   H2R10582   2.644   3.082   2.473
  104SAPE   H2S10583   2.635   3.259   2.437
  104SAPE    C310584   2.222   2.993   2.615
  104SAPE    HX10585   2.111   2.993   2.615
  104SAPE    HY10586   2.258   3.071   2.685
  104SAPE   O3110587   2.270   2.861   2.652
  104SAPE   C3110588   2.247   2.829   2.778
  104SAPE   O3210589   2.191   2.899   2.860
  104SAPE   C3210590   2.299   2.688   2.808
  104SAPE   H2X10591   2.220   2.616   2.775
  104SAPE   H2Y10592   2.310   2.679   2.918
  104SAPE   C2310593   2.652   3.212   2.649
  104SAPE   H3R10594   2.607   3.308   2.683
  104SAPE   H3S10595   2.762   3.229   2.645
  104SAPE   C2410596   2.625   3.100   2.750
  104SAPE   H4R10597   2.683   3.010   2.720
  104SAPE   H4S10598   2.518   3.072   2.745
  104SAPE   C2510599   2.665   3.143   2.889
  104SAPE   H5R10600   2.770   3.174   2.899
  104SAPE   C2610601   2.584   3.153   2.997
  104SAPE   H6R10602   2.629   3.185   3.092
  104SAPE   C2710603   2.436   3.126   3.004
  104SAPE   H7R10604   2.391   3.114   2.903
  104SAPE   H7S10605   2.387   3.217   3.045
  104SAPE   C2810606   2.396   3.007   3.088
  104SAPE   H8R10607   2.375   2.915   3.031
  104SAPE   C2910608   2.383   3.004   3.222
  104SAPE   H9R10609   2.351   2.911   3.271
  104SAPE  C21010610   2.408   3.121   3.314
  104SAPE  H10R10611   2.312   3.172   3.337
  104SAPE  H10S10612   2.471   3.197   3.262
  104SAPE  C21110613   2.478   3.076   3.439
  104SAPE  H11R10614   2.566   3.014   3.419
  104SAPE  C21210615   2.454   3.110   3.567
  104SAPE  H12R10616   2.518   3.066   3.645
  104SAPE  C21310617   2.350   3.206   3.621
  104SAPE  H13R10618   2.314   3.272   3.540
  104SAPE  H13S10619   2.401   3.275   3.692
  104SAPE  C21410620   2.232   3.141   3.688
  104SAPE  H14R10621   2.153   3.109   3.618
  104SAPE  C21510622   2.215   3.121   3.821
  104SAPE  H15R10623   2.122   3.076   3.857
  104SAPE  C21610624   2.313   3.158   3.929
  104SAPE  H16R10625   2.263   3.167   4.027
  104SAPE  H16S10626   2.357   3.258   3.907
  104SAPE  C21710627   2.426   3.054   3.936
  104SAPE  H17R10628   2.440   3.010   3.835
  104SAPE  H17S10629   2.398   2.970   4.004
  104SAPE  C21810630   2.561   3.114   3.974
  104SAPE  H18R10631   2.575   3.107   4.084
  104SAPE  H18S10632   2.564   3.222   3.946
  104SAPE  C21910633   2.678   3.047   3.900
  104SAPE  H19R10634   2.669   3.068   3.791
  104SAPE  H19S10635   2.671   2.937   3.913
  104SAPE  C22010636   2.813   3.098   3.950
  104SAPE  H20R10637   2.820   3.087   4.060
  104SAPE  H20S10638   2.823   3.206   3.925
  104SAPE  H20T10639   2.897   3.043   3.902
  104SAPE   C3310640   2.433   2.655   2.737
  104SAPE   H3X10641   2.421   2.671   2.627
  104SAPE   H3Y10642   2.457   2.548   2.752
  104SAPE   C3410643   2.550   2.740   2.788
  104SAPE   H4X10644   2.518   2.846   2.795
  104SAPE   H4Y10645   2.633   2.736   2.714
  104SAPE   C3510646   2.605   2.695   2.924
  104SAPE   H5X10647   2.652   2.595   2.914
  104SAPE   H5Y10648   2.521   2.686   2.996
  104SAPE   C3610649   2.707   2.795   2.979
  104SAPE   H6X10650   2.658   2.894   2.990
  104SAPE   H6Y10651   2.790   2.806   2.906
  104SAPE   C3710652   2.766   2.755   3.115
  104SAPE   H7X10653   2.852   2.821   3.138
  104SAPE   H7Y10654   2.804   2.651   3.108
  104SAPE   C3810655   2.666   2.765   3.232
  104SAPE   H8X10656   2.574   2.707   3.209
  104SAPE   H8Y10657   2.636   2.871   3.248
  104SAPE   C3910658   2.730   2.709   3.359
  104SAPE   H9X10659   2.810   2.777   3.396
  104SAPE   H9Y10660   2.779   2.615   3.324
  104SAPE  C31010661   2.636   2.668   3.474
  104SAPE  H10X10662   2.694   2.604   3.545
  104SAPE  H10Y10663   2.551   2.608   3.436
  104SAPE  C31110664   2.584   2.788   3.552
  104SAPE  H11X10665   2.501   2.830   3.492
  104SAPE  H11Y10666   2.665   2.863   3.561
  104SAPE  C31210667   2.531   2.756   3.691
  104SAPE  H12X10668   2.513   2.853   3.742
  104SAPE  H12Y10669   2.606   2.700   3.752
  104SAPE  C31310670   2.397   2.681   3.686
  104SAPE  H13X10671   2.418   2.572   3.674
  104SAPE  H13Y10672   2.340   2.714   3.597
  104SAPE  C31410673   2.309   2.704   3.810
  104SAPE  H14X10674   2.215   2.645   3.795
  104SAPE  H14Y10675   2.281   2.811   3.816
  104SAPE  C31510676   2.374   2.660   3.942
  104SAPE  H15X10677   2.460   2.725   3.966
  104SAPE  H15Y10678   2.411   2.556   3.929
  104SAPE  C31610679   2.273   2.657   4.057
  104SAPE  H16X10680   2.176   2.626   4.012
  104SAPE  H16Y10681   2.262   2.760   4.097
  104SAPE  C31710682   2.301   2.557   4.170
  104SAPE  H17X10683   2.404   2.571   4.209
  104SAPE  H17Y10684   2.297   2.455   4.128
  104SAPE  C31810685   2.201   2.568   4.285
  104SAPE  H18X10686   2.204   2.670   4.329
  104SAPE  H18Y10687   2.225   2.495   4.365
  104SAPE  H18Z10688   2.098   2.549   4.249
  105SAPE     N10689   5.491   2.966   2.034
  105SAPE   HN110690   5.550   2.911   1.968
  105SAPE   HN210691   5.395   2.970   1.994
  105SAPE   HN310692   5.531   3.062   2.043
  105SAPE   C1210693   5.480   2.897   2.167
  105SAPE  H12A10694   5.577   2.905   2.219
  105SAPE  H12B10695   5.458   2.790   2.146
  105SAPE   C1110696   5.365   2.956   2.250
  105SAPE  H11A10697   5.395   3.054   2.293
  105SAPE  H11B10698   5.346   2.887   2.335
  105SAPE     P10699   5.105   2.939   2.219
  105SAPE   O1310700   5.008   2.986   2.117
  105SAPE   O1410701   5.103   2.796   2.256
  105SAPE   O1210702   5.250   2.975   2.167
  105SAPE   O1110703   5.099   3.033   2.344
  105SAPE    C110704   5.022   2.994   2.457
  105SAPE    HA10705   4.917   2.972   2.429
  105SAPE    HB10706   5.065   2.904   2.506
  105SAPE    C210707   5.021   3.108   2.562
  105SAPE    HS10708   4.981   3.199   2.513
  105SAPE   O2110709   5.154   3.126   2.613
  105SAPE   C2110710   5.204   3.246   2.622
  105SAPE   O2210711   5.162   3.347   2.567
  105SAPE   C2210712   5.332   3.239   2.708
  105SAPE   H2R10713   5.324   3.150   2.774
  105SAPE   H2S10714   5.417   3.222   2.638
  105SAPE    C310715   4.926   3.068   2.678
  105SAPE    HX10716   4.829   3.040   2.632
  105SAPE    HY10717   4.903   3.153   2.745
  105SAPE   O3110718   4.979   2.955   2.750
  105SAPE   C3110719   5.063   2.986   2.848
  105SAPE   O3210720   5.083   3.098   2.892
  105SAPE   C3210721   5.132   2.860   2.897
  105SAPE   H2X10722   5.125   2.781   2.819
  105SAPE   H2Y10723   5.077   2.825   2.987
  105SAPE   C2310724   5.358   3.365   2.795
  105SAPE   H3R10725   5.295   3.450   2.761
  105SAPE   H3S10726   5.464   3.395   2.781
  105SAPE   C2410727   5.335   3.339   2.945
  105SAPE   H4R10728   5.400   3.255   2.979
  105SAPE   H4S10729   5.230   3.305   2.959
  105SAPE   C2510730   5.360   3.463   3.026
  105SAPE   H5R10731   5.367   3.555   2.966
  105SAPE   C2610732   5.374   3.471   3.159
  105SAPE   H6R10733   5.388   3.571   3.205
  105SAPE   C2710734   5.367   3.357   3.258
  105SAPE   H7R10735   5.413   3.391   3.353
  105SAPE   H7S10736   5.432   3.274   3.222
  105SAPE   C2810737   5.228   3.304   3.280
  105SAPE   H8R10738   5.176   3.268   3.190
  105SAPE   C2910739   5.163   3.298   3.398
  105SAPE   H9R10740   5.062   3.255   3.401
  105SAPE  C21010741   5.217   3.343   3.532
  105SAPE  H10R10742   5.132   3.348   3.603
  105SAPE  H10S10743   5.253   3.447   3.523
  105SAPE  C21110744   5.328   3.258   3.590
  105SAPE  H11R10745   5.382   3.193   3.519
  105SAPE  C21210746   5.361   3.255   3.721
  105SAPE  H12R10747   5.441   3.188   3.757
  105SAPE  C21310748   5.289   3.339   3.823
  105SAPE  H13R10749   5.181   3.313   3.816
  105SAPE  H13S10750   5.298   3.445   3.791
  105SAPE  C21410751   5.333   3.331   3.966
  105SAPE  H14R10752   5.442   3.327   3.981
  105SAPE  C21510753   5.254   3.332   4.075
  105SAPE  H15R10754   5.303   3.327   4.173
  105SAPE  C21610755   5.102   3.341   4.083
  105SAPE  H16R10756   5.057   3.356   3.983
  105SAPE  H16S10757   5.075   3.431   4.142
  105SAPE  C21710758   5.030   3.218   4.146
  105SAPE  H17R10759   5.037   3.134   4.074
  105SAPE  H17S10760   4.922   3.242   4.155
  105SAPE  C21810761   5.083   3.173   4.283
  105SAPE  H18R10762   5.065   3.250   4.361
  105SAPE  H18S10763   5.194   3.162   4.274
  105SAPE  C21910764   5.031   3.038   4.335
  105SAPE  H19R10765   5.116   2.990   4.388
  105SAPE  H19S10766   5.005   2.972   4.250
  105SAPE  C22010767   4.917   3.044   4.437
  105SAPE  H20R10768   4.940   3.120   4.515
  105SAPE  H20S10769   4.903   2.946   4.486
  105SAPE  H20T10770   4.822   3.073   4.388
  105SAPE   C3310771   5.280   2.886   2.933
  105SAPE   H3X10772   5.287   2.966   3.010
  105SAPE   H3Y10773   5.334   2.921   2.843
  105SAPE   C3410774   5.348   2.759   2.985
  105SAPE   H4X10775   5.454   2.783   3.010
  105SAPE   H4Y10776   5.348   2.683   2.904
  105SAPE   C3510777   5.284   2.697   3.110
  105SAPE   H5X10778   5.356   2.623   3.151
  105SAPE   H5Y10779   5.193   2.641   3.082
  105SAPE   C3610780   5.250   2.798   3.220
  105SAPE   H6X10781   5.155   2.850   3.193
  105SAPE   H6Y10782   5.329   2.876   3.227
  105SAPE   C3710783   5.234   2.729   3.355
  105SAPE   H7X10784   5.333   2.719   3.404
  105SAPE   H7Y10785   5.197   2.626   3.335
  105SAPE   C3810786   5.133   2.795   3.449
  105SAPE   H8X10787   5.122   2.730   3.538
  105SAPE   H8Y10788   5.034   2.798   3.397
  105SAPE   C3910789   5.170   2.938   3.494
  105SAPE   H9X10790   5.180   3.001   3.403
  105SAPE   H9Y10791   5.268   2.936   3.546
  105SAPE  C31010792   5.066   3.001   3.588
  105SAPE  H10X10793   4.966   2.995   3.539
  105SAPE  H10Y10794   5.088   3.109   3.602
  105SAPE  C31110795   5.061   2.935   3.727
  105SAPE  H11X10796   5.075   2.825   3.719
  105SAPE  H11Y10797   4.962   2.953   3.773
  105SAPE  C31210798   5.165   2.992   3.824
  105SAPE  H12X10799   5.141   3.099   3.843
  105SAPE  H12Y10800   5.265   2.987   3.777
  105SAPE  C31310801   5.167   2.916   3.957
  105SAPE  H13X10802   5.186   2.809   3.936
  105SAPE  H13Y10803   5.067   2.923   4.005
  105SAPE  C31410804   5.274   2.971   4.050
  105SAPE  H14X10805   5.245   3.074   4.081
  105SAPE  H14Y10806   5.371   2.981   3.997
  105SAPE  C31510807   5.293   2.885   4.175
  105SAPE  H15X10808   5.328   2.784   4.144
  105SAPE  H15Y10809   5.194   2.871   4.223
  105SAPE  C31610810   5.393   2.944   4.275
  105SAPE  H16X10811   5.376   3.053   4.287
  105SAPE  H16Y10812   5.495   2.931   4.233
  105SAPE  C31710813   5.383   2.877   4.413
  105SAPE  H17X10814   5.299   2.922   4.470
  105SAPE  H17Y10815   5.476   2.901   4.469
  105SAPE  C31810816   5.361   2.726   4.406
  105SAPE  H18X10817   5.372   2.681   4.507
  105SAPE  H18Y10818   5.435   2.680   4.337
  105SAPE  H18Z10819   5.260   2.702   4.368
  106SAPE     N10820   6.105   4.226   2.035
  106SAPE   HN110821   6.004   4.204   2.051
  106SAPE   HN210822   6.141   4.287   2.111
  106SAPE   HN310823   6.109   4.284   1.948
  106SAPE   C1210824   6.200   4.112   2.021
  106SAPE  H12A10825   6.172   4.051   1.932
  106SAPE  H12B10826   6.194   4.049   2.112
  106SAPE   C1110827   6.341   4.171   2.008
  106SAPE  H11A10828   6.352   4.208   1.904
  106SAPE  H11B10829   6.414   4.089   2.023
  106SAPE     P10830   6.405   4.244   2.247
  106SAPE   O1310831   6.295   4.164   2.302
  106SAPE   O1410832   6.540   4.186   2.235
  106SAPE   O1210833   6.362   4.280   2.098
  106SAPE   O1110834   6.412   4.382   2.321
  106SAPE    C110835   6.394   4.508   2.255
  106SAPE    HA10836   6.494   4.548   2.228
  106SAPE    HB10837   6.335   4.500   2.161
  106SAPE    C210838   6.320   4.612   2.345
  106SAPE    HS10839   6.348   4.714   2.311
  106SAPE   O2110840   6.351   4.598   2.484
  106SAPE   C2110841   6.476   4.587   2.517
  106SAPE   O2210842   6.574   4.613   2.448
  106SAPE   C2210843   6.483   4.525   2.657
  106SAPE   H2R10844   6.571   4.570   2.707
  106SAPE   H2S10845   6.392   4.553   2.714
  106SAPE    C310846   6.166   4.598   2.330
  106SAPE    HX10847   6.141   4.614   2.223
  106SAPE    HY10848   6.117   4.680   2.387
  106SAPE   O3110849   6.117   4.467   2.369
  106SAPE   C3110850   6.096   4.452   2.501
  106SAPE   O3210851   6.094   4.542   2.583
  106SAPE   C3210852   6.066   4.306   2.530
  106SAPE   H2X10853   6.125   4.243   2.460
  106SAPE   H2Y10854   5.957   4.290   2.511
  106SAPE   C2310855   6.497   4.371   2.650
  106SAPE   H3R10856   6.574   4.342   2.575
  106SAPE   H3S10857   6.400   4.329   2.613
  106SAPE   C2410858   6.531   4.305   2.785
  106SAPE   H4R10859   6.525   4.195   2.774
  106SAPE   H4S10860   6.451   4.332   2.857
  106SAPE   C2510861   6.668   4.344   2.834
  106SAPE   H5R10862   6.751   4.283   2.796
  106SAPE   C2610863   6.693   4.442   2.923
  106SAPE   H6R10864   6.797   4.461   2.954
  106SAPE   C2710865   6.590   4.530   2.991
  106SAPE   H7R10866   6.489   4.520   2.945
  106SAPE   H7S10867   6.617   4.637   2.977
  106SAPE   C2810868   6.582   4.495   3.137
  106SAPE   H8R10869   6.655   4.421   3.174
  106SAPE   C2910870   6.494   4.544   3.226
  106SAPE   H9R10871   6.499   4.509   3.330
  106SAPE  C21010872   6.385   4.644   3.202
  106SAPE  H10R10873   6.421   4.728   3.140
  106SAPE  H10S10874   6.361   4.687   3.301
  106SAPE  C21110875   6.259   4.587   3.140
  106SAPE  H11R10876   6.263   4.578   3.031
  106SAPE  C21210877   6.146   4.550   3.205
  106SAPE  H12R10878   6.064   4.510   3.144
  106SAPE  C21310879   6.117   4.557   3.353
  106SAPE  H13R10880   6.007   4.568   3.367
  106SAPE  H13S10881   6.160   4.650   3.394
  106SAPE  C21410882   6.163   4.436   3.431
  106SAPE  H14R10883   6.139   4.339   3.386
  106SAPE  C21510884   6.228   4.436   3.549
  106SAPE  H15R10885   6.256   4.340   3.595
  106SAPE  C21610886   6.268   4.558   3.629
  106SAPE  H16R10887   6.281   4.646   3.564
  106SAPE  H16S10888   6.367   4.540   3.676
  106SAPE  C21710889   6.169   4.594   3.741
  106SAPE  H17R10890   6.068   4.612   3.698
  106SAPE  H17S10891   6.202   4.689   3.788
  106SAPE  C21810892   6.160   4.486   3.850
  106SAPE  H18R10893   6.259   4.472   3.898
  106SAPE  H18S10894   6.131   4.390   3.803
  106SAPE  C21910895   6.056   4.519   3.957
  106SAPE  H19R10896   6.038   4.428   4.018
  106SAPE  H19S10897   5.959   4.538   3.907
  106SAPE  C22010898   6.093   4.638   4.048
  106SAPE  H20R10899   6.019   4.649   4.130
  106SAPE  H20S10900   6.095   4.733   3.990
  106SAPE  H20T10901   6.193   4.623   4.093
  106SAPE   C3310902   6.098   4.263   2.675
  106SAPE   H3X10903   6.197   4.303   2.704
  106SAPE   H3Y10904   6.105   4.152   2.677
  106SAPE   C3410905   5.990   4.305   2.776
  106SAPE   H4X10906   5.891   4.269   2.740
  106SAPE   H4Y10907   5.987   4.416   2.780
  106SAPE   C3510908   6.014   4.252   2.918
  106SAPE   H5X10909   6.004   4.141   2.917
  106SAPE   H5Y10910   5.935   4.291   2.986
  106SAPE   C3610911   6.151   4.290   2.972
  106SAPE   H6X10912   6.160   4.401   2.972
  106SAPE   H6Y10913   6.231   4.252   2.905
  106SAPE   C3710914   6.178   4.232   3.111
  106SAPE   H7X10915   6.148   4.125   3.109
  106SAPE   H7Y10916   6.111   4.280   3.186
  106SAPE   C3810917   6.325   4.244   3.153
  106SAPE   H8X10918   6.342   4.351   3.179
  106SAPE   H8Y10919   6.393   4.218   3.069
  106SAPE   C3910920   6.362   4.162   3.276
  106SAPE   H9X10921   6.389   4.059   3.244
  106SAPE   H9Y10922   6.273   4.157   3.343
  106SAPE  C31010923   6.479   4.212   3.360
  106SAPE  H10X10924   6.455   4.313   3.400
  106SAPE  H10Y10925   6.571   4.220   3.298
  106SAPE  C31110926   6.500   4.115   3.476
  106SAPE  H11X10927   6.531   4.015   3.439
  106SAPE  H11Y10928   6.403   4.103   3.529
  106SAPE  C31210929   6.602   4.169   3.575
  106SAPE  H12X10930   6.575   4.276   3.592
  106SAPE  H12Y10931   6.704   4.165   3.531
  106SAPE  C31310932   6.600   4.103   3.712
  106SAPE  H13X10933   6.687   4.147   3.765
  106SAPE  H13Y10934   6.615   3.993   3.704
  106SAPE  C31410935   6.479   4.136   3.798
  106SAPE  H14X10936   6.391   4.078   3.764
  106SAPE  H14Y10937   6.455   4.244   3.789
  106SAPE  C31510938   6.507   4.104   3.945
  106SAPE  H15X10939   6.601   4.154   3.978
  106SAPE  H15Y10940   6.524   3.995   3.954
  106SAPE  C31610941   6.393   4.147   4.038
  106SAPE  H16X10942   6.300   4.154   3.979
  106SAPE  H16Y10943   6.414   4.248   4.080
  106SAPE  C31710944   6.372   4.046   4.151
  106SAPE  H17X10945   6.374   3.944   4.107
  106SAPE  H17Y10946   6.271   4.058   4.197
  106SAPE  C31810947   6.477   4.057   4.259
  106SAPE  H18X10948   6.574   4.090   4.217
  106SAPE  H18Y10949   6.493   3.957   4.306
  106SAPE  H18Z10950   6.446   4.128   4.338
  107SAPE     N10951   1.014   3.373   2.163
  107SAPE   HN110952   0.959   3.363   2.251
  107SAPE   HN210953   1.107   3.414   2.185
  107SAPE   HN310954   0.964   3.438   2.100
  107SAPE   C1210955   1.037   3.234   2.112
  107SAPE  H12A10956   1.121   3.191   2.171
  107SAPE  H12B10957   1.068   3.239   2.005
  107SAPE   C1110958   0.912   3.147   2.131
  107SAPE  H11A10959   0.945   3.042   2.145
  107SAPE  H11B10960   0.853   3.151   2.037
  107SAPE     P10961   0.693   3.123   2.267
  107SAPE   O1310962   0.626   3.173   2.388
  107SAPE   O1410963   0.618   3.135   2.139
  107SAPE   O1210964   0.834   3.192   2.243
  107SAPE   O1110965   0.733   2.973   2.288
  107SAPE    C110966   0.711   2.874   2.188
  107SAPE    HA10967   0.603   2.869   2.160
  107SAPE    HB10968   0.768   2.896   2.095
  107SAPE    C210969   0.754   2.734   2.240
  107SAPE    HS10970   0.711   2.655   2.175
  107SAPE   O2110971   0.714   2.710   2.376
  107SAPE   C2110972   0.604   2.761   2.423
  107SAPE   O2210973   0.501   2.783   2.360
  107SAPE   C2210974   0.624   2.793   2.571
  107SAPE   H2R10975   0.729   2.768   2.598
  107SAPE   H2S10976   0.609   2.902   2.586
  107SAPE    C310977   0.909   2.721   2.232
  107SAPE    HX10978   0.938   2.747   2.128
  107SAPE    HY10979   0.939   2.615   2.247
  107SAPE   O3110980   0.976   2.813   2.322
  107SAPE   C3110981   0.982   2.766   2.447
  107SAPE   O3210982   0.970   2.648   2.475
  107SAPE   C3210983   0.996   2.880   2.547
  107SAPE   H2X10984   0.915   2.952   2.521
  107SAPE   H2Y10985   1.094   2.929   2.529
  107SAPE   C2310986   0.531   2.709   2.658
  107SAPE   H3R10987   0.545   2.604   2.626
  107SAPE   H3S10988   0.424   2.736   2.644
  107SAPE   C2410989   0.569   2.709   2.806
  107SAPE   H4R10990   0.679   2.690   2.813
  107SAPE   H4S10991   0.520   2.622   2.855
  107SAPE   C2510992   0.531   2.833   2.883
  107SAPE   H5R10993   0.481   2.913   2.827
  107SAPE   C2610994   0.557   2.847   3.013
  107SAPE   H6R10995   0.526   2.939   3.066
  107SAPE   C2710996   0.629   2.742   3.094
  107SAPE   H7R10997   0.698   2.689   3.026
  107SAPE   H7S10998   0.555   2.666   3.127
  107SAPE   C2810999   0.718   2.776   3.211
  107SAPE   H8R11000   0.799   2.702   3.223
  107SAPE   C2911001   0.716   2.878   3.298
  107SAPE   H9R11002   0.790   2.873   3.379
  107SAPE  C21011003   0.625   2.997   3.311
  107SAPE  H10R11004   0.606   3.047   3.214
  107SAPE  H10S11005   0.675   3.074   3.374
  107SAPE  C21111006   0.498   2.950   3.373
  107SAPE  H11R11007   0.428   2.903   3.303
  107SAPE  C21211008   0.468   2.953   3.504
  107SAPE  H12R11009   0.377   2.902   3.538
  107SAPE  C21311010   0.556   3.003   3.615
  107SAPE  H13R11011   0.654   3.041   3.579
  107SAPE  H13S11012   0.581   2.914   3.677
  107SAPE  C21411013   0.486   3.108   3.697
  107SAPE  H14R11014   0.454   3.198   3.642
  107SAPE  C21511015   0.457   3.096   3.827
  107SAPE  H15R11016   0.404   3.178   3.880
  107SAPE  C21611017   0.491   2.975   3.910
  107SAPE  H16R11018   0.492   3.003   4.018
  107SAPE  H16S11019   0.594   2.940   3.887
  107SAPE  C21711020   0.394   2.856   3.889
  107SAPE  H17R11021   0.453   2.770   3.850
  107SAPE  H17S11022   0.317   2.878   3.811
  107SAPE  C21811023   0.325   2.804   4.016
  107SAPE  H18R11024   0.262   2.716   3.992
  107SAPE  H18S11025   0.257   2.884   4.052
  107SAPE  C21911026   0.425   2.769   4.127
  107SAPE  H19R11027   0.527   2.803   4.098
  107SAPE  H19S11028   0.430   2.659   4.139
  107SAPE  C22011029   0.393   2.836   4.259
  107SAPE  H20R11030   0.486   2.877   4.303
  107SAPE  H20S11031   0.349   2.762   4.329
  107SAPE  H20T11032   0.322   2.921   4.246
  107SAPE   C3311033   0.986   2.832   2.694
  107SAPE   H3X11034   1.088   2.826   2.738
  107SAPE   H3Y11035   0.949   2.727   2.701
  107SAPE   C3411036   0.897   2.914   2.790
  107SAPE   H4X11037   0.954   2.920   2.885
  107SAPE   H4Y11038   0.806   2.855   2.812
  107SAPE   C3511039   0.852   3.054   2.745
  107SAPE   H5X11040   0.780   3.042   2.662
  107SAPE   H5Y11041   0.937   3.109   2.700
  107SAPE   C3611042   0.784   3.142   2.854
  107SAPE   H6X11043   0.679   3.152   2.821
  107SAPE   H6Y11044   0.827   3.244   2.851
  107SAPE   C3711045   0.779   3.091   3.000
  107SAPE   H7X11046   0.790   2.981   3.009
  107SAPE   H7Y11047   0.676   3.115   3.033
  107SAPE   C3811048   0.872   3.161   3.101
  107SAPE   H8X11049   0.815   3.182   3.194
  107SAPE   H8Y11050   0.901   3.259   3.058
  107SAPE   C3911051   0.997   3.080   3.138
  107SAPE   H9X11052   1.086   3.145   3.125
  107SAPE   H9Y11053   1.009   2.994   3.068
  107SAPE  C31011054   1.003   3.027   3.283
  107SAPE  H10X11055   0.902   3.032   3.328
  107SAPE  H10Y11056   1.060   3.097   3.348
  107SAPE  C31111057   1.065   2.887   3.290
  107SAPE  H11X11058   1.156   2.888   3.226
  107SAPE  H11Y11059   0.995   2.814   3.244
  107SAPE  C31211060   1.110   2.836   3.428
  107SAPE  H12X11061   1.197   2.895   3.463
  107SAPE  H12Y11062   1.144   2.731   3.412
  107SAPE  C31311063   1.005   2.829   3.541
  107SAPE  H13X11064   1.050   2.765   3.620
  107SAPE  H13Y11065   0.913   2.776   3.507
  107SAPE  C31411066   0.973   2.964   3.604
  107SAPE  H14X11067   0.905   3.024   3.540
  107SAPE  H14Y11068   1.068   3.021   3.613
  107SAPE  C31511069   0.913   2.950   3.744
  107SAPE  H15X11070   0.978   2.879   3.799
  107SAPE  H15Y11071   0.811   2.905   3.738
  107SAPE  C31611072   0.908   3.081   3.822
  107SAPE  H16X11073   0.804   3.121   3.826
  107SAPE  H16Y11074   0.969   3.156   3.767
  107SAPE  C31711075   0.966   3.069   3.963
  107SAPE  H17X11076   1.023   3.163   3.981
  107SAPE  H17Y11077   1.041   2.986   3.967
  107SAPE  C31811078   0.864   3.052   4.075
  107SAPE  H18X11079   0.796   2.966   4.055
  107SAPE  H18Y11080   0.802   3.144   4.085
  107SAPE  H18Z11081   0.916   3.035   4.172
  108SAPE     N11082   0.590   3.567   1.873
  108SAPE   HN111083   0.643   3.478   1.876
  108SAPE   HN211084   0.491   3.543   1.851
  108SAPE   HN311085   0.629   3.624   1.795
  108SAPE   C1211086   0.606   3.639   2.004
  108SAPE  H12A11087   0.707   3.686   2.002
  108SAPE  H12B11088   0.601   3.564   2.085
  108SAPE   C1111089   0.501   3.751   2.026
  108SAPE  H11A11090   0.406   3.705   2.059
  108SAPE  H11B11091   0.484   3.802   1.929
  108SAPE     P11092   0.598   3.802   2.262
  108SAPE   O1311093   0.509   3.692   2.303
  108SAPE   O1411094   0.742   3.772   2.244
  108SAPE   O1211095   0.544   3.850   2.120
  108SAPE   O1111096   0.573   3.934   2.348
  108SAPE    C111097   0.440   3.962   2.395
  108SAPE    HA11098   0.388   4.026   2.321
  108SAPE    HB11099   0.380   3.869   2.411
  108SAPE    C211100   0.441   4.034   2.532
  108SAPE    HS11101   0.520   4.111   2.525
  108SAPE   O2111102   0.487   3.932   2.628
  108SAPE   C2111103   0.524   3.972   2.751
  108SAPE   O2211104   0.493   4.080   2.798
  108SAPE   C2211105   0.610   3.870   2.830
  108SAPE   H2R11106   0.698   3.849   2.766
  108SAPE   H2S11107   0.645   3.923   2.921
  108SAPE    C311108   0.303   4.119   2.558
  108SAPE    HX11109   0.303   4.199   2.481
  108SAPE    HY11110   0.328   4.165   2.656
  108SAPE   O3111111   0.167   4.059   2.565
  108SAPE   C3111112   0.066   4.122   2.635
  108SAPE   O3211113   0.070   4.235   2.677
  108SAPE   C3211114  -0.066   4.047   2.650
  108SAPE   H2X11115  -0.046   3.938   2.638
  108SAPE   H2Y11116  -0.126   4.081   2.562
  108SAPE   C2311117   0.548   3.734   2.878
  108SAPE   H3R11118   0.632   3.666   2.905
  108SAPE   H3S11119   0.497   3.687   2.791
  108SAPE   C2411120   0.456   3.740   3.004
  108SAPE   H4R11121   0.417   3.843   3.011
  108SAPE   H4S11122   0.517   3.724   3.095
  108SAPE   C2511123   0.338   3.644   2.996
  108SAPE   H5R11124   0.294   3.638   2.895
  108SAPE   C2611125   0.284   3.561   3.087
  108SAPE   H6R11126   0.193   3.506   3.059
  108SAPE   C2711127   0.323   3.536   3.230
  108SAPE   H7R11128   0.230   3.511   3.286
  108SAPE   H7S11129   0.364   3.629   3.276
  108SAPE   C2811130   0.416   3.419   3.242
  108SAPE   H8R11131   0.368   3.321   3.232
  108SAPE   C2911132   0.549   3.423   3.264
  108SAPE   H9R11133   0.604   3.328   3.271
  108SAPE  C21011134   0.632   3.548   3.280
  108SAPE  H10R11135   0.569   3.639   3.282
  108SAPE  H10S11136   0.697   3.560   3.191
  108SAPE  C21111137   0.717   3.547   3.405
  108SAPE  H11R11138   0.822   3.517   3.390
  108SAPE  C21211139   0.675   3.577   3.528
  108SAPE  H12R11140   0.747   3.574   3.612
  108SAPE  C21311141   0.533   3.616   3.562
  108SAPE  H13R11142   0.474   3.523   3.546
  108SAPE  H13S11143   0.491   3.689   3.489
  108SAPE  C21411144   0.516   3.663   3.704
  108SAPE  H14R11145   0.571   3.602   3.777
  108SAPE  C21511146   0.442   3.765   3.755
  108SAPE  H15R11147   0.453   3.778   3.864
  108SAPE  C21611148   0.351   3.869   3.692
  108SAPE  H16R11149   0.338   3.837   3.586
  108SAPE  H16S11150   0.400   3.969   3.690
  108SAPE  C21711151   0.202   3.892   3.736
  108SAPE  H17R11152   0.156   3.793   3.756
  108SAPE  H17S11153   0.148   3.936   3.649
  108SAPE  C21811154   0.165   3.984   3.854
  108SAPE  H18R11155   0.171   4.090   3.819
  108SAPE  H18S11156   0.236   3.975   3.938
  108SAPE  C21911157   0.021   3.957   3.902
  108SAPE  H19R11158  -0.009   3.854   3.873
  108SAPE  H19S11159  -0.048   4.026   3.850
  108SAPE  C22011160  -0.004   3.970   4.052
  108SAPE  H20R11161   0.022   3.877   4.106
  108SAPE  H20S11162  -0.112   3.990   4.072
  108SAPE  H20T11163   0.054   4.054   4.096
  108SAPE   C3311164  -0.162   4.067   2.775
  108SAPE   H3X11165  -0.264   4.065   2.732
  108SAPE   H3Y11166  -0.156   4.169   2.818
  108SAPE   C3411167  -0.165   3.954   2.883
  108SAPE   H4X11168  -0.110   3.863   2.850
  108SAPE   H4Y11169  -0.271   3.923   2.885
  108SAPE   C3511170  -0.132   3.986   3.032
  108SAPE   H5X11171  -0.093   4.091   3.034
  108SAPE   H5Y11172  -0.227   3.998   3.087
  108SAPE   C3611173  -0.038   3.891   3.113
  108SAPE   H6X11174   0.018   3.818   3.051
  108SAPE   H6Y11175  -0.119   3.828   3.157
  108SAPE   C3711176   0.046   3.942   3.237
  108SAPE   H7X11177   0.046   3.870   3.321
  108SAPE   H7Y11178  -0.013   4.024   3.284
  108SAPE   C3811179   0.200   3.971   3.230
  108SAPE   H8X11180   0.220   4.078   3.209
  108SAPE   H8Y11181   0.249   3.909   3.152
  108SAPE   C3911182   0.286   3.943   3.355
  108SAPE   H9X11183   0.308   3.835   3.360
  108SAPE   H9Y11184   0.230   3.972   3.447
  108SAPE  C31011185   0.418   4.025   3.351
  108SAPE  H10X11186   0.397   4.124   3.397
  108SAPE  H10Y11187   0.446   4.043   3.245
  108SAPE  C31111188   0.540   3.962   3.420
  108SAPE  H11X11189   0.597   3.900   3.347
  108SAPE  H11Y11190   0.509   3.893   3.501
  108SAPE  C31211191   0.631   4.067   3.485
  108SAPE  H12X11192   0.572   4.132   3.553
  108SAPE  H12Y11193   0.670   4.131   3.403
  108SAPE  C31311194   0.752   4.009   3.561
  108SAPE  H13X11195   0.826   4.091   3.572
  108SAPE  H13Y11196   0.797   3.930   3.497
  108SAPE  C31411197   0.725   3.949   3.700
  108SAPE  H14X11198   0.818   3.904   3.741
  108SAPE  H14Y11199   0.657   3.863   3.681
  108SAPE  C31511200   0.663   4.042   3.807
  108SAPE  H15X11201   0.572   4.090   3.768
  108SAPE  H15Y11202   0.737   4.123   3.828
  108SAPE  C31611203   0.627   3.973   3.941
  108SAPE  H16X11204   0.688   3.881   3.955
  108SAPE  H16Y11205   0.520   3.944   3.938
  108SAPE  C31711206   0.642   4.064   4.064
  108SAPE  H17X11207   0.579   4.153   4.045
  108SAPE  H17Y11208   0.749   4.096   4.071
  108SAPE  C31811209   0.601   4.006   4.199
  108SAPE  H18X11210   0.590   3.896   4.194
  108SAPE  H18Y11211   0.505   4.051   4.232
  108SAPE  H18Z11212   0.676   4.030   4.278
  109SAPE     N11213   5.601   1.038   2.225
  109SAPE   HN111214   5.580   1.136   2.255
  109SAPE   HN211215   5.513   0.984   2.231
  109SAPE   HN311216   5.677   1.004   2.287
  109SAPE   C1211217   5.644   1.063   2.083
  109SAPE  H12A11218   5.599   0.985   2.017
  109SAPE  H12B11219   5.755   1.057   2.080
  109SAPE   C1111220   5.597   1.204   2.044
  109SAPE  H11A11221   5.496   1.195   1.999
  109SAPE  H11B11222   5.663   1.246   1.965
  109SAPE     P11223   5.718   1.357   2.216
  109SAPE   O1311224   5.818   1.248   2.223
  109SAPE   O1411225   5.744   1.477   2.134
  109SAPE   O1211226   5.587   1.290   2.158
  109SAPE   O1111227   5.664   1.390   2.360
  109SAPE    C111228   5.539   1.458   2.374
  109SAPE    HA11229   5.540   1.553   2.317
  109SAPE    HB11230   5.456   1.396   2.333
  109SAPE    C211231   5.507   1.485   2.523
  109SAPE    HS11232   5.421   1.555   2.531
  109SAPE   O2111233   5.620   1.542   2.593
  109SAPE   C2111234   5.676   1.654   2.545
  109SAPE   O2211235   5.630   1.721   2.454
  109SAPE   C2211236   5.791   1.701   2.638
  109SAPE   H2R11237   5.777   1.811   2.644
  109SAPE   H2S11238   5.770   1.664   2.741
  109SAPE    C311239   5.463   1.349   2.589
  109SAPE    HX11240   5.531   1.272   2.547
  109SAPE    HY11241   5.361   1.321   2.555
  109SAPE   O3111242   5.476   1.345   2.732
  109SAPE   C3111243   5.372   1.348   2.811
  109SAPE   O3211244   5.255   1.346   2.775
  109SAPE   C3211245   5.422   1.356   2.956
  109SAPE   H2X11246   5.497   1.438   2.961
  109SAPE   H2Y11247   5.475   1.261   2.980
  109SAPE   C2311248   5.943   1.680   2.598
  109SAPE   H3R11249   6.004   1.744   2.664
  109SAPE   H3S11250   5.950   1.722   2.495
  109SAPE   C2411251   6.016   1.539   2.595
  109SAPE   H4R11252   6.076   1.557   2.503
  109SAPE   H4S11253   5.948   1.461   2.553
  109SAPE   C2511254   6.125   1.483   2.689
  109SAPE   H5R11255   6.219   1.521   2.647
  109SAPE   C2611256   6.151   1.401   2.798
  109SAPE   H6R11257   6.259   1.402   2.817
  109SAPE   C2711258   6.093   1.307   2.909
  109SAPE   H7R11259   6.082   1.368   3.001
  109SAPE   H7S11260   6.189   1.255   2.931
  109SAPE   C2811261   6.007   1.180   2.924
  109SAPE   H8R11262   6.036   1.111   2.844
  109SAPE   C2911263   5.907   1.131   3.008
  109SAPE   H9R11264   5.870   1.033   2.977
  109SAPE  C21011265   5.824   1.171   3.132
  109SAPE  H10R11266   5.717   1.160   3.103
  109SAPE  H10S11267   5.828   1.279   3.159
  109SAPE  C21111268   5.842   1.089   3.259
  109SAPE  H11R11269   5.867   0.984   3.241
  109SAPE  C21211270   5.838   1.132   3.388
  109SAPE  H12R11271   5.862   1.058   3.466
  109SAPE  C21311272   5.816   1.271   3.444
  109SAPE  H13R11273   5.859   1.345   3.374
  109SAPE  H13S11274   5.878   1.283   3.536
  109SAPE  C21411275   5.676   1.318   3.476
  109SAPE  H14R11276   5.657   1.420   3.440
  109SAPE  C21511277   5.576   1.255   3.541
  109SAPE  H15R11278   5.481   1.309   3.555
  109SAPE  C21611279   5.577   1.116   3.599
  109SAPE  H16R11280   5.644   1.049   3.541
  109SAPE  H16S11281   5.475   1.073   3.591
  109SAPE  C21711282   5.620   1.106   3.748
  109SAPE  H17R11283   5.616   0.999   3.778
  109SAPE  H17S11284   5.545   1.160   3.810
  109SAPE  C21811285   5.761   1.160   3.775
  109SAPE  H18R11286   5.759   1.270   3.761
  109SAPE  H18S11287   5.832   1.119   3.700
  109SAPE  C21911288   5.816   1.129   3.915
  109SAPE  H19R11289   5.871   1.033   3.912
  109SAPE  H19S11290   5.732   1.116   3.987
  109SAPE  C22011291   5.908   1.241   3.966
  109SAPE  H20R11292   5.953   1.214   4.064
  109SAPE  H20S11293   5.851   1.336   3.979
  109SAPE  H20T11294   5.989   1.261   3.893
  109SAPE   C3311295   5.309   1.382   3.058
  109SAPE   H3X11296   5.238   1.296   3.057
  109SAPE   H3Y11297   5.253   1.472   3.027
  109SAPE   C3411298   5.358   1.403   3.202
  109SAPE   H4X11299   5.406   1.310   3.241
  109SAPE   H4Y11300   5.268   1.421   3.265
  109SAPE   C3511301   5.454   1.521   3.222
  109SAPE   H5X11302   5.440   1.596   3.142
  109SAPE   H5Y11303   5.558   1.483   3.214
  109SAPE   C3611304   5.433   1.590   3.358
  109SAPE   H6X11305   5.406   1.512   3.432
  109SAPE   H6Y11306   5.348   1.661   3.349
  109SAPE   C3711307   5.555   1.666   3.410
  109SAPE   H7X11308   5.548   1.774   3.385
  109SAPE   H7Y11309   5.644   1.626   3.356
  109SAPE   C3811310   5.581   1.649   3.560
  109SAPE   H8X11311   5.691   1.640   3.578
  109SAPE   H8Y11312   5.536   1.553   3.594
  109SAPE   C3911313   5.530   1.766   3.645
  109SAPE   H9X11314   5.426   1.789   3.613
  109SAPE   H9Y11315   5.590   1.856   3.623
  109SAPE  C31011316   5.533   1.736   3.796
  109SAPE  H10X11317   5.501   1.828   3.850
  109SAPE  H10Y11318   5.637   1.713   3.828
  109SAPE  C31111319   5.439   1.620   3.833
  109SAPE  H11X11320   5.488   1.524   3.807
  109SAPE  H11Y11321   5.348   1.627   3.771
  109SAPE  C31211322   5.394   1.616   3.979
  109SAPE  H12X11323   5.397   1.715   4.031
  109SAPE  H12Y11324   5.474   1.565   4.036
  109SAPE  C31311325   5.259   1.548   3.998
  109SAPE  H13X11326   5.255   1.454   3.938
  109SAPE  H13Y11327   5.183   1.615   3.953
  109SAPE  C31411328   5.219   1.523   4.145
  109SAPE  H14X11329   5.111   1.547   4.152
  109SAPE  H14Y11330   5.272   1.596   4.210
  109SAPE  C31511331   5.239   1.381   4.203
  109SAPE  H15X11332   5.174   1.373   4.293
  109SAPE  H15Y11333   5.343   1.369   4.240
  109SAPE  C31611334   5.208   1.261   4.111
  109SAPE  H16X11335   5.274   1.262   4.022
  109SAPE  H16Y11336   5.103   1.269   4.076
  109SAPE  C31711337   5.228   1.126   4.182
  109SAPE  H17X11338   5.163   1.050   4.133
  109SAPE  H17Y11339   5.193   1.136   4.287
  109SAPE  C31811340   5.371   1.073   4.181
  109SAPE  H18X11341   5.441   1.147   4.227
  109SAPE  H18Y11342   5.404   1.053   4.077
  109SAPE  H18Z11343   5.378   0.979   4.240
  110SAPE     N11344   3.596   7.033   2.312
  110SAPE   HN111345   3.610   7.110   2.243
  110SAPE   HN211346   3.538   7.068   2.391
  110SAPE   HN311347   3.690   7.008   2.348
  110SAPE   C1211348   3.528   6.920   2.237
  110SAPE  H12A11349   3.556   6.823   2.282
  110SAPE  H12B11350   3.564   6.923   2.132
  110SAPE   C1111351   3.376   6.934   2.244
  110SAPE  H11A11352   3.351   7.042   2.238
  110SAPE  H11B11353   3.345   6.893   2.342
  110SAPE     P11354   3.179   6.916   2.073
  110SAPE   O1311355   3.226   6.993   1.956
  110SAPE   O1411356   3.082   6.808   2.047
  110SAPE   O1211357   3.309   6.858   2.144
  110SAPE   O1111358   3.122   7.018   2.180
  110SAPE    C111359   3.074   6.978   2.309
  110SAPE    HA11360   2.963   6.976   2.306
  110SAPE    HB11361   3.108   6.876   2.338
  110SAPE    C211362   3.116   7.076   2.423
  110SAPE    HS11363   3.105   7.179   2.382
  110SAPE   O2111364   3.252   7.053   2.461
  110SAPE   C2111365   3.300   7.114   2.568
  110SAPE   O2211366   3.267   7.221   2.612
  110SAPE   C2211367   3.404   7.020   2.627
  110SAPE   H2R11368   3.380   6.917   2.594
  110SAPE   H2S11369   3.505   7.049   2.589
  110SAPE    C311370   3.022   7.057   2.543
  110SAPE    HX11371   3.049   7.124   2.627
  110SAPE    HY11372   2.922   7.092   2.508
  110SAPE   O3111373   3.016   6.917   2.577
  110SAPE   C3111374   3.060   6.881   2.697
  110SAPE   O3211375   3.095   6.957   2.786
  110SAPE   C3211376   3.065   6.729   2.706
  110SAPE   H2X11377   3.139   6.691   2.632
  110SAPE   H2Y11378   2.964   6.692   2.675
  110SAPE   C2311379   3.401   7.024   2.780
  110SAPE   H3R11380   3.431   6.923   2.817
  110SAPE   H3S11381   3.301   7.047   2.820
  110SAPE   C2411382   3.499   7.126   2.836
  110SAPE   H4R11383   3.464   7.229   2.811
  110SAPE   H4S11384   3.598   7.110   2.788
  110SAPE   C2511385   3.510   7.105   2.983
  110SAPE   H5R11386   3.595   7.043   3.015
  110SAPE   C2611387   3.428   7.154   3.077
  110SAPE   H6R11388   3.456   7.134   3.181
  110SAPE   C2711389   3.305   7.240   3.063
  110SAPE   H7R11390   3.263   7.239   2.960
  110SAPE   H7S11391   3.329   7.346   3.088
  110SAPE   C2811392   3.212   7.178   3.163
  110SAPE   H8R11393   3.163   7.086   3.127
  110SAPE   C2911394   3.184   7.219   3.288
  110SAPE   H9R11395   3.122   7.154   3.350
  110SAPE  C21011396   3.237   7.340   3.361
  110SAPE  H10R11397   3.147   7.390   3.403
  110SAPE  H10S11398   3.283   7.412   3.291
  110SAPE  C21111399   3.334   7.311   3.472
  110SAPE  H11R11400   3.438   7.305   3.439
  110SAPE  C21211401   3.306   7.291   3.602
  110SAPE  H12R11402   3.391   7.277   3.671
  110SAPE  C21311403   3.172   7.292   3.671
  110SAPE  H13R11404   3.092   7.327   3.603
  110SAPE  H13S11405   3.174   7.366   3.754
  110SAPE  C21411406   3.136   7.158   3.724
  110SAPE  H14R11407   3.136   7.077   3.650
  110SAPE  C21511408   3.105   7.128   3.851
  110SAPE  H15R11409   3.089   7.021   3.872
  110SAPE  C21611410   3.098   7.216   3.974
  110SAPE  H16R11411   3.132   7.320   3.957
  110SAPE  H16S11412   3.163   7.175   4.055
  110SAPE  C21711413   2.953   7.221   4.026
  110SAPE  H17R11414   2.897   7.130   3.996
  110SAPE  H17S11415   2.906   7.308   3.975
  110SAPE  C21811416   2.931   7.237   4.177
  110SAPE  H18R11417   2.979   7.330   4.214
  110SAPE  H18S11418   2.976   7.151   4.231
  110SAPE  C21911419   2.780   7.241   4.203
  110SAPE  H19R11420   2.735   7.148   4.163
  110SAPE  H19S11421   2.736   7.325   4.145
  110SAPE  C22011422   2.739   7.257   4.348
  110SAPE  H20R11423   2.629   7.274   4.357
  110SAPE  H20S11424   2.791   7.343   4.396
  110SAPE  H20T11425   2.763   7.164   4.404
  110SAPE   C3311426   3.099   6.680   2.848
  110SAPE   H3X11427   3.062   6.577   2.861
  110SAPE   H3Y11428   3.050   6.743   2.926
  110SAPE   C3411429   3.251   6.679   2.867
  110SAPE   H4X11430   3.291   6.779   2.841
  110SAPE   H4Y11431   3.294   6.606   2.795
  110SAPE   C3511432   3.296   6.644   3.009
  110SAPE   H5X11433   3.405   6.621   3.005
  110SAPE   H5Y11434   3.244   6.554   3.047
  110SAPE   C3611435   3.276   6.758   3.110
  110SAPE   H6X11436   3.181   6.744   3.165
  110SAPE   H6Y11437   3.270   6.855   3.056
  110SAPE   C3711438   3.394   6.766   3.207
  110SAPE   H7X11439   3.485   6.785   3.146
  110SAPE   H7Y11440   3.409   6.669   3.260
  110SAPE   C3811441   3.378   6.878   3.309
  110SAPE   H8X11442   3.318   6.843   3.395
  110SAPE   H8Y11443   3.321   6.960   3.261
  110SAPE   C3911444   3.513   6.935   3.355
  110SAPE   H9X11445   3.517   7.044   3.338
  110SAPE   H9Y11446   3.595   6.889   3.297
  110SAPE  C31011447   3.536   6.917   3.505
  110SAPE  H10X11448   3.644   6.936   3.524
  110SAPE  H10Y11449   3.510   6.814   3.537
  110SAPE  C31111450   3.461   7.022   3.584
  110SAPE  H11X11451   3.354   7.022   3.555
  110SAPE  H11Y11452   3.506   7.119   3.554
  110SAPE  C31211453   3.475   7.008   3.734
  110SAPE  H12X11454   3.448   7.106   3.779
  110SAPE  H12Y11455   3.581   6.987   3.763
  110SAPE  C31311456   3.382   6.904   3.795
  110SAPE  H13X11457   3.425   6.803   3.778
  110SAPE  H13Y11458   3.282   6.906   3.745
  110SAPE  C31411459   3.364   6.932   3.944
  110SAPE  H14X11460   3.290   7.012   3.965
  110SAPE  H14Y11461   3.460   6.974   3.981
  110SAPE  C31511462   3.329   6.809   4.025
  110SAPE  H15X11463   3.366   6.822   4.129
  110SAPE  H15Y11464   3.383   6.724   3.979
  110SAPE  C31611465   3.180   6.779   4.030
  110SAPE  H16X11466   3.164   6.678   4.073
  110SAPE  H16Y11467   3.139   6.777   3.927
  110SAPE  C31711468   3.099   6.875   4.118
  110SAPE  H17X11469   3.002   6.824   4.135
  110SAPE  H17Y11470   3.076   6.969   4.061
  110SAPE  C31811471   3.155   6.917   4.252
  110SAPE  H18X11472   3.233   6.994   4.235
  110SAPE  H18Y11473   3.199   6.830   4.306
  110SAPE  H18Z11474   3.076   6.963   4.315
  111SAPE     N11475   1.971   0.565   2.087
  111SAPE   HN111476   2.010   0.657   2.058
  111SAPE   HN211477   1.917   0.522   2.010
  111SAPE   HN311478   1.909   0.582   2.169
  111SAPE   C1211479   2.082   0.475   2.134
  111SAPE  H12A11480   2.163   0.479   2.058
  111SAPE  H12B11481   2.043   0.371   2.141
  111SAPE   C1111482   2.135   0.522   2.271
  111SAPE  H11A11483   2.230   0.469   2.293
  111SAPE  H11B11484   2.064   0.490   2.350
  111SAPE     P11485   2.272   0.739   2.213
  111SAPE   O1311486   2.323   0.655   2.101
  111SAPE   O1411487   2.224   0.874   2.176
  111SAPE   O1211488   2.148   0.664   2.276
  111SAPE   O1111489   2.378   0.743   2.330
  111SAPE    C111490   2.468   0.632   2.337
  111SAPE    HA11491   2.413   0.536   2.350
  111SAPE    HB11492   2.527   0.624   2.244
  111SAPE    C211493   2.574   0.640   2.450
  111SAPE    HS11494   2.650   0.562   2.426
  111SAPE   O2111495   2.515   0.610   2.579
  111SAPE   C2111496   2.505   0.478   2.600
  111SAPE   O2211497   2.513   0.393   2.513
  111SAPE   C2211498   2.488   0.447   2.747
  111SAPE   H2R11499   2.576   0.386   2.776
  111SAPE   H2S11500   2.489   0.541   2.807
  111SAPE    C311501   2.651   0.776   2.454
  111SAPE    HX11502   2.688   0.795   2.351
  111SAPE    HY11503   2.741   0.764   2.518
  111SAPE   O3111504   2.568   0.885   2.494
  111SAPE   C3111505   2.559   0.897   2.626
  111SAPE   O3211506   2.646   0.868   2.706
  111SAPE   C3211507   2.421   0.949   2.662
  111SAPE   H2X11508   2.367   0.980   2.571
  111SAPE   H2Y11509   2.437   1.037   2.728
  111SAPE   C2311510   2.359   0.365   2.771
  111SAPE   H3R11511   2.364   0.325   2.875
  111SAPE   H3S11512   2.355   0.278   2.702
  111SAPE   C2411513   2.234   0.452   2.755
  111SAPE   H4R11514   2.218   0.474   2.647
  111SAPE   H4S11515   2.253   0.550   2.804
  111SAPE   C2511516   2.113   0.383   2.813
  111SAPE   H5R11517   2.083   0.292   2.760
  111SAPE   C2611518   2.044   0.420   2.923
  111SAPE   H6R11519   1.957   0.360   2.953
  111SAPE   C2711520   2.070   0.539   3.013
  111SAPE   H7R11521   1.979   0.602   3.019
  111SAPE   H7S11522   2.148   0.605   2.971
  111SAPE   C2811523   2.103   0.502   3.155
  111SAPE   H8R11524   2.018   0.484   3.222
  111SAPE   C2911525   2.228   0.494   3.203
  111SAPE   H9R11526   2.242   0.471   3.309
  111SAPE  C21011527   2.354   0.519   3.123
  111SAPE  H10R11528   2.371   0.628   3.115
  111SAPE  H10S11529   2.342   0.482   3.019
  111SAPE  C21111530   2.473   0.452   3.187
  111SAPE  H11R11531   2.508   0.360   3.138
  111SAPE  C21211532   2.532   0.495   3.299
  111SAPE  H12R11533   2.614   0.435   3.343
  111SAPE  C21311534   2.489   0.617   3.376
  111SAPE  H13R11535   2.392   0.594   3.425
  111SAPE  H13S11536   2.470   0.700   3.305
  111SAPE  C21411537   2.588   0.665   3.479
  111SAPE  H14R11538   2.686   0.694   3.438
  111SAPE  C21511539   2.567   0.680   3.611
  111SAPE  H15R11540   2.649   0.718   3.673
  111SAPE  C21611541   2.438   0.653   3.685
  111SAPE  H16R11542   2.358   0.707   3.631
  111SAPE  H16S11543   2.442   0.699   3.786
  111SAPE  C21711544   2.386   0.507   3.697
  111SAPE  H17R11545   2.408   0.451   3.603
  111SAPE  H17S11546   2.275   0.513   3.703
  111SAPE  C21811547   2.432   0.423   3.818
  111SAPE  H18R11548   2.528   0.375   3.790
  111SAPE  H18S11549   2.358   0.341   3.830
  111SAPE  C21911550   2.446   0.497   3.952
  111SAPE  H19R11551   2.355   0.558   3.968
  111SAPE  H19S11552   2.532   0.567   3.947
  111SAPE  C22011553   2.461   0.409   4.077
  111SAPE  H20R11554   2.377   0.337   4.085
  111SAPE  H20S11555   2.462   0.472   4.169
  111SAPE  H20T11556   2.557   0.352   4.075
  111SAPE   C3311557   2.343   0.837   2.736
  111SAPE   H3X11558   2.399   0.808   2.828
  111SAPE   H3Y11559   2.336   0.747   2.671
  111SAPE   C3411560   2.201   0.879   2.774
  111SAPE   H4X11561   2.158   0.803   2.843
  111SAPE   H4Y11562   2.139   0.880   2.682
  111SAPE   C3511563   2.195   1.018   2.838
  111SAPE   H5X11564   2.089   1.038   2.865
  111SAPE   H5Y11565   2.225   1.095   2.764
  111SAPE   C3611566   2.278   1.035   2.966
  111SAPE   H6X11567   2.282   1.144   2.990
  111SAPE   H6Y11568   2.382   1.001   2.952
  111SAPE   C3711569   2.214   0.962   3.085
  111SAPE   H7X11570   2.220   0.852   3.069
  111SAPE   H7Y11571   2.107   0.990   3.089
  111SAPE   C3811572   2.278   1.001   3.219
  111SAPE   H8X11573   2.287   1.111   3.223
  111SAPE   H8Y11574   2.381   0.959   3.225
  111SAPE   C3911575   2.193   0.953   3.337
  111SAPE   H9X11576   2.086   0.974   3.316
  111SAPE   H9Y11577   2.223   1.010   3.428
  111SAPE  C31011578   2.212   0.805   3.366
  111SAPE  H10X11579   2.309   0.794   3.418
  111SAPE  H10Y11580   2.218   0.750   3.270
  111SAPE  C31111581   2.102   0.741   3.452
  111SAPE  H11X11582   2.129   0.634   3.467
  111SAPE  H11Y11583   2.005   0.743   3.398
  111SAPE  C31211584   2.088   0.808   3.590
  111SAPE  H12X11585   2.032   0.903   3.581
  111SAPE  H12Y11586   2.190   0.833   3.625
  111SAPE  C31311587   2.020   0.716   3.692
  111SAPE  H13X11588   2.065   0.614   3.686
  111SAPE  H13Y11589   1.913   0.704   3.664
  111SAPE  C31411590   2.033   0.765   3.838
  111SAPE  H14X11591   1.964   0.707   3.902
  111SAPE  H14Y11592   2.005   0.872   3.844
  111SAPE  C31511593   2.177   0.744   3.888
  111SAPE  H15X11594   2.246   0.807   3.827
  111SAPE  H15Y11595   2.202   0.638   3.869
  111SAPE  C31611596   2.204   0.777   4.036
  111SAPE  H16X11597   2.165   0.878   4.061
  111SAPE  H16Y11598   2.314   0.779   4.049
  111SAPE  C31711599   2.150   0.672   4.135
  111SAPE  H17X11600   2.175   0.571   4.098
  111SAPE  H17Y11601   2.039   0.679   4.137
  111SAPE  C31811602   2.207   0.690   4.276
  111SAPE  H18X11603   2.163   0.615   4.345
  111SAPE  H18Y11604   2.184   0.791   4.315
  111SAPE  H18Z11605   2.317   0.676   4.275
  112SAPE     N11606   6.514   5.394   2.007
  112SAPE   HN111607   6.464   5.412   1.918
  112SAPE   HN211608   6.473   5.309   2.049
  112SAPE   HN311609   6.490   5.468   2.077
  112SAPE   C1211610   6.663   5.384   2.000
  112SAPE  H12A11611   6.701   5.468   1.938
  112SAPE  H12B11612   6.687   5.287   1.951
  112SAPE   C1111613   6.726   5.391   2.140
  112SAPE  H11A11614   6.834   5.364   2.132
  112SAPE  H11B11615   6.681   5.314   2.207
  112SAPE     P11616   6.603   5.561   2.296
  112SAPE   O1311617   6.623   5.697   2.346
  112SAPE   O1411618   6.475   5.535   2.225
  112SAPE   O1211619   6.717   5.525   2.191
  112SAPE   O1111620   6.627   5.451   2.406
  112SAPE    C111621   6.522   5.395   2.483
  112SAPE    HA11622   6.426   5.389   2.426
  112SAPE    HB11623   6.549   5.291   2.511
  112SAPE    C211624   6.500   5.475   2.613
  112SAPE    HS11625   6.505   5.583   2.588
  112SAPE   O2111626   6.603   5.436   2.705
  112SAPE   C2111627   6.631   5.518   2.803
  112SAPE   O2211628   6.589   5.631   2.818
  112SAPE   C2211629   6.723   5.445   2.900
  112SAPE   H2R11630   6.752   5.349   2.851
  112SAPE   H2S11631   6.814   5.507   2.917
  112SAPE    C311632   6.360   5.446   2.674
  112SAPE    HX11633   6.366   5.350   2.730
  112SAPE    HY11634   6.286   5.431   2.592
  112SAPE   O3111635   6.318   5.560   2.752
  112SAPE   C3111636   6.295   5.538   2.880
  112SAPE   O3211637   6.280   5.428   2.931
  112SAPE   C3211638   6.295   5.672   2.954
  112SAPE   H2X11639   6.266   5.751   2.882
  112SAPE   H2Y11640   6.400   5.692   2.984
  112SAPE   C2311641   6.656   5.407   3.034
  112SAPE   H3R11642   6.553   5.372   3.013
  112SAPE   H3S11643   6.649   5.496   3.100
  112SAPE   C2411644   6.729   5.291   3.105
  112SAPE   H4R11645   6.730   5.205   3.034
  112SAPE   H4S11646   6.667   5.256   3.191
  112SAPE   C2511647   6.868   5.321   3.152
  112SAPE   H5R11648   6.947   5.296   3.079
  112SAPE   C2611649   6.903   5.377   3.270
  112SAPE   H6R11650   7.009   5.395   3.293
  112SAPE   C2711651   6.803   5.418   3.374
  112SAPE   H7R11652   6.727   5.338   3.385
  112SAPE   H7S11653   6.750   5.507   3.333
  112SAPE   C2811654   6.851   5.462   3.510
  112SAPE   H8R11655   6.899   5.560   3.512
  112SAPE   C2911656   6.840   5.395   3.626
  112SAPE   H9R11657   6.880   5.442   3.717
  112SAPE  C21011658   6.780   5.258   3.646
  112SAPE  H10R11659   6.868   5.198   3.675
  112SAPE  H10S11660   6.745   5.214   3.550
  112SAPE  C21111661   6.678   5.226   3.751
  112SAPE  H11R11662   6.583   5.183   3.715
  112SAPE  C21211663   6.698   5.237   3.883
  112SAPE  H12R11664   6.619   5.207   3.954
  112SAPE  C21311665   6.825   5.285   3.947
  112SAPE  H13R11666   6.913   5.281   3.879
  112SAPE  H13S11667   6.850   5.220   4.033
  112SAPE  C21411668   6.797   5.428   3.985
  112SAPE  H14R11669   6.773   5.495   3.901
  112SAPE  C21511670   6.797   5.479   4.108
  112SAPE  H15R11671   6.765   5.583   4.122
  112SAPE  C21611672   6.826   5.403   4.235
  112SAPE  H16R11673   6.750   5.323   4.250
  112SAPE  H16S11674   6.815   5.474   4.320
  112SAPE  C21711675   6.965   5.342   4.246
  112SAPE  H17R11676   7.043   5.404   4.198
  112SAPE  H17S11677   6.966   5.242   4.197
  112SAPE  C21811678   7.000   5.322   4.393
  112SAPE  H18R11679   7.061   5.230   4.401
  112SAPE  H18S11680   6.906   5.307   4.451
  112SAPE  C21911681   7.079   5.435   4.456
  112SAPE  H19R11682   7.038   5.457   4.557
  112SAPE  H19S11683   7.063   5.525   4.393
  112SAPE  C22011684   7.228   5.403   4.468
  112SAPE  H20R11685   7.288   5.491   4.501
  112SAPE  H20S11686   7.268   5.367   4.371
  112SAPE  H20T11687   7.243   5.324   4.545
  112SAPE   C3311688   6.201   5.676   3.076
  112SAPE   H3X11689   6.153   5.576   3.091
  112SAPE   H3Y11690   6.119   5.748   3.055
  112SAPE   C3411691   6.265   5.718   3.209
  112SAPE   H4X11692   6.189   5.709   3.290
  112SAPE   H4Y11693   6.292   5.826   3.203
  112SAPE   C3511694   6.386   5.635   3.250
  112SAPE   H5X11695   6.423   5.670   3.348
  112SAPE   H5Y11696   6.470   5.649   3.177
  112SAPE   C3611697   6.351   5.487   3.258
  112SAPE   H6X11698   6.324   5.450   3.157
  112SAPE   H6Y11699   6.263   5.471   3.324
  112SAPE   C3711700   6.469   5.403   3.304
  112SAPE   H7X11701   6.561   5.464   3.292
  112SAPE   H7Y11702   6.477   5.314   3.238
  112SAPE   C3811703   6.454   5.354   3.446
  112SAPE   H8X11704   6.537   5.285   3.474
  112SAPE   H8Y11705   6.360   5.295   3.447
  112SAPE   C3911706   6.439   5.463   3.551
  112SAPE   H9X11707   6.375   5.547   3.517
  112SAPE   H9Y11708   6.538   5.502   3.580
  112SAPE  C31011709   6.368   5.396   3.667
  112SAPE  H10X11710   6.418   5.299   3.685
  112SAPE  H10Y11711   6.263   5.372   3.640
  112SAPE  C31111712   6.371   5.472   3.798
  112SAPE  H11X11713   6.295   5.553   3.795
  112SAPE  H11Y11714   6.471   5.518   3.815
  112SAPE  C31211715   6.342   5.368   3.905
  112SAPE  H12X11716   6.436   5.312   3.922
  112SAPE  H12Y11717   6.264   5.300   3.865
  112SAPE  C31311718   6.292   5.423   4.036
  112SAPE  H13X11719   6.221   5.353   4.085
  112SAPE  H13Y11720   6.237   5.517   4.016
  112SAPE  C31411721   6.405   5.450   4.132
  112SAPE  H14X11722   6.496   5.479   4.076
  112SAPE  H14Y11723   6.428   5.360   4.193
  112SAPE  C31511724   6.361   5.568   4.217
  112SAPE  H15X11725   6.321   5.646   4.149
  112SAPE  H15Y11726   6.449   5.615   4.265
  112SAPE  C31611727   6.246   5.538   4.314
  112SAPE  H16X11728   6.285   5.500   4.411
  112SAPE  H16Y11729   6.177   5.462   4.272
  112SAPE  C31711730   6.166   5.665   4.335
  112SAPE  H17X11731   6.095   5.650   4.420
  112SAPE  H17Y11732   6.105   5.685   4.245
  112SAPE  C31811733   6.253   5.786   4.361
  112SAPE  H18X11734   6.209   5.873   4.308
  112SAPE  H18Y11735   6.358   5.781   4.327
  112SAPE  H18Z11736   6.258   5.805   4.470
  113SAPE     N11737   0.438   4.364   2.222
  113SAPE   HN111738   0.495   4.278   2.210
  113SAPE   HN211739   0.338   4.335   2.226
  113SAPE   HN311740   0.445   4.420   2.135
  113SAPE   C1211741   0.483   4.450   2.339
  113SAPE  H12A11742   0.593   4.460   2.331
  113SAPE  H12B11743   0.458   4.395   2.432
  113SAPE   C1111744   0.421   4.593   2.343
  113SAPE  H11A11745   0.466   4.645   2.430
  113SAPE  H11B11746   0.312   4.592   2.365
  113SAPE     P11747   0.358   4.657   2.095
  113SAPE   O1311748   0.350   4.788   2.028
  113SAPE   O1411749   0.416   4.543   2.022
  113SAPE   O1211750   0.447   4.670   2.226
  113SAPE   O1111751   0.217   4.609   2.147
  113SAPE    C111752   0.095   4.675   2.110
  113SAPE    HA11753   0.108   4.742   2.022
  113SAPE    HB11754   0.018   4.600   2.082
  113SAPE    C211755   0.038   4.764   2.224
  113SAPE    HS11756  -0.021   4.845   2.177
  113SAPE   O2111757   0.150   4.818   2.297
  113SAPE   C2111758   0.126   4.910   2.387
  113SAPE   O2211759   0.019   4.965   2.406
  113SAPE   C2211760   0.256   4.940   2.459
  113SAPE   H2R11761   0.232   4.978   2.560
  113SAPE   H2S11762   0.313   4.845   2.467
  113SAPE    C311763  -0.060   4.689   2.317
  113SAPE    HX11764  -0.133   4.633   2.254
  113SAPE    HY11765  -0.118   4.765   2.375
  113SAPE   O3111766   0.014   4.609   2.409
  113SAPE   C3111767   0.017   4.479   2.386
  113SAPE   O3211768  -0.069   4.415   2.328
  113SAPE   C3211769   0.140   4.423   2.457
  113SAPE   H2X11770   0.223   4.417   2.383
  113SAPE   H2Y11771   0.113   4.317   2.477
  113SAPE   C2311772   0.344   5.041   2.380
  113SAPE   H3R11773   0.291   5.139   2.374
  113SAPE   H3S11774   0.360   5.003   2.277
  113SAPE   C2411775   0.483   5.061   2.443
  113SAPE   H4R11776   0.542   5.132   2.380
  113SAPE   H4S11777   0.536   4.964   2.441
  113SAPE   C2511778   0.468   5.117   2.581
  113SAPE   H5R11779   0.422   5.216   2.588
  113SAPE   C2611780   0.502   5.054   2.695
  113SAPE   H6R11781   0.479   5.104   2.791
  113SAPE   C2711782   0.561   4.917   2.712
  113SAPE   H7R11783   0.631   4.913   2.799
  113SAPE   H7S11784   0.617   4.880   2.623
  113SAPE   C2811785   0.435   4.841   2.735
  113SAPE   H8R11786   0.390   4.797   2.644
  113SAPE   C2911787   0.377   4.817   2.853
  113SAPE   H9R11788   0.280   4.766   2.852
  113SAPE  C21011789   0.429   4.858   2.988
  113SAPE  H10R11790   0.482   4.955   2.982
  113SAPE  H10S11791   0.504   4.783   3.020
  113SAPE  C21111792   0.319   4.860   3.091
  113SAPE  H11R11793   0.229   4.802   3.068
  113SAPE  C21211794   0.328   4.918   3.211
  113SAPE  H12R11795   0.242   4.913   3.280
  113SAPE  C21311796   0.449   4.989   3.265
  113SAPE  H13R11797   0.422   5.095   3.283
  113SAPE  H13S11798   0.527   4.997   3.186
  113SAPE  C21411799   0.517   4.932   3.387
  113SAPE  H14R11800   0.627   4.936   3.376
  113SAPE  C21511801   0.471   4.879   3.501
  113SAPE  H15R11802   0.547   4.849   3.575
  113SAPE  C21611803   0.334   4.852   3.557
  113SAPE  H16R11804   0.337   4.741   3.569
  113SAPE  H16S11805   0.252   4.877   3.486
  113SAPE  C21711806   0.296   4.902   3.698
  113SAPE  H17R11807   0.237   4.995   3.683
  113SAPE  H17S11808   0.387   4.927   3.757
  113SAPE  C21811809   0.209   4.810   3.785
  113SAPE  H18R11810   0.274   4.757   3.859
  113SAPE  H18S11811   0.162   4.732   3.722
  113SAPE  C21911812   0.099   4.887   3.859
  113SAPE  H19R11813   0.001   4.843   3.830
  113SAPE  H19S11814   0.096   4.993   3.826
  113SAPE  C22011815   0.110   4.886   4.012
  113SAPE  H20R11816   0.026   4.941   4.059
  113SAPE  H20S11817   0.205   4.933   4.045
  113SAPE  H20T11818   0.108   4.781   4.048
  113SAPE   C3311819   0.175   4.507   2.584
  113SAPE   H3X11820   0.075   4.516   2.630
  113SAPE   H3Y11821   0.211   4.609   2.561
  113SAPE   C3411822   0.253   4.445   2.702
  113SAPE   H4X11823   0.263   4.335   2.689
  113SAPE   H4Y11824   0.191   4.460   2.793
  113SAPE   C3511825   0.394   4.490   2.738
  113SAPE   H5X11826   0.417   4.583   2.683
  113SAPE   H5Y11827   0.466   4.414   2.704
  113SAPE   C3611828   0.412   4.515   2.890
  113SAPE   H6X11829   0.337   4.591   2.920
  113SAPE   H6Y11830   0.514   4.554   2.909
  113SAPE   C3711831   0.375   4.410   2.996
  113SAPE   H7X11832   0.416   4.309   2.972
  113SAPE   H7Y11833   0.265   4.403   2.996
  113SAPE   C3811834   0.415   4.457   3.137
  113SAPE   H8X11835   0.493   4.388   3.177
  113SAPE   H8Y11836   0.460   4.558   3.129
  113SAPE   C3911837   0.302   4.466   3.240
  113SAPE   H9X11838   0.292   4.367   3.292
  113SAPE   H9Y11839   0.207   4.487   3.187
  113SAPE  C31011840   0.314   4.577   3.345
  113SAPE  H10X11841   0.304   4.673   3.290
  113SAPE  H10Y11842   0.414   4.577   3.393
  113SAPE  C31111843   0.204   4.572   3.452
  113SAPE  H11X11844   0.111   4.524   3.414
  113SAPE  H11Y11845   0.169   4.675   3.475
  113SAPE  C31211846   0.241   4.502   3.582
  113SAPE  H12X11847   0.147   4.486   3.637
  113SAPE  H12Y11848   0.304   4.568   3.645
  113SAPE  C31311849   0.319   4.370   3.569
  113SAPE  H13X11850   0.403   4.380   3.497
  113SAPE  H13Y11851   0.252   4.290   3.532
  113SAPE  C31411852   0.376   4.333   3.706
  113SAPE  H14X11853   0.457   4.404   3.734
  113SAPE  H14Y11854   0.419   4.231   3.703
  113SAPE  C31511855   0.266   4.342   3.812
  113SAPE  H15X11856   0.179   4.285   3.774
  113SAPE  H15Y11857   0.233   4.447   3.826
  113SAPE  C31611858   0.306   4.293   3.950
  113SAPE  H16X11859   0.385   4.359   3.991
  113SAPE  H16Y11860   0.345   4.190   3.945
  113SAPE  C31711861   0.183   4.300   4.039
  113SAPE  H17X11862   0.101   4.241   3.993
  113SAPE  H17Y11863   0.147   4.405   4.046
  113SAPE  C31811864   0.211   4.247   4.178
  113SAPE  H18X11865   0.249   4.142   4.172
  113SAPE  H18Y11866   0.118   4.247   4.239
  113SAPE  H18Z11867   0.289   4.308   4.229
  114SAPE     N11868   2.585   6.923   2.060
  114SAPE   HN111869   2.602   6.882   1.966
  114SAPE   HN211870   2.570   6.844   2.124
  114SAPE   HN311871   2.498   6.980   2.054
  114SAPE   C1211872   2.701   7.012   2.099
  114SAPE  H12A11873   2.744   7.054   2.005
  114SAPE  H12B11874   2.778   6.949   2.149
  114SAPE   C1111875   2.655   7.128   2.190
  114SAPE  H11A11876   2.741   7.195   2.209
  114SAPE  H11B11877   2.623   7.085   2.287
  114SAPE     P11878   2.441   7.283   2.206
  114SAPE   O1311879   2.489   7.421   2.227
  114SAPE   O1411880   2.316   7.270   2.127
  114SAPE   O1211881   2.550   7.201   2.125
  114SAPE   O1111882   2.426   7.199   2.340
  114SAPE    C111883   2.325   7.096   2.336
  114SAPE    HA11884   2.225   7.142   2.326
  114SAPE    HB11885   2.340   7.027   2.250
  114SAPE    C211886   2.317   7.005   2.462
  114SAPE    HS11887   2.214   6.963   2.466
  114SAPE   O2111888   2.343   7.075   2.583
  114SAPE   C2111889   2.300   7.195   2.609
  114SAPE   O2211890   2.209   7.254   2.554
  114SAPE   C2211891   2.386   7.245   2.725
  114SAPE   H2R11892   2.406   7.160   2.794
  114SAPE   H2S11893   2.482   7.277   2.679
  114SAPE    C311894   2.418   6.885   2.456
  114SAPE    HX11895   2.410   6.837   2.357
  114SAPE    HY11896   2.388   6.808   2.530
  114SAPE   O3111897   2.554   6.929   2.478
  114SAPE   C3111898   2.581   6.946   2.608
  114SAPE   O3211899   2.520   6.898   2.701
  114SAPE   C3211900   2.700   7.038   2.620
  114SAPE   H2X11901   2.704   7.104   2.530
  114SAPE   H2Y11902   2.788   6.970   2.622
  114SAPE   C2311903   2.329   7.362   2.806
  114SAPE   H3R11904   2.258   7.419   2.742
  114SAPE   H3S11905   2.413   7.431   2.831
  114SAPE   C2411906   2.266   7.318   2.939
  114SAPE   H4R11907   2.345   7.293   3.013
  114SAPE   H4S11908   2.205   7.226   2.923
  114SAPE   C2511909   2.177   7.430   2.985
  114SAPE   H5R11910   2.105   7.463   2.908
  114SAPE   C2611911   2.173   7.491   3.104
  114SAPE   H6R11912   2.102   7.574   3.116
  114SAPE   C2711913   2.258   7.461   3.224
  114SAPE   H7R11914   2.365   7.482   3.199
  114SAPE   H7S11915   2.252   7.353   3.248
  114SAPE   C2811916   2.216   7.543   3.344
  114SAPE   H8R11917   2.113   7.581   3.343
  114SAPE   C2911918   2.294   7.571   3.450
  114SAPE   H9R11919   2.252   7.631   3.533
  114SAPE  C21011920   2.436   7.525   3.470
  114SAPE  H10R11921   2.468   7.551   3.573
  114SAPE  H10S11922   2.503   7.583   3.403
  114SAPE  C21111923   2.463   7.378   3.446
  114SAPE  H11R11924   2.543   7.357   3.374
  114SAPE  C21211925   2.398   7.274   3.502
  114SAPE  H12R11926   2.431   7.172   3.473
  114SAPE  C21311927   2.284   7.278   3.601
  114SAPE  H13R11928   2.249   7.381   3.619
  114SAPE  H13S11929   2.319   7.244   3.701
  114SAPE  C21411930   2.167   7.192   3.562
  114SAPE  H14R11931   2.073   7.248   3.556
  114SAPE  C21511932   2.166   7.059   3.539
  114SAPE  H15R11933   2.070   7.009   3.520
  114SAPE  C21611934   2.280   6.962   3.547
  114SAPE  H16R11935   2.350   6.974   3.462
  114SAPE  H16S11936   2.239   6.859   3.540
  114SAPE  C21711937   2.356   6.969   3.681
  114SAPE  H17R11938   2.419   7.060   3.687
  114SAPE  H17S11939   2.426   6.883   3.681
  114SAPE  C21811940   2.260   6.965   3.801
  114SAPE  H18R11941   2.175   6.898   3.775
  114SAPE  H18S11942   2.218   7.067   3.819
  114SAPE  C21911943   2.322   6.913   3.930
  114SAPE  H19R11944   2.247   6.917   4.012
  114SAPE  H19S11945   2.404   6.980   3.963
  114SAPE  C22011946   2.369   6.769   3.914
  114SAPE  H20R11947   2.382   6.738   3.808
  114SAPE  H20S11948   2.291   6.702   3.958
  114SAPE  H20T11949   2.464   6.751   3.967
  114SAPE   C3311950   2.700   7.125   2.747
  114SAPE   H3X11951   2.609   7.110   2.809
  114SAPE   H3Y11952   2.704   7.233   2.718
  114SAPE   C3411953   2.820   7.094   2.835
  114SAPE   H4X11954   2.914   7.110   2.778
  114SAPE   H4Y11955   2.815   6.987   2.865
  114SAPE   C3511956   2.828   7.182   2.958
  114SAPE   H5X11957   2.732   7.236   2.974
  114SAPE   H5Y11958   2.909   7.256   2.944
  114SAPE   C3611959   2.860   7.098   3.081
  114SAPE   H6X11960   2.959   7.050   3.068
  114SAPE   H6Y11961   2.784   7.018   3.089
  114SAPE   C3711962   2.856   7.180   3.208
  114SAPE   H7X11963   2.759   7.233   3.215
  114SAPE   H7Y11964   2.935   7.258   3.207
  114SAPE   C3811965   2.871   7.087   3.327
  114SAPE   H8X11966   2.961   7.023   3.318
  114SAPE   H8Y11967   2.783   7.019   3.325
  114SAPE   C3911968   2.873   7.165   3.458
  114SAPE   H9X11969   2.826   7.263   3.439
  114SAPE   H9Y11970   2.977   7.186   3.492
  114SAPE  C31011971   2.795   7.094   3.568
  114SAPE  H10X11972   2.864   7.044   3.639
  114SAPE  H10Y11973   2.730   7.016   3.523
  114SAPE  C31111974   2.705   7.194   3.637
  114SAPE  H11X11975   2.629   7.139   3.698
  114SAPE  H11Y11976   2.649   7.250   3.559
  114SAPE  C31211977   2.781   7.296   3.721
  114SAPE  H12X11978   2.812   7.381   3.657
  114SAPE  H12Y11979   2.874   7.248   3.760
  114SAPE  C31311980   2.700   7.345   3.841
  114SAPE  H13X11981   2.754   7.432   3.885
  114SAPE  H13Y11982   2.697   7.265   3.918
  114SAPE  C31411983   2.557   7.388   3.811
  114SAPE  H14X11984   2.501   7.304   3.766
  114SAPE  H14Y11985   2.562   7.473   3.739
  114SAPE  C31511986   2.486   7.434   3.938
  114SAPE  H15X11987   2.394   7.490   3.911
  114SAPE  H15Y11988   2.555   7.502   3.993
  114SAPE  C31611989   2.445   7.320   4.032
  114SAPE  H16X11990   2.531   7.253   4.054
  114SAPE  H16Y11991   2.367   7.258   3.983
  114SAPE  C31711992   2.392   7.376   4.164
  114SAPE  H17X11993   2.310   7.448   4.141
  114SAPE  H17Y11994   2.473   7.432   4.215
  114SAPE  C31811995   2.338   7.268   4.257
  114SAPE  H18X11996   2.286   7.317   4.342
  114SAPE  H18Y11997   2.419   7.204   4.296
  114SAPE  H18Z11998   2.265   7.204   4.203
  115SAPE     N11999   0.090   5.821   2.299
  115SAPE   HN112000   0.115   5.913   2.257
  115SAPE   HN212001   0.115   5.822   2.400
  115SAPE   HN312002   0.146   5.749   2.250
  115SAPE   C1212003  -0.057   5.795   2.274
  115SAPE  H12A12004  -0.113   5.822   2.366
  115SAPE  H12B12005  -0.071   5.687   2.254
  115SAPE   C1112006  -0.106   5.878   2.155
  115SAPE  H11A12007  -0.201   5.833   2.118
  115SAPE  H11B12008  -0.034   5.871   2.070
  115SAPE     P12009  -0.255   6.094   2.183
  115SAPE   O1312010  -0.260   6.195   2.290
  115SAPE   O1412011  -0.260   6.143   2.043
  115SAPE   O1212012  -0.119   6.014   2.196
  115SAPE   O1112013  -0.368   5.984   2.199
  115SAPE    C112014  -0.386   5.907   2.319
  115SAPE    HA12015  -0.395   5.799   2.293
  115SAPE    HB12016  -0.302   5.919   2.390
  115SAPE    C212017  -0.514   5.948   2.397
  115SAPE    HS12018  -0.601   5.931   2.330
  115SAPE   O2112019  -0.499   6.087   2.428
  115SAPE   C2112020  -0.597   6.146   2.493
  115SAPE   O2212021  -0.709   6.100   2.508
  115SAPE   C2212022  -0.548   6.283   2.538
  115SAPE   H2R12023  -0.457   6.311   2.481
  115SAPE   H2S12024  -0.629   6.354   2.514
  115SAPE    C312025  -0.533   5.861   2.525
  115SAPE    HX12026  -0.530   5.754   2.496
  115SAPE    HY12027  -0.632   5.880   2.571
  115SAPE   O3112028  -0.428   5.897   2.616
  115SAPE   C3112029  -0.360   5.803   2.676
  115SAPE   O3212030  -0.389   5.685   2.683
  115SAPE   C3212031  -0.233   5.868   2.732
  115SAPE   H2X12032  -0.243   5.878   2.842
  115SAPE   H2Y12033  -0.224   5.970   2.688
  115SAPE   C2312034  -0.519   6.291   2.690
  115SAPE   H3R12035  -0.607   6.256   2.748
  115SAPE   H3S12036  -0.502   6.398   2.715
  115SAPE   C2412037  -0.393   6.216   2.735
  115SAPE   H4R12038  -0.308   6.246   2.670
  115SAPE   H4S12039  -0.408   6.107   2.718
  115SAPE   C2512040  -0.360   6.245   2.880
  115SAPE   H5R12041  -0.283   6.323   2.892
  115SAPE   C2612042  -0.412   6.190   2.991
  115SAPE   H6R12043  -0.378   6.230   3.088
  115SAPE   C2712044  -0.519   6.085   3.008
  115SAPE   H7R12045  -0.613   6.132   2.972
  115SAPE   H7S12046  -0.532   6.067   3.117
  115SAPE   C2812047  -0.508   5.953   2.937
  115SAPE   H8R12048  -0.499   5.964   2.828
  115SAPE   C2912049  -0.522   5.827   2.986
  115SAPE   H9R12050  -0.517   5.744   2.914
  115SAPE  C21012051  -0.553   5.785   3.127
  115SAPE  H10R12052  -0.634   5.709   3.121
  115SAPE  H10S12053  -0.599   5.870   3.183
  115SAPE  C21112054  -0.439   5.725   3.206
  115SAPE  H11R12055  -0.382   5.649   3.151
  115SAPE  C21212056  -0.402   5.754   3.333
  115SAPE  H12R12057  -0.316   5.699   3.374
  115SAPE  C21312058  -0.463   5.852   3.430
  115SAPE  H13R12059  -0.515   5.932   3.371
  115SAPE  H13S12060  -0.381   5.906   3.480
  115SAPE  C21412061  -0.562   5.801   3.533
  115SAPE  H14R12062  -0.663   5.781   3.494
  115SAPE  C21512063  -0.537   5.776   3.664
  115SAPE  H15R12064  -0.618   5.738   3.728
  115SAPE  C21612065  -0.404   5.795   3.731
  115SAPE  H16R12066  -0.360   5.894   3.705
  115SAPE  H16S12067  -0.336   5.718   3.687
  115SAPE  C21712068  -0.395   5.776   3.884
  115SAPE  H17R12069  -0.288   5.761   3.912
  115SAPE  H17S12070  -0.449   5.685   3.917
  115SAPE  C21812071  -0.441   5.898   3.964
  115SAPE  H18R12072  -0.552   5.899   3.966
  115SAPE  H18S12073  -0.405   5.989   3.910
  115SAPE  C21912074  -0.390   5.906   4.109
  115SAPE  H19R12075  -0.415   6.006   4.149
  115SAPE  H19S12076  -0.279   5.897   4.111
  115SAPE  C22012077  -0.452   5.802   4.201
  115SAPE  H20R12078  -0.562   5.794   4.183
  115SAPE  H20S12079  -0.436   5.829   4.308
  115SAPE  H20T12080  -0.406   5.702   4.184
  115SAPE   C3312081  -0.110   5.783   2.696
  115SAPE   H3X12082  -0.118   5.747   2.591
  115SAPE   H3Y12083  -0.110   5.695   2.764
  115SAPE   C3412084   0.028   5.847   2.715
  115SAPE   H4X12085   0.105   5.774   2.683
  115SAPE   H4Y12086   0.044   5.861   2.824
  115SAPE   C3512087   0.047   5.978   2.637
  115SAPE   H5X12088  -0.044   6.001   2.578
  115SAPE   H5Y12089   0.130   5.962   2.565
  115SAPE   C3612090   0.083   6.102   2.722
  115SAPE   H6X12091   0.092   6.188   2.653
  115SAPE   H6Y12092   0.184   6.087   2.768
  115SAPE   C3712093  -0.013   6.140   2.836
  115SAPE   H7X12094  -0.118   6.132   2.802
  115SAPE   H7Y12095   0.006   6.247   2.860
  115SAPE   C3812096   0.008   6.060   2.966
  115SAPE   H8X12097   0.107   6.009   2.959
  115SAPE   H8Y12098  -0.069   5.981   2.975
  115SAPE   C3912099   0.013   6.143   3.094
  115SAPE   H9X12100   0.076   6.234   3.081
  115SAPE   H9Y12101   0.060   6.078   3.171
  115SAPE  C31012102  -0.124   6.182   3.148
  115SAPE  H10X12103  -0.193   6.097   3.131
  115SAPE  H10Y12104  -0.161   6.271   3.094
  115SAPE  C31112105  -0.120   6.210   3.299
  115SAPE  H11X12106  -0.056   6.298   3.320
  115SAPE  H11Y12107  -0.077   6.122   3.351
  115SAPE  C31212108  -0.261   6.232   3.354
  115SAPE  H12X12109  -0.323   6.144   3.326
  115SAPE  H12Y12110  -0.307   6.321   3.307
  115SAPE  C31312111  -0.265   6.247   3.507
  115SAPE  H13X12112  -0.228   6.155   3.556
  115SAPE  H13Y12113  -0.372   6.258   3.533
  115SAPE  C31412114  -0.191   6.370   3.561
  115SAPE  H14X12115  -0.195   6.450   3.484
  115SAPE  H14Y12116  -0.084   6.345   3.580
  115SAPE  C31512117  -0.257   6.426   3.689
  115SAPE  H15X12118  -0.362   6.449   3.664
  115SAPE  H15Y12119  -0.208   6.521   3.718
  115SAPE  C31612120  -0.256   6.329   3.808
  115SAPE  H16X12121  -0.153   6.317   3.849
  115SAPE  H16Y12122  -0.288   6.228   3.775
  115SAPE  C31712123  -0.351   6.376   3.919
  115SAPE  H17X12124  -0.447   6.408   3.874
  115SAPE  H17Y12125  -0.307   6.465   3.969
  115SAPE  C31812126  -0.380   6.268   4.023
  115SAPE  H18X12127  -0.286   6.224   4.062
  115SAPE  H18Y12128  -0.439   6.186   3.977
  115SAPE  H18Z12129  -0.439   6.309   4.108
  116SAPE     N12130   7.007   1.186   1.992
  116SAPE   HN112131   6.940   1.206   2.068
  116SAPE   HN212132   6.957   1.209   1.903
  116SAPE   HN312133   7.026   1.084   1.990
  116SAPE   C1212134   7.135   1.263   2.008
  116SAPE  H12A12135   7.116   1.368   1.975
  116SAPE  H12B12136   7.212   1.218   1.943
  116SAPE   C1112137   7.182   1.264   2.154
  116SAPE  H11A12138   7.211   1.162   2.186
  116SAPE  H11B12139   7.099   1.297   2.220
  116SAPE     P12140   7.305   1.468   2.266
  116SAPE   O1312141   7.412   1.562   2.223
  116SAPE   O1412142   7.170   1.527   2.279
  116SAPE   O1212143   7.296   1.350   2.162
  116SAPE   O1112144   7.348   1.394   2.399
  116SAPE    C112145   7.436   1.280   2.393
  116SAPE    HA12146   7.376   1.188   2.381
  116SAPE    HB12147   7.508   1.287   2.309
  116SAPE    C212148   7.523   1.261   2.522
  116SAPE    HS12149   7.569   1.161   2.516
  116SAPE   O2112150   7.438   1.269   2.638
  116SAPE   C2112151   7.496   1.235   2.753
  116SAPE   O2212152   7.605   1.180   2.762
  116SAPE   C2212153   7.398   1.268   2.866
  116SAPE   H2R12154   7.382   1.378   2.859
  116SAPE   H2S12155   7.301   1.219   2.843
  116SAPE    C312156   7.638   1.365   2.527
  116SAPE    HX12157   7.707   1.343   2.443
  116SAPE    HY12158   7.700   1.355   2.619
  116SAPE   O3112159   7.587   1.498   2.508
  116SAPE   C3112160   7.544   1.557   2.618
  116SAPE   O3212161   7.558   1.514   2.731
  116SAPE   C3212162   7.477   1.689   2.582
  116SAPE   H2X12163   7.388   1.665   2.519
  116SAPE   H2Y12164   7.550   1.746   2.521
  116SAPE   C2312165   7.440   1.238   3.012
  116SAPE   H3R12166   7.464   1.131   3.029
  116SAPE   H3S12167   7.350   1.257   3.075
  116SAPE   C2412168   7.557   1.321   3.064
  116SAPE   H4R12169   7.537   1.347   3.169
  116SAPE   H4S12170   7.564   1.415   3.006
  116SAPE   C2512171   7.685   1.242   3.054
  116SAPE   H5R12172   7.735   1.246   2.957
  116SAPE   C2612173   7.735   1.165   3.152
  116SAPE   H6R12174   7.830   1.114   3.132
  116SAPE   C2712175   7.677   1.143   3.289
  116SAPE   H7R12176   7.569   1.172   3.293
  116SAPE   H7S12177   7.729   1.210   3.361
  116SAPE   C2812178   7.693   1.004   3.343
  116SAPE   H8R12179   7.713   0.925   3.269
  116SAPE   C2912180   7.678   0.973   3.473
  116SAPE   H9R12181   7.689   0.868   3.503
  116SAPE  C21012182   7.641   1.072   3.581
  116SAPE  H10R12183   7.581   1.155   3.538
  116SAPE  H10S12184   7.733   1.118   3.621
  116SAPE  C21112185   7.567   1.005   3.693
  116SAPE  H11R12186   7.614   0.912   3.730
  116SAPE  C21212187   7.450   1.042   3.750
  116SAPE  H12R12188   7.412   0.977   3.831
  116SAPE  C21312189   7.362   1.161   3.717
  116SAPE  H13R12190   7.413   1.226   3.643
  116SAPE  H13S12191   7.357   1.221   3.810
  116SAPE  C21412192   7.217   1.146   3.675
  116SAPE  H14R12193   7.193   1.185   3.576
  116SAPE  C21512194   7.118   1.091   3.748
  116SAPE  H15R12195   7.016   1.088   3.706
  116SAPE  C21612196   7.132   1.032   3.886
  116SAPE  H16R12197   7.240   1.020   3.913
  116SAPE  H16S12198   7.088   0.930   3.885
  116SAPE  C21712199   7.072   1.104   4.008
  116SAPE  H17R12200   7.128   1.075   4.099
  116SAPE  H17S12201   6.968   1.066   4.019
  116SAPE  C21812202   7.069   1.256   3.993
  116SAPE  H18R12203   6.993   1.278   3.915
  116SAPE  H18S12204   7.169   1.289   3.958
  116SAPE  C21912205   7.032   1.336   4.118
  116SAPE  H19R12206   6.938   1.297   4.163
  116SAPE  H19S12207   7.012   1.441   4.087
  116SAPE  C22012208   7.143   1.338   4.222
  116SAPE  H20R12209   7.163   1.235   4.260
  116SAPE  H20S12210   7.114   1.402   4.308
  116SAPE  H20T12211   7.236   1.378   4.178
  116SAPE   C3312212   7.436   1.770   2.707
  116SAPE   H3X12213   7.449   1.879   2.686
  116SAPE   H3Y12214   7.499   1.747   2.795
  116SAPE   C3412215   7.293   1.746   2.752
  116SAPE   H4X12216   7.222   1.764   2.669
  116SAPE   H4Y12217   7.270   1.821   2.831
  116SAPE   C3512218   7.269   1.606   2.808
  116SAPE   H5X12219   7.320   1.528   2.747
  116SAPE   H5Y12220   7.162   1.580   2.795
  116SAPE   C3612221   7.302   1.596   2.959
  116SAPE   H6X12222   7.300   1.698   3.003
  116SAPE   H6Y12223   7.405   1.557   2.971
  116SAPE   C3712224   7.203   1.509   3.038
  116SAPE   H7X12225   7.190   1.411   2.989
  116SAPE   H7Y12226   7.104   1.558   3.040
  116SAPE   C3812227   7.246   1.487   3.183
  116SAPE   H8X12228   7.338   1.425   3.190
  116SAPE   H8Y12229   7.164   1.431   3.233
  116SAPE   C3912230   7.275   1.616   3.261
  116SAPE   H9X12231   7.190   1.685   3.244
  116SAPE   H9Y12232   7.368   1.667   3.228
  116SAPE  C31012233   7.278   1.585   3.410
  116SAPE  H10X12234   7.236   1.483   3.422
  116SAPE  H10Y12235   7.212   1.660   3.460
  116SAPE  C31112236   7.408   1.586   3.489
  116SAPE  H11X12237   7.449   1.689   3.488
  116SAPE  H11Y12238   7.483   1.518   3.442
  116SAPE  C31212239   7.378   1.542   3.634
  116SAPE  H12X12240   7.349   1.435   3.637
  116SAPE  H12Y12241   7.292   1.603   3.669
  116SAPE  C31312242   7.493   1.570   3.728
  116SAPE  H13X12243   7.515   1.677   3.706
  116SAPE  H13Y12244   7.582   1.510   3.701
  116SAPE  C31412245   7.464   1.568   3.879
  116SAPE  H14X12246   7.358   1.598   3.898
  116SAPE  H14Y12247   7.530   1.642   3.929
  116SAPE  C31512248   7.499   1.441   3.952
  116SAPE  H15X12249   7.439   1.360   3.905
  116SAPE  H15Y12250   7.466   1.450   4.058
  116SAPE  C31612251   7.648   1.405   3.950
  116SAPE  H16X12252   7.699   1.448   4.039
  116SAPE  H16Y12253   7.698   1.447   3.860
  116SAPE  C31712254   7.664   1.254   3.946
  116SAPE  H17X12255   7.771   1.224   3.949
  116SAPE  H17Y12256   7.625   1.221   3.848
  116SAPE  C31812257   7.585   1.184   4.057
  116SAPE  H18X12258   7.530   1.097   4.015
  116SAPE  H18Y12259   7.508   1.248   4.104
  116SAPE  H18Z12260   7.653   1.149   4.138
  117SOPE     N12261   2.498   3.168   6.255
  117SOPE   HN112262   2.451   3.229   6.325
  117SOPE   HN212263   2.434   3.156   6.174
  117SOPE   HN312264   2.515   3.077   6.302
  117SOPE   C1212265   2.628   3.232   6.215
  117SOPE  H12A12266   2.604   3.327   6.163
  117SOPE  H12B12267   2.679   3.165   6.143
  117SOPE   C1112268   2.717   3.255   6.339
  117SOPE  H11A12269   2.807   3.314   6.310
  117SOPE  H11B12270   2.755   3.155   6.371
  117SOPE     P12271   2.622   3.470   6.459
  117SOPE   O1312272   2.732   3.534   6.535
  117SOPE   O1412273   2.483   3.487   6.504
  117SOPE   O1212274   2.648   3.313   6.450
  117SOPE   O1112275   2.635   3.509   6.308
  117SOPE    C112276   2.601   3.637   6.255
  117SOPE    HA12277   2.661   3.716   6.304
  117SOPE    HB12278   2.493   3.659   6.268
  117SOPE    C212279   2.634   3.638   6.103
  117SOPE    HS12280   2.630   3.743   6.068
  117SOPE   O2112281   2.534   3.556   6.039
  117SOPE   C2112282   2.509   3.589   5.912
  117SOPE   O2212283   2.560   3.681   5.852
  117SOPE   C2212284   2.419   3.480   5.854
  117SOPE   H2R12285   2.338   3.457   5.926
  117SOPE   H2S12286   2.484   3.390   5.843
  117SOPE    C312287   2.778   3.581   6.081
  117SOPE    HX12288   2.781   3.476   6.116
  117SOPE    HY12289   2.845   3.639   6.148
  117SOPE   O3112290   2.826   3.596   5.947
  117SOPE   C3112291   2.809   3.493   5.864
  117SOPE   O3212292   2.763   3.385   5.896
  117SOPE   C3212293   2.861   3.533   5.726
  117SOPE   H2X12294   2.964   3.493   5.716
  117SOPE   H2Y12295   2.864   3.644   5.722
  117SOPE   C2312296   2.359   3.514   5.716
  117SOPE   H3R12297   2.429   3.576   5.656
  117SOPE   H3S12298   2.265   3.572   5.728
  117SOPE   C2412299   2.333   3.384   5.639
  117SOPE   H4R12300   2.431   3.338   5.617
  117SOPE   H4S12301   2.275   3.315   5.704
  117SOPE   C2512302   2.254   3.400   5.509
  117SOPE   H5R12303   2.250   3.302   5.456
  117SOPE   H5S12304   2.149   3.426   5.535
  117SOPE   C2612305   2.302   3.509   5.412
  117SOPE   H6R12306   2.232   3.503   5.326
  117SOPE   H6S12307   2.293   3.609   5.460
  117SOPE   C2712308   2.441   3.493   5.350
  117SOPE   H7R12309   2.515   3.501   5.432
  117SOPE   H7S12310   2.448   3.393   5.303
  117SOPE   C2812311   2.472   3.601   5.243
  117SOPE   H8R12312   2.484   3.698   5.296
  117SOPE   H8S12313   2.571   3.577   5.198
  117SOPE   C2912314   2.368   3.617   5.135
  117SOPE   H9112315   2.294   3.697   5.154
  117SOPE  C21012316   2.356   3.545   5.022
  117SOPE  H10112317   2.273   3.568   4.953
  117SOPE  C21112318   2.444   3.431   4.979
  117SOPE  H11R12319   2.514   3.402   5.060
  117SOPE  H11S12320   2.508   3.463   4.893
  117SOPE  C21212321   2.370   3.304   4.935
  117SOPE  H12R12322   2.326   3.251   5.022
  117SOPE  H12S12323   2.445   3.232   4.896
  117SOPE  C21312324   2.270   3.312   4.820
  117SOPE  H13R12325   2.191   3.385   4.847
  117SOPE  H13S12326   2.224   3.212   4.807
  117SOPE  C21412327   2.332   3.353   4.686
  117SOPE  H14R12328   2.443   3.348   4.698
  117SOPE  H14S12329   2.304   3.458   4.666
  117SOPE  C21512330   2.298   3.269   4.561
  117SOPE  H15R12331   2.189   3.253   4.549
  117SOPE  H15S12332   2.343   3.168   4.571
  117SOPE  C21612333   2.355   3.341   4.439
  117SOPE  H16R12334   2.455   3.382   4.467
  117SOPE  H16S12335   2.292   3.429   4.412
  117SOPE  C21712336   2.378   3.256   4.314
  117SOPE  H17R12337   2.280   3.235   4.266
  117SOPE  H17S12338   2.423   3.158   4.341
  117SOPE  C21812339   2.471   3.330   4.218
  117SOPE  H18R12340   2.577   3.303   4.237
  117SOPE  H18S12341   2.461   3.440   4.231
  117SOPE  H18T12342   2.446   3.306   4.112
  117SOPE   C3312343   2.773   3.487   5.607
  117SOPE   H3X12344   2.721   3.577   5.568
  117SOPE   H3Y12345   2.694   3.416   5.639
  117SOPE   C3412346   2.855   3.425   5.493
  117SOPE   H4X12347   2.888   3.323   5.524
  117SOPE   H4Y12348   2.945   3.486   5.471
  117SOPE   C3512349   2.768   3.415   5.367
  117SOPE   H5X12350   2.749   3.516   5.325
  117SOPE   H5Y12351   2.672   3.374   5.402
  117SOPE   C3612352   2.814   3.318   5.258
  117SOPE   H6X12353   2.721   3.288   5.206
  117SOPE   H6Y12354   2.860   3.227   5.302
  117SOPE   C3712355   2.900   3.374   5.144
  117SOPE   H7X12356   3.002   3.400   5.180
  117SOPE   H7Y12357   2.851   3.466   5.106
  117SOPE   C3812358   2.905   3.271   5.030
  117SOPE   H8X12359   2.802   3.239   5.007
  117SOPE   H8Y12360   2.960   3.181   5.065
  117SOPE   C3912361   2.968   3.325   4.900
  117SOPE   H9X12362   3.055   3.389   4.923
  117SOPE   H9Y12363   2.891   3.388   4.852
  117SOPE  C31012364   3.013   3.215   4.802
  117SOPE  H10X12365   2.943   3.128   4.807
  117SOPE  H10Y12366   3.111   3.173   4.832
  117SOPE  C31112367   3.016   3.265   4.657
  117SOPE  H11X12368   3.088   3.349   4.648
  117SOPE  H11Y12369   2.916   3.309   4.637
  117SOPE  C31212370   3.044   3.156   4.553
  117SOPE  H12X12371   2.972   3.074   4.575
  117SOPE  H12Y12372   3.145   3.113   4.566
  117SOPE  C31312373   3.024   3.201   4.407
  117SOPE  H13X12374   3.120   3.245   4.372
  117SOPE  H13Y12375   2.948   3.282   4.405
  117SOPE  C31412376   2.981   3.093   4.305
  117SOPE  H14X12377   3.055   3.010   4.304
  117SOPE  H14Y12378   2.981   3.137   4.203
  117SOPE  C31512379   2.840   3.038   4.332
  117SOPE  H15X12380   2.763   3.107   4.291
  117SOPE  H15Y12381   2.827   3.039   4.443
  117SOPE  C31612382   2.810   2.892   4.296
  117SOPE  H16X12383   2.801   2.834   4.390
  117SOPE  H16Y12384   2.895   2.848   4.239
  117SOPE  C31712385   2.679   2.876   4.219
  117SOPE  H17X12386   2.702   2.882   4.110
  117SOPE  H17Y12387   2.611   2.960   4.244
  117SOPE  C31812388   2.604   2.746   4.247
  117SOPE  H18X12389   2.574   2.739   4.354
  117SOPE  H18Y12390   2.665   2.656   4.222
  117SOPE  H18Z12391   2.512   2.744   4.185
  118SOPE     N12392   4.826   5.738   6.566
  118SOPE   HN112393   4.771   5.691   6.492
  118SOPE   HN212394   4.866   5.667   6.631
  118SOPE   HN312395   4.759   5.799   6.616
  118SOPE   C1212396   4.936   5.823   6.509
  118SOPE  H12A12397   4.998   5.761   6.441
  118SOPE  H12B12398   4.999   5.857   6.594
  118SOPE   C1112399   4.884   5.947   6.437
  118SOPE  H11A12400   4.820   6.008   6.505
  118SOPE  H11B12401   4.825   5.920   6.347
  118SOPE     P12402   4.991   6.162   6.337
  118SOPE   O1312403   5.118   6.182   6.264
  118SOPE   O1412404   4.967   6.260   6.446
  118SOPE   O1212405   5.000   6.019   6.400
  118SOPE   O1112406   4.868   6.150   6.240
  118SOPE    C112407   4.864   6.215   6.112
  118SOPE    HA12408   4.942   6.293   6.100
  118SOPE    HB12409   4.765   6.264   6.101
  118SOPE    C212410   4.877   6.115   5.993
  118SOPE    HS12411   4.792   6.044   6.003
  118SOPE   O2112412   5.003   6.045   6.004
  118SOPE   C2112413   5.007   5.931   5.939
  118SOPE   O2212414   4.918   5.885   5.869
  118SOPE   C2212415   5.139   5.858   5.967
  118SOPE   H2R12416   5.141   5.767   5.903
  118SOPE   H2S12417   5.137   5.827   6.074
  118SOPE    C312418   4.860   6.188   5.855
  118SOPE    HX12419   4.756   6.226   5.853
  118SOPE    HY12420   4.870   6.114   5.773
  118SOPE   O3112421   4.954   6.296   5.839
  118SOPE   C3112422   4.927   6.373   5.732
  118SOPE   O3212423   4.835   6.354   5.655
  118SOPE   C3212424   5.032   6.484   5.724
  118SOPE   H2X12425   5.121   6.447   5.779
  118SOPE   H2Y12426   4.997   6.575   5.777
  118SOPE   C2312427   5.265   5.943   5.941
  118SOPE   H3R12428   5.356   5.889   5.973
  118SOPE   H3S12429   5.258   6.035   6.003
  118SOPE   C2412430   5.282   5.987   5.795
  118SOPE   H4R12431   5.183   6.021   5.756
  118SOPE   H4S12432   5.354   6.071   5.800
  118SOPE   C2512433   5.344   5.889   5.695
  118SOPE   H5R12434   5.437   5.855   5.744
  118SOPE   H5S12435   5.278   5.801   5.680
  118SOPE   C2612436   5.382   5.951   5.557
  118SOPE   H6R12437   5.379   6.062   5.563
  118SOPE   H6S12438   5.486   5.922   5.531
  118SOPE   C2712439   5.291   5.905   5.444
  118SOPE   H7R12440   5.296   5.794   5.445
  118SOPE   H7S12441   5.185   5.925   5.474
  118SOPE   C2812442   5.317   5.948   5.296
  118SOPE   H8R12443   5.386   5.868   5.264
  118SOPE   H8S12444   5.220   5.932   5.244
  118SOPE   C2912445   5.384   6.069   5.235
  118SOPE   H9112446   5.454   6.123   5.301
  118SOPE  C21012447   5.364   6.114   5.108
  118SOPE  H10112448   5.421   6.202   5.074
  118SOPE  C21112449   5.272   6.058   5.001
  118SOPE  H11R12450   5.182   6.124   4.992
  118SOPE  H11S12451   5.233   5.959   5.032
  118SOPE  C21212452   5.330   6.041   4.858
  118SOPE  H12R12453   5.270   5.960   4.811
  118SOPE  H12S12454   5.435   6.006   4.862
  118SOPE  C21312455   5.316   6.162   4.764
  118SOPE  H13R12456   5.401   6.231   4.778
  118SOPE  H13S12457   5.223   6.216   4.791
  118SOPE  C21412458   5.302   6.122   4.616
  118SOPE  H14R12459   5.277   6.212   4.556
  118SOPE  H14S12460   5.215   6.053   4.608
  118SOPE  C21512461   5.424   6.049   4.555
  118SOPE  H15R12462   5.394   6.012   4.455
  118SOPE  H15S12463   5.449   5.962   4.619
  118SOPE  C21612464   5.550   6.132   4.533
  118SOPE  H16R12465   5.635   6.066   4.508
  118SOPE  H16S12466   5.575   6.183   4.628
  118SOPE  C21712467   5.528   6.230   4.419
  118SOPE  H17R12468   5.585   6.323   4.437
  118SOPE  H17S12469   5.420   6.259   4.418
  118SOPE  C21812470   5.563   6.179   4.280
  118SOPE  H18R12471   5.492   6.099   4.249
  118SOPE  H18S12472   5.666   6.138   4.277
  118SOPE  H18T12473   5.556   6.264   4.209
  118SOPE   C3312474   5.071   6.526   5.581
  118SOPE   H3X12475   4.986   6.586   5.543
  118SOPE   H3Y12476   5.071   6.436   5.516
  118SOPE   C3412477   5.213   6.585   5.564
  118SOPE   H4X12478   5.276   6.521   5.629
  118SOPE   H4Y12479   5.215   6.682   5.618
  118SOPE   C3512480   5.288   6.591   5.428
  118SOPE   H5X12481   5.392   6.628   5.446
  118SOPE   H5Y12482   5.239   6.664   5.360
  118SOPE   C3612483   5.295   6.454   5.360
  118SOPE   H6X12484   5.189   6.423   5.356
  118SOPE   H6Y12485   5.347   6.380   5.425
  118SOPE   C3712486   5.343   6.427   5.217
  118SOPE   H7X12487   5.291   6.332   5.191
  118SOPE   H7Y12488   5.453   6.408   5.215
  118SOPE   C3812489   5.303   6.523   5.106
  118SOPE   H8X12490   5.395   6.563   5.059
  118SOPE   H8Y12491   5.249   6.610   5.149
  118SOPE   C3912492   5.227   6.463   4.988
  118SOPE   H9X12493   5.124   6.431   5.016
  118SOPE   H9Y12494   5.281   6.373   4.950
  118SOPE  C31012495   5.214   6.567   4.878
  118SOPE  H10X12496   5.314   6.610   4.856
  118SOPE  H10Y12497   5.161   6.657   4.914
  118SOPE  C31112498   5.154   6.515   4.749
  118SOPE  H11X12499   5.206   6.422   4.716
  118SOPE  H11Y12500   5.177   6.596   4.677
  118SOPE  C31212501   5.002   6.501   4.738
  118SOPE  H12X12502   4.951   6.579   4.797
  118SOPE  H12Y12503   4.969   6.402   4.775
  118SOPE  C31312504   4.959   6.526   4.592
  118SOPE  H13X12505   5.008   6.619   4.555
  118SOPE  H13Y12506   4.849   6.544   4.587
  118SOPE  C31412507   4.999   6.412   4.499
  118SOPE  H14X12508   5.095   6.368   4.531
  118SOPE  H14Y12509   5.012   6.450   4.396
  118SOPE  C31512510   4.890   6.307   4.501
  118SOPE  H15X12511   4.801   6.347   4.447
  118SOPE  H15Y12512   4.858   6.286   4.605
  118SOPE  C31612513   4.936   6.176   4.437
  118SOPE  H16X12514   5.011   6.127   4.503
  118SOPE  H16Y12515   4.985   6.198   4.340
  118SOPE  C31712516   4.817   6.085   4.414
  118SOPE  H17X12517   4.749   6.139   4.345
  118SOPE  H17Y12518   4.762   6.072   4.511
  118SOPE  C31812519   4.853   5.949   4.356
  118SOPE  H18X12520   4.762   5.886   4.344
  118SOPE  H18Y12521   4.923   5.896   4.424
  118SOPE  H18Z12522   4.902   5.961   4.257
  119SOPE     N12523   5.655   6.288   6.502
  119SOPE   HN112524   5.694   6.302   6.597
  119SOPE   HN212525   5.734   6.267   6.437
  119SOPE   HN312526   5.609   6.375   6.471
  119SOPE   C1212527   5.557   6.173   6.506
  119SOPE  H12A12528   5.459   6.210   6.470
  119SOPE  H12B12529   5.548   6.141   6.612
  119SOPE   C1112530   5.606   6.056   6.421
  119SOPE  H11A12531   5.617   6.092   6.316
  119SOPE  H11B12532   5.530   5.976   6.422
  119SOPE     P12533   5.825   5.918   6.385
  119SOPE   O1312534   5.884   5.821   6.482
  119SOPE   O1412535   5.913   6.014   6.317
  119SOPE   O1212536   5.727   6.006   6.473
  119SOPE   O1112537   5.727   5.844   6.286
  119SOPE    C112538   5.690   5.894   6.157
  119SOPE    HA12539   5.724   5.997   6.137
  119SOPE    HB12540   5.579   5.894   6.151
  119SOPE    C212541   5.742   5.804   6.040
  119SOPE    HS12542   5.742   5.699   6.076
  119SOPE   O2112543   5.876   5.847   6.008
  119SOPE   C2112544   5.940   5.774   5.919
  119SOPE   O2212545   5.899   5.670   5.869
  119SOPE   C2212546   6.074   5.840   5.887
  119SOPE   H2R12547   6.140   5.823   5.975
  119SOPE   H2S12548   6.059   5.949   5.875
  119SOPE    C312549   5.646   5.813   5.918
  119SOPE    HX12550   5.544   5.787   5.953
  119SOPE    HY12551   5.672   5.733   5.844
  119SOPE   O3112552   5.645   5.947   5.863
  119SOPE   C3112553   5.695   5.959   5.741
  119SOPE   O3212554   5.721   5.867   5.666
  119SOPE   C3212555   5.716   6.106   5.706
  119SOPE   H2X12556   5.825   6.124   5.718
  119SOPE   H2Y12557   5.661   6.171   5.777
  119SOPE   C2312558   6.141   5.780   5.761
  119SOPE   H3R12559   6.135   5.669   5.765
  119SOPE   H3S12560   6.249   5.807   5.762
  119SOPE   C2412561   6.079   5.829   5.629
  119SOPE   H4R12562   5.971   5.806   5.629
  119SOPE   H4S12563   6.091   5.939   5.622
  119SOPE   C2512564   6.143   5.763   5.506
  119SOPE   H5R12565   6.252   5.784   5.505
  119SOPE   H5S12566   6.130   5.653   5.514
  119SOPE   C2612567   6.079   5.811   5.375
  119SOPE   H6R12568   5.970   5.792   5.382
  119SOPE   H6S12569   6.094   5.921   5.366
  119SOPE   C2712570   6.137   5.742   5.251
  119SOPE   H7R12571   6.247   5.757   5.252
  119SOPE   H7S12572   6.120   5.632   5.259
  119SOPE   C2812573   6.080   5.797   5.119
  119SOPE   H8R12574   6.105   5.906   5.115
  119SOPE   H8S12575   6.138   5.754   5.034
  119SOPE   C2912576   5.932   5.775   5.102
  119SOPE   H9112577   5.873   5.794   5.193
  119SOPE  C21012578   5.865   5.735   4.992
  119SOPE  H10112579   5.756   5.721   4.999
  119SOPE  C21112580   5.925   5.703   4.858
  119SOPE  H11R12581   5.940   5.593   4.853
  119SOPE  H11S12582   6.024   5.751   4.843
  119SOPE  C21212583   5.837   5.739   4.737
  119SOPE  H12R12584   5.841   5.849   4.720
  119SOPE  H12S12585   5.731   5.710   4.755
  119SOPE  C21312586   5.884   5.663   4.612
  119SOPE  H13R12587   5.862   5.555   4.626
  119SOPE  H13S12588   5.995   5.673   4.605
  119SOPE  C21412589   5.822   5.711   4.480
  119SOPE  H14R12590   5.711   5.711   4.488
  119SOPE  H14S12591   5.849   5.638   4.401
  119SOPE  C21512592   5.872   5.849   4.437
  119SOPE  H15R12593   5.983   5.849   4.444
  119SOPE  H15S12594   5.834   5.928   4.505
  119SOPE  C21612595   5.833   5.881   4.292
  119SOPE  H16R12596   5.724   5.903   4.289
  119SOPE  H16S12597   5.852   5.792   4.229
  119SOPE  C21712598   5.910   5.999   4.231
  119SOPE  H17R12599   6.019   5.980   4.242
  119SOPE  H17S12600   5.886   6.091   4.289
  119SOPE  C21812601   5.878   6.021   4.083
  119SOPE  H18R12602   5.770   6.043   4.069
  119SOPE  H18S12603   5.904   5.930   4.024
  119SOPE  H18T12604   5.935   6.107   4.042
  119SOPE   C3312605   5.675   6.132   5.560
  119SOPE   H3X12606   5.565   6.146   5.549
  119SOPE   H3Y12607   5.699   6.042   5.499
  119SOPE   C3412608   5.744   6.253   5.498
  119SOPE   H4X12609   5.844   6.267   5.546
  119SOPE   H4Y12610   5.682   6.343   5.515
  119SOPE   C3512611   5.771   6.234   5.350
  119SOPE   H5X12612   5.816   6.328   5.311
  119SOPE   H5Y12613   5.676   6.217   5.295
  119SOPE   C3612614   5.868   6.118   5.326
  119SOPE   H6X12615   5.821   6.018   5.340
  119SOPE   H6Y12616   5.952   6.127   5.398
  119SOPE   C3712617   5.925   6.128   5.186
  119SOPE   H7X12618   6.017   6.067   5.179
  119SOPE   H7Y12619   5.956   6.235   5.178
  119SOPE   C3812620   5.826   6.094   5.074
  119SOPE   H8X12621   5.740   6.164   5.080
  119SOPE   H8Y12622   5.785   5.991   5.088
  119SOPE   C3912623   5.891   6.109   4.936
  119SOPE   H9X12624   5.811   6.102   4.859
  119SOPE   H9Y12625   5.963   6.026   4.918
  119SOPE  C31012626   5.965   6.243   4.934
  119SOPE  H10X12627   6.058   6.229   4.993
  119SOPE  H10Y12628   5.900   6.318   4.984
  119SOPE  C31112629   6.010   6.303   4.802
  119SOPE  H11X12630   6.110   6.262   4.776
  119SOPE  H11Y12631   6.027   6.412   4.817
  119SOPE  C31212632   5.910   6.281   4.692
  119SOPE  H12X12633   5.811   6.322   4.724
  119SOPE  H12Y12634   5.897   6.172   4.673
  119SOPE  C31312635   5.956   6.347   4.564
  119SOPE  H13X12636   6.054   6.301   4.539
  119SOPE  H13Y12637   5.976   6.455   4.582
  119SOPE  C31412638   5.849   6.326   4.458
  119SOPE  H14X12639   5.761   6.383   4.494
  119SOPE  H14Y12640   5.822   6.218   4.456
  119SOPE  C31512641   5.879   6.374   4.316
  119SOPE  H15X12642   5.798   6.337   4.250
  119SOPE  H15Y12643   5.974   6.332   4.278
  119SOPE  C31612644   5.882   6.526   4.307
  119SOPE  H16X12645   5.968   6.561   4.368
  119SOPE  H16Y12646   5.790   6.569   4.351
  119SOPE  C31712647   5.899   6.573   4.164
  119SOPE  H17X12648   5.805   6.620   4.127
  119SOPE  H17Y12649   5.922   6.485   4.100
  119SOPE  C31812650   6.014   6.670   4.152
  119SOPE  H18X12651   6.038   6.685   4.044
  119SOPE  H18Y12652   6.104   6.628   4.201
  119SOPE  H18Z12653   5.990   6.769   4.198
  120SOPE     N12654   5.931   0.479   6.285
  120SOPE   HN112655   5.947   0.509   6.187
  120SOPE   HN212656   6.022   0.492   6.333
  120SOPE   HN312657   5.908   0.377   6.289
  120SOPE   C1212658   5.822   0.557   6.354
  120SOPE  H12A12659   5.803   0.508   6.452
  120SOPE  H12B12660   5.730   0.550   6.292
  120SOPE   C1112661   5.863   0.703   6.377
  120SOPE  H11A12662   5.779   0.755   6.427
  120SOPE  H11B12663   5.879   0.754   6.280
  120SOPE     P12664   6.113   0.775   6.427
  120SOPE   O1312665   6.219   0.705   6.501
  120SOPE   O1412666   6.100   0.921   6.451
  120SOPE   O1212667   5.976   0.707   6.464
  120SOPE   O1112668   6.125   0.742   6.273
  120SOPE    C112669   6.144   0.845   6.176
  120SOPE    HA12670   6.252   0.856   6.152
  120SOPE    HB12671   6.106   0.943   6.211
  120SOPE    C212672   6.067   0.813   6.045
  120SOPE    HS12673   5.968   0.771   6.072
  120SOPE   O2112674   6.146   0.726   5.962
  120SOPE   C2112675   6.114   0.598   5.964
  120SOPE   O2212676   6.020   0.548   6.024
  120SOPE   C2212677   6.215   0.518   5.881
  120SOPE   H2R12678   6.167   0.431   5.833
  120SOPE   H2S12679   6.288   0.477   5.955
  120SOPE    C312680   6.039   0.943   5.966
  120SOPE    HX12681   6.137   0.982   5.931
  120SOPE    HY12682   5.993   1.018   6.033
  120SOPE   O3112683   5.947   0.910   5.861
  120SOPE   C3112684   5.985   0.942   5.740
  120SOPE   O3212685   6.073   1.020   5.709
  120SOPE   C3212686   5.904   0.858   5.645
  120SOPE   H2X12687   5.800   0.897   5.639
  120SOPE   H2Y12688   5.898   0.754   5.684
  120SOPE   C2312689   6.293   0.590   5.768
  120SOPE   H3R12690   6.374   0.520   5.740
  120SOPE   H3S12691   6.339   0.683   5.807
  120SOPE   C2412692   6.218   0.619   5.638
  120SOPE   H4R12693   6.154   0.534   5.607
  120SOPE   H4S12694   6.154   0.707   5.659
  120SOPE   C2512695   6.322   0.649   5.527
  120SOPE   H5R12696   6.413   0.679   5.584
  120SOPE   H5S12697   6.347   0.557   5.470
  120SOPE   C2612698   6.298   0.768   5.433
  120SOPE   H6R12699   6.250   0.850   5.490
  120SOPE   H6S12700   6.396   0.809   5.400
  120SOPE   C2712701   6.219   0.731   5.307
  120SOPE   H7R12702   6.281   0.670   5.238
  120SOPE   H7S12703   6.136   0.665   5.339
  120SOPE   C2812704   6.159   0.855   5.235
  120SOPE   H8R12705   6.054   0.829   5.208
  120SOPE   H8S12706   6.152   0.939   5.308
  120SOPE   C2912707   6.227   0.903   5.110
  120SOPE   H9112708   6.281   0.999   5.117
  120SOPE  C21012709   6.224   0.836   4.993
  120SOPE  H10112710   6.275   0.879   4.906
  120SOPE  C21112711   6.155   0.704   4.971
  120SOPE  H11R12712   6.097   0.673   5.060
  120SOPE  H11S12713   6.232   0.625   4.957
  120SOPE  C21212714   6.060   0.698   4.851
  120SOPE  H12R12715   5.988   0.782   4.852
  120SOPE  H12S12716   6.002   0.604   4.862
  120SOPE  C21312717   6.133   0.689   4.716
  120SOPE  H13R12718   6.214   0.613   4.727
  120SOPE  H13S12719   6.179   0.787   4.691
  120SOPE  C21412720   6.042   0.642   4.602
  120SOPE  H14R12721   5.951   0.596   4.647
  120SOPE  H14S12722   6.093   0.563   4.543
  120SOPE  C21512723   5.999   0.754   4.509
  120SOPE  H15R12724   5.987   0.849   4.565
  120SOPE  H15S12725   5.901   0.725   4.466
  120SOPE  C21612726   6.088   0.773   4.386
  120SOPE  H16R12727   6.196   0.771   4.415
  120SOPE  H16S12728   6.065   0.873   4.344
  120SOPE  C21712729   6.057   0.670   4.277
  120SOPE  H17R12730   5.947   0.654   4.272
  120SOPE  H17S12731   6.102   0.574   4.308
  120SOPE  C21812732   6.104   0.712   4.137
  120SOPE  H18R12733   6.215   0.722   4.135
  120SOPE  H18S12734   6.059   0.809   4.108
  120SOPE  H18T12735   6.074   0.636   4.062
  120SOPE   C3312736   5.967   0.856   5.505
  120SOPE   H3X12737   6.058   0.794   5.513
  120SOPE   H3Y12738   6.000   0.956   5.469
  120SOPE   C3412739   5.877   0.781   5.410
  120SOPE   H4X12740   5.815   0.720   5.479
  120SOPE   H4Y12741   5.935   0.712   5.345
  120SOPE   C3512742   5.781   0.861   5.323
  120SOPE   H5X12743   5.681   0.859   5.370
  120SOPE   H5Y12744   5.771   0.811   5.224
  120SOPE   C3612745   5.821   1.006   5.301
  120SOPE   H6X12746   5.918   1.014   5.248
  120SOPE   H6Y12747   5.829   1.058   5.399
  120SOPE   C3712748   5.710   1.073   5.223
  120SOPE   H7X12749   5.616   1.049   5.278
  120SOPE   H7Y12750   5.704   1.022   5.124
  120SOPE   C3812751   5.720   1.224   5.210
  120SOPE   H8X12752   5.734   1.268   5.311
  120SOPE   H8Y12753   5.625   1.263   5.170
  120SOPE   C3912754   5.836   1.264   5.120
  120SOPE   H9X12755   5.928   1.222   5.166
  120SOPE   H9Y12756   5.844   1.374   5.115
  120SOPE  C31012757   5.831   1.205   4.979
  120SOPE  H10X12758   5.733   1.230   4.932
  120SOPE  H10Y12759   5.839   1.094   4.983
  120SOPE  C31112760   5.944   1.258   4.892
  120SOPE  H11X12761   5.928   1.368   4.878
  120SOPE  H11Y12762   5.934   1.209   4.793
  120SOPE  C31212763   6.084   1.235   4.951
  120SOPE  H12X12764   6.108   1.127   4.951
  120SOPE  H12Y12765   6.087   1.269   5.057
  120SOPE  C31312766   6.194   1.316   4.882
  120SOPE  H13X12767   6.273   1.338   4.957
  120SOPE  H13Y12768   6.152   1.414   4.848
  120SOPE  C31412769   6.262   1.244   4.766
  120SOPE  H14X12770   6.321   1.160   4.808
  120SOPE  H14Y12771   6.333   1.313   4.716
  120SOPE  C31512772   6.166   1.186   4.661
  120SOPE  H15X12773   6.103   1.108   4.709
  120SOPE  H15Y12774   6.230   1.131   4.588
  120SOPE  C31612775   6.076   1.288   4.589
  120SOPE  H16X12776   6.034   1.358   4.664
  120SOPE  H16Y12777   5.989   1.233   4.545
  120SOPE  C31712778   6.143   1.373   4.480
  120SOPE  H17X12779   6.250   1.385   4.504
  120SOPE  H17Y12780   6.098   1.474   4.484
  120SOPE  C31812781   6.125   1.320   4.337
  120SOPE  H18X12782   6.048   1.378   4.282
  120SOPE  H18Y12783   6.094   1.213   4.337
  120SOPE  H18Z12784   6.221   1.326   4.281
  121SOPE     N12785   6.229   6.537   6.478
  121SOPE   HN112786   6.328   6.517   6.504
  121SOPE   HN212787   6.174   6.449   6.473
  121SOPE   HN312788   6.228   6.580   6.384
  121SOPE   C1212789   6.162   6.638   6.568
  121SOPE  H12A12790   6.215   6.734   6.553
  121SOPE  H12B12791   6.174   6.606   6.674
  121SOPE   C1112792   6.013   6.654   6.532
  121SOPE  H11A12793   5.975   6.751   6.571
  121SOPE  H11B12794   5.953   6.576   6.583
  121SOPE     P12795   6.040   6.757   6.295
  121SOPE   O1312796   6.187   6.737   6.282
  121SOPE   O1412797   5.994   6.885   6.353
  121SOPE   O1212798   5.990   6.642   6.391
  121SOPE   O1112799   5.964   6.727   6.161
  121SOPE    C112800   5.848   6.643   6.160
  121SOPE    HA12801   5.782   6.663   6.247
  121SOPE    HB12802   5.878   6.536   6.162
  121SOPE    C212803   5.763   6.669   6.033
  121SOPE    HS12804   5.664   6.620   6.045
  121SOPE   O2112805   5.831   6.622   5.916
  121SOPE   C2112806   5.818   6.494   5.890
  121SOPE   O2212807   5.760   6.412   5.958
  121SOPE   C2212808   5.875   6.470   5.750
  121SOPE   H2R12809   5.858   6.363   5.725
  121SOPE   H2S12810   5.984   6.487   5.758
  121SOPE    C312811   5.738   6.820   6.012
  121SOPE    HX12812   5.837   6.867   5.997
  121SOPE    HY12813   5.696   6.861   6.106
  121SOPE   O3112814   5.645   6.845   5.903
  121SOPE   C3112815   5.696   6.872   5.783
  121SOPE   O3212816   5.814   6.884   5.758
  121SOPE   C3212817   5.582   6.890   5.683
  121SOPE   H2X12818   5.497   6.928   5.743
  121SOPE   H2Y12819   5.555   6.789   5.644
  121SOPE   C2312820   5.812   6.565   5.643
  121SOPE   H3R12821   5.779   6.658   5.693
  121SOPE   H3S12822   5.719   6.521   5.601
  121SOPE   C2412823   5.906   6.614   5.532
  121SOPE   H4R12824   5.929   6.531   5.463
  121SOPE   H4S12825   5.850   6.689   5.472
  121SOPE   C2512826   6.035   6.678   5.586
  121SOPE   H5R12827   6.035   6.682   5.697
  121SOPE   H5S12828   6.121   6.614   5.556
  121SOPE   C2612829   6.064   6.819   5.534
  121SOPE   H6R12830   5.993   6.842   5.452
  121SOPE   H6S12831   6.047   6.892   5.616
  121SOPE   C2712832   6.207   6.835   5.480
  121SOPE   H7R12833   6.279   6.808   5.560
  121SOPE   H7S12834   6.223   6.763   5.396
  121SOPE   C2812835   6.234   6.978   5.433
  121SOPE   H8R12836   6.215   7.044   5.521
  121SOPE   H8S12837   6.340   6.997   5.405
  121SOPE   C2912838   6.143   7.019   5.323
  121SOPE   H9112839   6.058   7.080   5.357
  121SOPE  C21012840   6.149   6.987   5.193
  121SOPE  H10112841   6.063   7.018   5.132
  121SOPE  C21112842   6.243   6.904   5.112
  121SOPE  H11R12843   6.187   6.822   5.062
  121SOPE  H11S12844   6.322   6.856   5.173
  121SOPE  C21212845   6.302   6.996   5.004
  121SOPE  H12R12846   6.357   6.931   4.933
  121SOPE  H12S12847   6.375   7.067   5.047
  121SOPE  C21312848   6.197   7.075   4.924
  121SOPE  H13R12849   6.146   7.152   4.987
  121SOPE  H13S12850   6.121   7.002   4.888
  121SOPE  C21412851   6.257   7.147   4.804
  121SOPE  H14R12852   6.337   7.079   4.766
  121SOPE  H14S12853   6.305   7.242   4.833
  121SOPE  C21512854   6.157   7.170   4.690
  121SOPE  H15R12855   6.094   7.258   4.715
  121SOPE  H15S12856   6.089   7.083   4.681
  121SOPE  C21612857   6.232   7.189   4.559
  121SOPE  H16R12858   6.305   7.106   4.545
  121SOPE  H16S12859   6.290   7.283   4.564
  121SOPE  C21712860   6.149   7.186   4.431
  121SOPE  H17R12861   6.071   7.265   4.437
  121SOPE  H17S12862   6.096   7.089   4.421
  121SOPE  C21812863   6.241   7.209   4.312
  121SOPE  H18R12864   6.293   7.115   4.285
  121SOPE  H18S12865   6.320   7.284   4.337
  121SOPE  H18T12866   6.186   7.247   4.224
  121SOPE   C3312867   5.603   6.988   5.562
  121SOPE   H3X12868   5.619   7.092   5.596
  121SOPE   H3Y12869   5.506   6.991   5.507
  121SOPE   C3412870   5.712   6.940   5.466
  121SOPE   H4X12871   5.682   6.837   5.437
  121SOPE   H4Y12872   5.808   6.929   5.521
  121SOPE   C3512873   5.741   7.022   5.338
  121SOPE   H5X12874   5.801   7.113   5.363
  121SOPE   H5Y12875   5.648   7.058   5.289
  121SOPE   C3612876   5.817   6.934   5.239
  121SOPE   H6X12877   5.787   6.829   5.257
  121SOPE   H6Y12878   5.924   6.928   5.269
  121SOPE   C3712879   5.800   6.955   5.087
  121SOPE   H7X12880   5.693   6.935   5.065
  121SOPE   H7Y12881   5.860   6.875   5.038
  121SOPE   C3812882   5.838   7.084   5.014
  121SOPE   H8X12883   5.941   7.119   5.036
  121SOPE   H8Y12884   5.773   7.169   5.045
  121SOPE   C3912885   5.829   7.059   4.862
  121SOPE   H9X12886   5.911   6.989   4.835
  121SOPE   H9Y12887   5.849   7.154   4.806
  121SOPE  C31012888   5.698   6.995   4.813
  121SOPE  H10X12889   5.611   7.038   4.869
  121SOPE  H10Y12890   5.698   6.887   4.840
  121SOPE  C31112891   5.666   7.015   4.664
  121SOPE  H11X12892   5.660   7.123   4.638
  121SOPE  H11Y12893   5.568   6.970   4.641
  121SOPE  C31212894   5.772   6.953   4.574
  121SOPE  H12X12895   5.871   6.993   4.603
  121SOPE  H12Y12896   5.758   6.984   4.468
  121SOPE  C31312897   5.766   6.801   4.585
  121SOPE  H13X12898   5.693   6.764   4.509
  121SOPE  H13Y12899   5.729   6.767   4.684
  121SOPE  C31412900   5.900   6.737   4.562
  121SOPE  H14X12901   5.937   6.768   4.462
  121SOPE  H14Y12902   5.883   6.627   4.560
  121SOPE  C31512903   6.002   6.768   4.671
  121SOPE  H15X12904   5.972   6.715   4.764
  121SOPE  H15Y12905   6.009   6.877   4.694
  121SOPE  C31612906   6.140   6.721   4.628
  121SOPE  H16X12907   6.123   6.630   4.567
  121SOPE  H16Y12908   6.199   6.694   4.719
  121SOPE  C31712909   6.222   6.824   4.547
  121SOPE  H17X12910   6.330   6.803   4.564
  121SOPE  H17Y12911   6.202   6.925   4.589
  121SOPE  C31812912   6.201   6.824   4.396
  121SOPE  H18X12913   6.218   6.722   4.355
  121SOPE  H18Y12914   6.272   6.894   4.346
  121SOPE  H18Z12915   6.098   6.857   4.370
  122SOPE     N12916   6.457   7.221   6.303
  122SOPE   HN112917   6.436   7.228   6.405
  122SOPE   HN212918   6.432   7.124   6.274
  122SOPE   HN312919   6.558   7.239   6.287
  122SOPE   C1212920   6.371   7.322   6.234
  122SOPE  H12A12921   6.270   7.276   6.229
  122SOPE  H12B12922   6.409   7.337   6.130
  122SOPE   C1112923   6.361   7.455   6.312
  122SOPE  H11A12924   6.286   7.521   6.263
  122SOPE  H11B12925   6.459   7.508   6.303
  122SOPE     P12926   6.198   7.371   6.503
  122SOPE   O1312927   6.168   7.430   6.635
  122SOPE   O1412928   6.227   7.226   6.498
  122SOPE   O1212929   6.331   7.437   6.450
  122SOPE   O1112930   6.089   7.410   6.397
  122SOPE    C112931   5.996   7.316   6.342
  122SOPE    HA12932   5.897   7.331   6.390
  122SOPE    HB12933   6.023   7.210   6.358
  122SOPE    C212934   5.979   7.346   6.191
  122SOPE    HS12935   5.878   7.311   6.160
  122SOPE   O2112936   6.080   7.281   6.112
  122SOPE   C2112937   6.069   7.149   6.103
  122SOPE   O2212938   5.977   7.082   6.146
  122SOPE   C2212939   6.179   7.100   6.009
  122SOPE   H2R12940   6.173   6.989   6.003
  122SOPE   H2S12941   6.278   7.129   6.047
  122SOPE    C312942   5.986   7.500   6.167
  122SOPE    HX12943   6.085   7.538   6.198
  122SOPE    HY12944   5.912   7.543   6.238
  122SOPE   O3112945   5.949   7.540   6.035
  122SOPE   C3112946   6.046   7.571   5.951
  122SOPE   O3212947   6.165   7.564   5.975
  122SOPE   C3212948   5.985   7.607   5.815
  122SOPE   H2X12949   5.986   7.717   5.799
  122SOPE   H2Y12950   5.877   7.579   5.813
  122SOPE   C2312951   6.150   7.164   5.872
  122SOPE   H3R12952   6.140   7.274   5.882
  122SOPE   H3S12953   6.053   7.120   5.839
  122SOPE   C2412954   6.248   7.140   5.759
  122SOPE   H4R12955   6.280   7.034   5.753
  122SOPE   H4S12956   6.190   7.166   5.668
  122SOPE   C2512957   6.368   7.236   5.760
  122SOPE   H5R12958   6.335   7.340   5.774
  122SOPE   H5S12959   6.433   7.209   5.846
  122SOPE   C2612960   6.449   7.227   5.630
  122SOPE   H6R12961   6.550   7.271   5.646
  122SOPE   H6S12962   6.465   7.121   5.603
  122SOPE   C2712963   6.382   7.298   5.511
  122SOPE   H7R12964   6.283   7.251   5.496
  122SOPE   H7S12965   6.366   7.406   5.536
  122SOPE   C2812966   6.464   7.287   5.382
  122SOPE   H8R12967   6.535   7.373   5.379
  122SOPE   H8S12968   6.527   7.196   5.392
  122SOPE   C2912969   6.380   7.275   5.258
  122SOPE   H9112970   6.290   7.212   5.269
  122SOPE  C21012971   6.401   7.332   5.138
  122SOPE  H10112972   6.330   7.314   5.057
  122SOPE  C21112973   6.516   7.423   5.106
  122SOPE  H11R12974   6.570   7.390   5.014
  122SOPE  H11S12975   6.590   7.429   5.189
  122SOPE  C21212976   6.464   7.563   5.088
  122SOPE  H12R12977   6.391   7.589   5.168
  122SOPE  H12S12978   6.413   7.570   4.989
  122SOPE  C21312979   6.568   7.672   5.093
  122SOPE  H13R12980   6.611   7.682   5.195
  122SOPE  H13S12981   6.505   7.761   5.071
  122SOPE  C21412982   6.680   7.663   4.988
  122SOPE  H14R12983   6.750   7.582   5.016
  122SOPE  H14S12984   6.736   7.759   4.990
  122SOPE  C21512985   6.628   7.639   4.846
  122SOPE  H15R12986   6.538   7.701   4.825
  122SOPE  H15S12987   6.597   7.533   4.837
  122SOPE  C21612988   6.736   7.670   4.742
  122SOPE  H16R12989   6.832   7.632   4.784
  122SOPE  H16S12990   6.750   7.779   4.731
  122SOPE  C21712991   6.709   7.604   4.606
  122SOPE  H17R12992   6.682   7.497   4.625
  122SOPE  H17S12993   6.802   7.604   4.546
  122SOPE  C21812994   6.597   7.669   4.525
  122SOPE  H18R12995   6.581   7.614   4.430
  122SOPE  H18S12996   6.625   7.774   4.500
  122SOPE  H18T12997   6.502   7.671   4.582
  122SOPE   C3312998   6.062   7.537   5.701
  122SOPE   H3X12999   6.106   7.442   5.737
  122SOPE   H3Y13000   6.148   7.601   5.670
  122SOPE   C3413001   5.977   7.503   5.578
  122SOPE   H4X13002   5.965   7.596   5.518
  122SOPE   H4Y13003   5.875   7.469   5.606
  122SOPE   C3513004   6.049   7.394   5.498
  122SOPE   H5X13005   6.044   7.297   5.552
  122SOPE   H5Y13006   6.156   7.423   5.496
  122SOPE   C3613007   6.005   7.375   5.353
  122SOPE   H6X13008   5.901   7.337   5.349
  122SOPE   H6Y13009   6.071   7.300   5.305
  122SOPE   C3713010   6.014   7.504   5.271
  122SOPE   H7X13011   5.933   7.573   5.305
  122SOPE   H7Y13012   5.995   7.477   5.165
  122SOPE   C3813013   6.147   7.580   5.282
  122SOPE   H8X13014   6.229   7.510   5.254
  122SOPE   H8Y13015   6.163   7.607   5.388
  122SOPE   C3913016   6.158   7.713   5.205
  122SOPE   H9X13017   6.252   7.761   5.239
  122SOPE   H9Y13018   6.077   7.781   5.239
  122SOPE  C31013019   6.162   7.714   5.050
  122SOPE  H10X13020   6.260   7.760   5.023
  122SOPE  H10Y13021   6.084   7.782   5.012
  122SOPE  C31113022   6.152   7.582   4.972
  122SOPE  H11X13023   6.046   7.552   4.958
  122SOPE  H11Y13024   6.200   7.500   5.030
  122SOPE  C31213025   6.222   7.590   4.835
  122SOPE  H12X13026   6.299   7.510   4.831
  122SOPE  H12Y13027   6.273   7.687   4.821
  122SOPE  C31313028   6.128   7.564   4.718
  122SOPE  H13X13029   6.056   7.647   4.704
  122SOPE  H13Y13030   6.071   7.472   4.744
  122SOPE  C31413031   6.204   7.534   4.589
  122SOPE  H14X13032   6.148   7.454   4.536
  122SOPE  H14Y13033   6.306   7.494   4.611
  122SOPE  C31513034   6.215   7.651   4.491
  122SOPE  H15X13035   6.282   7.730   4.532
  122SOPE  H15Y13036   6.114   7.695   4.481
  122SOPE  C31613037   6.265   7.603   4.355
  122SOPE  H16X13038   6.267   7.492   4.355
  122SOPE  H16Y13039   6.370   7.637   4.337
  122SOPE  C31713040   6.175   7.645   4.239
  122SOPE  H17X13041   6.079   7.686   4.278
  122SOPE  H17Y13042   6.150   7.555   4.178
  122SOPE  C31813043   6.237   7.749   4.148
  122SOPE  H18X13044   6.329   7.708   4.102
  122SOPE  H18Y13045   6.267   7.839   4.206
  122SOPE  H18Z13046   6.167   7.779   4.067
  123SOPE     N13047   4.456   1.639   1.954
  123SOPE   HN113048   4.499   1.569   1.889
  123SOPE   HN213049   4.382   1.692   1.904
  123SOPE   HN313050   4.529   1.704   1.988
  123SOPE   C1213051   4.391   1.561   2.064
  123SOPE  H12A13052   4.364   1.631   2.146
  123SOPE  H12B13053   4.464   1.487   2.103
  123SOPE   C1113054   4.265   1.489   2.009
  123SOPE  H11A13055   4.223   1.424   2.089
  123SOPE  H11B13056   4.297   1.419   1.929
  123SOPE     P13057   4.115   1.703   2.038
  123SOPE   O1313058   3.979   1.736   1.991
  123SOPE   O1413059   4.220   1.806   2.017
  123SOPE   O1213060   4.164   1.576   1.957
  123SOPE   O1113061   4.117   1.650   2.188
  123SOPE    C113062   4.021   1.549   2.223
  123SOPE    HA13063   4.011   1.473   2.143
  123SOPE    HB13064   3.920   1.595   2.229
  123SOPE    C213065   4.054   1.463   2.351
  123SOPE    HS13066   3.981   1.380   2.350
  123SOPE   O2113067   4.035   1.537   2.473
  123SOPE   C2113068   3.918   1.594   2.503
  123SOPE   O2213069   3.821   1.606   2.431
  123SOPE   C2213070   3.917   1.641   2.650
  123SOPE   H2R13071   3.878   1.745   2.647
  123SOPE   H2S13072   4.020   1.646   2.692
  123SOPE    C313073   4.200   1.394   2.354
  123SOPE    HX13074   4.203   1.323   2.269
  123SOPE    HY13075   4.184   1.332   2.445
  123SOPE   O3113076   4.328   1.470   2.360
  123SOPE   C3113077   4.424   1.402   2.434
  123SOPE   O3213078   4.402   1.290   2.474
  123SOPE   C3213079   4.560   1.468   2.480
  123SOPE   H2X13080   4.600   1.529   2.397
  123SOPE   H2Y13081   4.623   1.376   2.482
  123SOPE   C2313082   3.825   1.558   2.743
  123SOPE   H3R13083   3.733   1.528   2.688
  123SOPE   H3S13084   3.794   1.624   2.827
  123SOPE   C2413085   3.886   1.435   2.812
  123SOPE   H4R13086   3.803   1.367   2.840
  123SOPE   H4S13087   3.952   1.379   2.742
  123SOPE   C2513088   3.960   1.471   2.942
  123SOPE   H5R13089   4.049   1.533   2.917
  123SOPE   H5S13090   3.894   1.534   3.006
  123SOPE   C2613091   4.002   1.347   3.022
  123SOPE   H6R13092   3.910   1.293   3.054
  123SOPE   H6S13093   4.060   1.279   2.957
  123SOPE   C2713094   4.086   1.382   3.146
  123SOPE   H7R13095   4.173   1.444   3.113
  123SOPE   H7S13096   4.026   1.443   3.216
  123SOPE   C2813097   4.141   1.257   3.218
  123SOPE   H8R13098   4.197   1.195   3.145
  123SOPE   H8S13099   4.216   1.292   3.293
  123SOPE   C2913100   4.032   1.175   3.282
  123SOPE   H9113101   3.969   1.119   3.212
  123SOPE  C21013102   4.004   1.167   3.414
  123SOPE  H10113103   3.921   1.103   3.446
  123SOPE  C21113104   4.075   1.240   3.525
  123SOPE  H11R13105   4.174   1.279   3.495
  123SOPE  H11S13106   4.092   1.169   3.609
  123SOPE  C21213107   3.993   1.357   3.580
  123SOPE  H12R13108   3.893   1.319   3.612
  123SOPE  H12S13109   3.975   1.434   3.502
  123SOPE  C21313110   4.060   1.419   3.703
  123SOPE  H13R13111   4.115   1.343   3.762
  123SOPE  H13S13112   3.977   1.457   3.767
  123SOPE  C21413113   4.150   1.541   3.676
  123SOPE  H14R13114   4.104   1.605   3.597
  123SOPE  H14S13115   4.249   1.508   3.640
  123SOPE  C21513116   4.162   1.623   3.805
  123SOPE  H15R13117   4.198   1.557   3.887
  123SOPE  H15S13118   4.061   1.661   3.832
  123SOPE  C21613119   4.257   1.743   3.795
  123SOPE  H16R13120   4.218   1.815   3.720
  123SOPE  H16S13121   4.354   1.705   3.757
  123SOPE  C21713122   4.278   1.815   3.929
  123SOPE  H17R13123   4.329   1.912   3.910
  123SOPE  H17S13124   4.347   1.754   3.992
  123SOPE  C21813125   4.151   1.846   4.009
  123SOPE  H18R13126   4.104   1.752   4.045
  123SOPE  H18S13127   4.078   1.901   3.946
  123SOPE  H18T13128   4.176   1.909   4.098
  123SOPE   C3313129   4.581   1.526   2.632
  123SOPE   H3X13130   4.689   1.503   2.648
  123SOPE   H3Y13131   4.523   1.450   2.689
  123SOPE   C3413132   4.572   1.676   2.704
  123SOPE   H4X13133   4.615   1.758   2.643
  123SOPE   H4Y13134   4.648   1.668   2.784
  123SOPE   C3513135   4.453   1.755   2.788
  123SOPE   H5X13136   4.393   1.670   2.827
  123SOPE   H5Y13137   4.441   1.789   2.683
  123SOPE   C3613138   4.329   1.859   2.786
  123SOPE   H6X13139   4.287   1.889   2.688
  123SOPE   H6Y13140   4.360   1.956   2.829
  123SOPE   C3713141   4.207   1.821   2.873
  123SOPE   H7X13142   4.228   1.730   2.933
  123SOPE   H7Y13143   4.119   1.800   2.808
  123SOPE   C3813144   4.170   1.928   2.976
  123SOPE   H8X13145   4.124   2.016   2.925
  123SOPE   H8Y13146   4.264   1.962   3.024
  123SOPE   C3913147   4.077   1.876   3.087
  123SOPE   H9X13148   4.121   1.784   3.130
  123SOPE   H9Y13149   3.978   1.849   3.044
  123SOPE  C31013150   4.060   1.980   3.199
  123SOPE  H10X13151   4.008   2.068   3.156
  123SOPE  H10Y13152   4.161   2.014   3.230
  123SOPE  C31113153   3.983   1.929   3.322
  123SOPE  H11X13154   3.951   1.824   3.305
  123SOPE  H11Y13155   3.891   1.992   3.331
  123SOPE  C31213156   4.059   1.937   3.455
  123SOPE  H12X13157   4.102   2.039   3.464
  123SOPE  H12Y13158   4.143   1.864   3.452
  123SOPE  C31313159   3.973   1.911   3.580
  123SOPE  H13X13160   4.039   1.916   3.669
  123SOPE  H13Y13161   3.931   1.808   3.576
  123SOPE  C31413162   3.861   2.014   3.597
  123SOPE  H14X13163   3.764   1.970   3.567
  123SOPE  H14Y13164   3.880   2.097   3.525
  123SOPE  C31513165   3.848   2.076   3.736
  123SOPE  H15X13166   3.800   2.175   3.724
  123SOPE  H15Y13167   3.950   2.092   3.779
  123SOPE  C31613168   3.761   1.995   3.834
  123SOPE  H16X13169   3.803   2.004   3.936
  123SOPE  H16Y13170   3.768   1.888   3.806
  123SOPE  C31713171   3.614   2.041   3.838
  123SOPE  H17X13172   3.569   2.035   3.736
  123SOPE  H17Y13173   3.612   2.149   3.865
  123SOPE  C31813174   3.524   1.967   3.937
  123SOPE  H18X13175   3.562   1.981   4.041
  123SOPE  H18Y13176   3.522   1.858   3.915
  123SOPE  H18Z13177   3.420   2.005   3.933
  124SOPE     N13178   5.133   5.317   1.891
  124SOPE   HN113179   5.232   5.348   1.893
  124SOPE   HN213180   5.119   5.248   1.814
  124SOPE   HN313181   5.076   5.402   1.875
  124SOPE   C1213182   5.103   5.259   2.027
  124SOPE  H12A13183   5.162   5.165   2.036
  124SOPE  H12B13184   4.995   5.236   2.034
  124SOPE   C1113185   5.144   5.359   2.136
  124SOPE  H11A13186   5.138   5.309   2.234
  124SOPE  H11B13187   5.071   5.442   2.139
  124SOPE     P13188   5.401   5.345   2.175
  124SOPE   O1313189   5.522   5.418   2.132
  124SOPE   O1413190   5.393   5.201   2.140
  124SOPE   O1213191   5.274   5.413   2.108
  124SOPE   O1113192   5.374   5.366   2.328
  124SOPE    C113193   5.391   5.497   2.383
  124SOPE    HA13194   5.314   5.567   2.343
  124SOPE    HB13195   5.491   5.538   2.357
  124SOPE    C213196   5.383   5.499   2.538
  124SOPE    HS13197   5.433   5.593   2.572
  124SOPE   O2113198   5.455   5.385   2.590
  124SOPE   C2113199   5.466   5.380   2.721
  124SOPE   O2213200   5.438   5.469   2.799
  124SOPE   C2213201   5.523   5.244   2.761
  124SOPE   H2R13202   5.616   5.226   2.703
  124SOPE   H2S13203   5.448   5.166   2.734
  124SOPE    C313204   5.236   5.506   2.589
  124SOPE    HX13205   5.185   5.590   2.536
  124SOPE    HY13206   5.236   5.531   2.697
  124SOPE   O3113207   5.169   5.380   2.574
  124SOPE   C3113208   5.067   5.371   2.492
  124SOPE   O3213209   5.016   5.463   2.429
  124SOPE   C3213210   5.016   5.226   2.491
  124SOPE   H2X13211   5.045   5.182   2.393
  124SOPE   H2Y13212   4.905   5.230   2.497
  124SOPE   C2313213   5.552   5.240   2.912
  124SOPE   H3R13214   5.462   5.268   2.970
  124SOPE   H3S13215   5.627   5.319   2.937
  124SOPE   C2413216   5.602   5.106   2.964
  124SOPE   H4R13217   5.531   5.024   2.938
  124SOPE   H4S13218   5.700   5.082   2.917
  124SOPE   C2513219   5.617   5.112   3.116
  124SOPE   H5R13220   5.668   5.208   3.141
  124SOPE   H5S13221   5.517   5.115   3.165
  124SOPE   C2613222   5.702   4.999   3.175
  124SOPE   H6R13223   5.643   4.905   3.176
  124SOPE   H6S13224   5.790   4.982   3.109
  124SOPE   C2713225   5.753   5.035   3.316
  124SOPE   H7R13226   5.821   4.954   3.351
  124SOPE   H7S13227   5.813   5.128   3.309
  124SOPE   C2813228   5.642   5.059   3.420
  124SOPE   H8R13229   5.689   5.082   3.517
  124SOPE   H8S13230   5.581   5.147   3.390
  124SOPE   C2913231   5.559   4.935   3.430
  124SOPE   H9113232   5.613   4.844   3.400
  124SOPE  C21013233   5.432   4.924   3.471
  124SOPE  H10113234   5.390   4.823   3.482
  124SOPE  C21113235   5.342   5.035   3.517
  124SOPE  H11R13236   5.238   5.017   3.483
  124SOPE  H11S13237   5.373   5.131   3.470
  124SOPE  C21213238   5.347   5.056   3.670
  124SOPE  H12R13239   5.305   5.157   3.690
  124SOPE  H12S13240   5.453   5.059   3.704
  124SOPE  C21313241   5.263   4.965   3.760
  124SOPE  H13R13242   5.320   4.952   3.855
  124SOPE  H13S13243   5.257   4.864   3.715
  124SOPE  C21413244   5.126   5.026   3.801
  124SOPE  H14R13245   5.151   5.124   3.847
  124SOPE  H14S13246   5.082   4.967   3.885
  124SOPE  C21513247   5.021   5.055   3.691
  124SOPE  H15R13248   5.064   5.034   3.591
  124SOPE  H15S13249   5.005   5.165   3.692
  124SOPE  C21613250   4.884   4.983   3.701
  124SOPE  H16R13251   4.898   4.873   3.696
  124SOPE  H16S13252   4.822   5.008   3.613
  124SOPE  C21713253   4.802   5.009   3.828
  124SOPE  H17R13254   4.750   5.106   3.819
  124SOPE  H17S13255   4.871   5.014   3.915
  124SOPE  C21813256   4.696   4.904   3.856
  124SOPE  H18R13257   4.745   4.807   3.881
  124SOPE  H18S13258   4.629   4.889   3.768
  124SOPE  H18T13259   4.634   4.936   3.942
  124SOPE   C3313260   5.073   5.138   2.605
  124SOPE   H3X13261   5.184   5.146   2.607
  124SOPE   H3Y13262   5.048   5.032   2.585
  124SOPE   C3413263   5.015   5.176   2.742
  124SOPE   H4X13264   4.920   5.120   2.754
  124SOPE   H4Y13265   4.992   5.285   2.749
  124SOPE   C3513266   5.102   5.137   2.861
  124SOPE   H5X13267   5.157   5.043   2.836
  124SOPE   H5Y13268   5.038   5.118   2.950
  124SOPE   C3613269   5.202   5.242   2.907
  124SOPE   H6X13270   5.245   5.294   2.818
  124SOPE   H6Y13271   5.282   5.185   2.958
  124SOPE   C3713272   5.147   5.344   3.007
  124SOPE   H7X13273   5.057   5.304   3.058
  124SOPE   H7Y13274   5.117   5.436   2.953
  124SOPE   C3813275   5.251   5.379   3.116
  124SOPE   H8X13276   5.345   5.410   3.066
  124SOPE   H8Y13277   5.272   5.290   3.178
  124SOPE   C3913278   5.205   5.496   3.203
  124SOPE   H9X13279   5.112   5.469   3.258
  124SOPE   H9Y13280   5.181   5.577   3.131
  124SOPE  C31013281   5.313   5.549   3.299
  124SOPE  H10X13282   5.288   5.654   3.328
  124SOPE  H10Y13283   5.409   5.552   3.244
  124SOPE  C31113284   5.330   5.469   3.429
  124SOPE  H11X13285   5.419   5.508   3.483
  124SOPE  H11Y13286   5.351   5.363   3.403
  124SOPE  C31213287   5.211   5.476   3.526
  124SOPE  H12X13288   5.121   5.440   3.473
  124SOPE  H12Y13289   5.193   5.581   3.558
  124SOPE  C31313290   5.235   5.385   3.648
  124SOPE  H13X13291   5.336   5.342   3.633
  124SOPE  H13Y13292   5.160   5.302   3.646
  124SOPE  C31413293   5.235   5.450   3.787
  124SOPE  H14X13294   5.132   5.480   3.816
  124SOPE  H14Y13295   5.294   5.544   3.776
  124SOPE  C31513296   5.300   5.362   3.896
  124SOPE  H15X13297   5.386   5.414   3.943
  124SOPE  H15Y13298   5.343   5.271   3.849
  124SOPE  C31613299   5.207   5.316   4.010
  124SOPE  H16X13300   5.256   5.231   4.062
  124SOPE  H16Y13301   5.111   5.280   3.967
  124SOPE  C31713302   5.178   5.425   4.114
  124SOPE  H17X13303   5.105   5.495   4.068
  124SOPE  H17Y13304   5.272   5.480   4.134
  124SOPE  C31813305   5.119   5.376   4.246
  124SOPE  H18X13306   5.009   5.362   4.239
  124SOPE  H18Y13307   5.139   5.451   4.326
  124SOPE  H18Z13308   5.165   5.279   4.277
  125SOPE     N13309   1.531   4.851   1.981
  125SOPE   HN113310   1.577   4.770   2.027
  125SOPE   HN213311   1.476   4.819   1.899
  125SOPE   HN313312   1.606   4.915   1.947
  125SOPE   C1213313   1.448   4.936   2.074
  125SOPE  H12A13314   1.388   4.870   2.139
  125SOPE  H12B13315   1.381   4.999   2.011
  125SOPE   C1113316   1.541   5.026   2.154
  125SOPE  H11A13317   1.598   4.965   2.228
  125SOPE  H11B13318   1.480   5.099   2.211
  125SOPE     P13319   1.723   5.206   2.122
  125SOPE   O1313320   1.634   5.322   2.151
  125SOPE   O1413321   1.835   5.234   2.031
  125SOPE   O1213322   1.631   5.091   2.063
  125SOPE   O1113323   1.772   5.141   2.255
  125SOPE    C113324   1.855   5.204   2.352
  125SOPE    HA13325   1.865   5.314   2.337
  125SOPE    HB13326   1.957   5.160   2.345
  125SOPE    C213327   1.800   5.177   2.495
  125SOPE    HS13328   1.884   5.185   2.568
  125SOPE   O2113329   1.737   5.050   2.506
  125SOPE   C2113330   1.807   4.943   2.478
  125SOPE   O2213331   1.925   4.936   2.447
  125SOPE   C2213332   1.717   4.822   2.504
  125SOPE   H2R13333   1.780   4.730   2.501
  125SOPE   H2S13334   1.644   4.818   2.420
  125SOPE    C313335   1.692   5.282   2.535
  125SOPE    HX13336   1.616   5.280   2.454
  125SOPE    HY13337   1.736   5.384   2.535
  125SOPE   O3113338   1.626   5.252   2.660
  125SOPE   C3113339   1.697   5.279   2.769
  125SOPE   O3213340   1.809   5.327   2.769
  125SOPE   C3213341   1.619   5.245   2.897
  125SOPE   H2X13342   1.600   5.341   2.949
  125SOPE   H2Y13343   1.685   5.182   2.961
  125SOPE   C2313344   1.641   4.833   2.638
  125SOPE   H3R13345   1.550   4.770   2.631
  125SOPE   H3S13346   1.604   4.936   2.658
  125SOPE   C2413347   1.723   4.783   2.758
  125SOPE   H4R13348   1.660   4.793   2.849
  125SOPE   H4S13349   1.745   4.675   2.745
  125SOPE   C2513350   1.856   4.857   2.780
  125SOPE   H5R13351   1.918   4.852   2.688
  125SOPE   H5S13352   1.836   4.965   2.802
  125SOPE   C2613353   1.942   4.795   2.890
  125SOPE   H6R13354   1.968   4.692   2.857
  125SOPE   H6S13355   2.039   4.847   2.900
  125SOPE   C2713356   1.875   4.783   3.027
  125SOPE   H7R13357   1.809   4.695   3.013
  125SOPE   H7S13358   1.953   4.753   3.100
  125SOPE   C2813359   1.786   4.899   3.080
  125SOPE   H8R13360   1.799   4.988   3.016
  125SOPE   H8S13361   1.679   4.869   3.072
  125SOPE   C2913362   1.823   4.932   3.222
  125SOPE   H9113363   1.930   4.956   3.230
  125SOPE  C21013364   1.751   4.931   3.335
  125SOPE  H10113365   1.802   4.960   3.428
  125SOPE  C21113366   1.606   4.895   3.357
  125SOPE  H11R13367   1.556   4.863   3.263
  125SOPE  H11S13368   1.554   4.988   3.392
  125SOPE  C21213369   1.576   4.789   3.465
  125SOPE  H12R13370   1.598   4.688   3.423
  125SOPE  H12S13371   1.467   4.789   3.486
  125SOPE  C21313372   1.650   4.807   3.599
  125SOPE  H13R13373   1.760   4.794   3.584
  125SOPE  H13S13374   1.617   4.728   3.669
  125SOPE  C21413375   1.625   4.945   3.663
  125SOPE  H14R13376   1.516   4.963   3.669
  125SOPE  H14S13377   1.668   5.023   3.597
  125SOPE  C21513378   1.687   4.961   3.802
  125SOPE  H15R13379   1.722   5.066   3.811
  125SOPE  H15S13380   1.777   4.896   3.812
  125SOPE  C21613381   1.587   4.938   3.917
  125SOPE  H16R13382   1.497   4.996   3.890
  125SOPE  H16S13383   1.626   4.983   4.011
  125SOPE  C21713384   1.549   4.792   3.947
  125SOPE  H17R13385   1.492   4.751   3.861
  125SOPE  H17S13386   1.482   4.791   4.036
  125SOPE  C21813387   1.665   4.699   3.979
  125SOPE  H18R13388   1.628   4.597   4.000
  125SOPE  H18S13389   1.722   4.735   4.068
  125SOPE  H18T13390   1.735   4.694   3.893
  125SOPE   C3313391   1.484   5.172   2.874
  125SOPE   H3X13392   1.503   5.068   2.839
  125SOPE   H3Y13393   1.428   5.224   2.794
  125SOPE   C3413394   1.392   5.169   2.996
  125SOPE   H4X13395   1.297   5.123   2.962
  125SOPE   H4Y13396   1.370   5.273   3.028
  125SOPE   C3513397   1.441   5.088   3.117
  125SOPE   H5X13398   1.538   5.131   3.150
  125SOPE   H5Y13399   1.459   4.983   3.088
  125SOPE   C3613400   1.343   5.094   3.236
  125SOPE   H6X13401   1.283   5.187   3.229
  125SOPE   H6Y13402   1.401   5.103   3.331
  125SOPE   C3713403   1.250   4.972   3.249
  125SOPE   H7X13404   1.310   4.878   3.252
  125SOPE   H7Y13405   1.186   4.967   3.158
  125SOPE   C3813406   1.159   4.976   3.373
  125SOPE   H8X13407   1.073   4.907   3.360
  125SOPE   H8Y13408   1.118   5.079   3.384
  125SOPE   C3913409   1.229   4.943   3.505
  125SOPE   H9X13410   1.332   4.985   3.503
  125SOPE   H9Y13411   1.238   4.833   3.516
  125SOPE  C31013412   1.157   5.003   3.627
  125SOPE  H10X13413   1.054   4.963   3.634
  125SOPE  H10Y13414   1.151   5.113   3.615
  125SOPE  C31113415   1.235   4.973   3.754
  125SOPE  H11X13416   1.327   5.036   3.754
  125SOPE  H11Y13417   1.269   4.867   3.749
  125SOPE  C31213418   1.161   4.995   3.886
  125SOPE  H12X13419   1.071   4.930   3.890
  125SOPE  H12Y13420   1.128   5.100   3.898
  125SOPE  C31313421   1.259   4.956   3.997
  125SOPE  H13X13422   1.337   5.035   4.008
  125SOPE  H13Y13423   1.309   4.864   3.959
  125SOPE  C31413424   1.204   4.921   4.134
  125SOPE  H14X13425   1.283   4.869   4.193
  125SOPE  H14Y13426   1.119   4.849   4.123
  125SOPE  C31513427   1.156   5.042   4.212
  125SOPE  H15X13428   1.111   5.003   4.306
  125SOPE  H15Y13429   1.078   5.092   4.151
  125SOPE  C31613430   1.261   5.146   4.252
  125SOPE  H16X13431   1.205   5.239   4.277
  125SOPE  H16Y13432   1.330   5.172   4.168
  125SOPE  C31713433   1.340   5.107   4.378
  125SOPE  H17X13434   1.281   5.038   4.441
  125SOPE  H17Y13435   1.359   5.198   4.438
  125SOPE  C31813436   1.474   5.044   4.345
  125SOPE  H18X13437   1.531   5.026   4.439
  125SOPE  H18Y13438   1.532   5.111   4.279
  125SOPE  H18Z13439   1.461   4.947   4.292
  126SOPE     N13440   3.006   1.024   2.036
  126SOPE   HN113441   3.078   1.005   2.108
  126SOPE   HN213442   3.032   0.975   1.948
  126SOPE   HN313443   3.004   1.126   2.015
  126SOPE   C1213444   2.870   0.989   2.089
  126SOPE  H12A13445   2.868   1.019   2.195
  126SOPE  H12B13446   2.856   0.879   2.082
  126SOPE   C1113447   2.761   1.064   2.010
  126SOPE  H11A13448   2.664   1.057   2.063
  126SOPE  H11B13449   2.748   1.013   1.912
  126SOPE     P13450   2.781   1.319   2.084
  126SOPE   O1313451   2.714   1.430   2.014
  126SOPE   O1413452   2.917   1.344   2.137
  126SOPE   O1213453   2.798   1.199   1.983
  126SOPE   O1113454   2.685   1.258   2.193
  126SOPE    C113455   2.728   1.216   2.323
  126SOPE    HA13456   2.837   1.231   2.340
  126SOPE    HB13457   2.707   1.108   2.336
  126SOPE    C213458   2.653   1.291   2.436
  126SOPE    HS13459   2.546   1.263   2.429
  126SOPE   O2113460   2.669   1.433   2.417
  126SOPE   C2113461   2.602   1.505   2.506
  126SOPE   O2213462   2.504   1.466   2.567
  126SOPE   C2213463   2.674   1.638   2.526
  126SOPE   H2R13464   2.630   1.712   2.456
  126SOPE   H2S13465   2.782   1.624   2.502
  126SOPE    C313466   2.708   1.245   2.575
  126SOPE    HX13467   2.702   1.134   2.581
  126SOPE    HY13468   2.643   1.286   2.655
  126SOPE   O3113469   2.845   1.287   2.587
  126SOPE   C3113470   2.889   1.301   2.712
  126SOPE   O3213471   2.823   1.280   2.812
  126SOPE   C3213472   3.034   1.348   2.709
  126SOPE   H2X13473   3.036   1.455   2.680
  126SOPE   H2Y13474   3.089   1.288   2.633
  126SOPE   C2313475   2.658   1.688   2.671
  126SOPE   H3R13476   2.550   1.704   2.688
  126SOPE   H3S13477   2.706   1.788   2.680
  126SOPE   C2413478   2.718   1.592   2.775
  126SOPE   H4R13479   2.683   1.488   2.756
  126SOPE   H4S13480   2.829   1.593   2.765
  126SOPE   C2513481   2.680   1.623   2.920
  126SOPE   H5R13482   2.682   1.732   2.940
  126SOPE   H5S13483   2.576   1.591   2.942
  126SOPE   C2613484   2.766   1.549   3.023
  126SOPE   H6R13485   2.742   1.440   3.018
  126SOPE   H6S13486   2.874   1.560   3.002
  126SOPE   C2713487   2.735   1.604   3.162
  126SOPE   H7R13488   2.770   1.709   3.168
  126SOPE   H7S13489   2.624   1.606   3.175
  126SOPE   C2813490   2.795   1.524   3.277
  126SOPE   H8R13491   2.901   1.503   3.251
  126SOPE   H8S13492   2.795   1.587   3.368
  126SOPE   C2913493   2.718   1.397   3.302
  126SOPE   H9113494   2.632   1.378   3.236
  126SOPE  C21013495   2.749   1.310   3.399
  126SOPE  H10113496   2.689   1.219   3.413
  126SOPE  C21113497   2.865   1.330   3.493
  126SOPE  H11R13498   2.947   1.385   3.443
  126SOPE  H11S13499   2.908   1.232   3.523
  126SOPE  C21213500   2.826   1.410   3.617
  126SOPE  H12R13501   2.775   1.505   3.590
  126SOPE  H12S13502   2.920   1.438   3.669
  126SOPE  C21313503   2.738   1.327   3.712
  126SOPE  H13R13504   2.736   1.222   3.674
  126SOPE  H13S13505   2.634   1.365   3.713
  126SOPE  C21413506   2.798   1.324   3.853
  126SOPE  H14R13507   2.782   1.421   3.903
  126SOPE  H14S13508   2.907   1.309   3.841
  126SOPE  C21513509   2.746   1.210   3.941
  126SOPE  H15R13510   2.710   1.128   3.876
  126SOPE  H15S13511   2.659   1.246   4.001
  126SOPE  C21613512   2.856   1.154   4.032
  126SOPE  H16R13513   2.931   1.104   3.967
  126SOPE  H16S13514   2.811   1.077   4.098
  126SOPE  C21713515   2.929   1.257   4.119
  126SOPE  H17R13516   2.854   1.312   4.180
  126SOPE  H17S13517   2.980   1.331   4.054
  126SOPE  C21813518   3.033   1.190   4.209
  126SOPE  H18R13519   3.109   1.137   4.148
  126SOPE  H18S13520   2.984   1.116   4.276
  126SOPE  H18T13521   3.085   1.266   4.272
  126SOPE   C3313522   3.097   1.329   2.848
  126SOPE   H3X13523   3.082   1.223   2.879
  126SOPE   H3Y13524   3.041   1.394   2.919
  126SOPE   C3413525   3.247   1.355   2.856
  126SOPE   H4X13526   3.267   1.459   2.821
  126SOPE   H4Y13527   3.300   1.286   2.788
  126SOPE   C3513528   3.302   1.339   2.998
  126SOPE   H5X13529   3.412   1.355   2.998
  126SOPE   H5Y13530   3.285   1.234   3.032
  126SOPE   C3613531   3.236   1.434   3.098
  126SOPE   H6X13532   3.127   1.415   3.101
  126SOPE   H6Y13533   3.250   1.540   3.065
  126SOPE   C3713534   3.286   1.417   3.242
  126SOPE   H7X13535   3.392   1.447   3.253
  126SOPE   H7Y13536   3.282   1.309   3.267
  126SOPE   C3813537   3.198   1.495   3.340
  126SOPE   H8X13538   3.092   1.470   3.318
  126SOPE   H8Y13539   3.209   1.604   3.323
  126SOPE   C3913540   3.228   1.460   3.486
  126SOPE   H9X13541   3.293   1.370   3.485
  126SOPE   H9Y13542   3.135   1.433   3.541
  126SOPE  C31013543   3.300   1.573   3.558
  126SOPE  H10X13544   3.367   1.620   3.484
  126SOPE  H10Y13545   3.363   1.534   3.640
  126SOPE  C31113546   3.205   1.677   3.618
  126SOPE  H11X13547   3.116   1.688   3.552
  126SOPE  H11Y13548   3.255   1.776   3.625
  126SOPE  C31213549   3.163   1.632   3.758
  126SOPE  H12X13550   3.249   1.640   3.828
  126SOPE  H12Y13551   3.134   1.525   3.752
  126SOPE  C31313552   3.044   1.711   3.810
  126SOPE  H13X13553   2.969   1.721   3.729
  126SOPE  H13Y13554   3.075   1.813   3.840
  126SOPE  C31413555   2.979   1.638   3.928
  126SOPE  H14X13556   3.048   1.641   4.015
  126SOPE  H14Y13557   2.964   1.531   3.902
  126SOPE  C31513558   2.844   1.702   3.960
  126SOPE  H15X13559   2.768   1.661   3.891
  126SOPE  H15Y13560   2.854   1.811   3.937
  126SOPE  C31613561   2.798   1.689   4.105
  126SOPE  H16X13562   2.827   1.588   4.141
  126SOPE  H16Y13563   2.687   1.694   4.107
  126SOPE  C31713564   2.850   1.801   4.198
  126SOPE  H17X13565   2.818   1.777   4.302
  126SOPE  H17Y13566   2.799   1.895   4.170
  126SOPE  C31813567   3.001   1.826   4.199
  126SOPE  H18X13568   3.057   1.734   4.228
  126SOPE  H18Y13569   3.027   1.907   4.271
  126SOPE  H18Z13570   3.036   1.857   4.098
  127SOPE     N13571   6.362   2.361   1.944
  127SOPE   HN113572   6.465   2.359   1.958
  127SOPE   HN213573   6.333   2.438   1.880
  127SOPE   HN313574   6.320   2.380   2.037
  127SOPE   C1213575   6.306   2.228   1.899
  127SOPE  H12A13576   6.354   2.199   1.803
  127SOPE  H12B13577   6.197   2.243   1.881
  127SOPE   C1113578   6.323   2.119   2.007
  127SOPE  H11A13579   6.422   2.069   1.992
  127SOPE  H11B13580   6.246   2.040   1.994
  127SOPE     P13581   6.189   2.248   2.191
  127SOPE   O1313582   6.077   2.214   2.101
  127SOPE   O1413583   6.231   2.391   2.188
  127SOPE   O1213584   6.318   2.171   2.140
  127SOPE   O1113585   6.170   2.189   2.336
  127SOPE    C113586   6.158   2.045   2.345
  127SOPE    HA13587   6.255   1.995   2.326
  127SOPE    HB13588   6.083   2.007   2.273
  127SOPE    C213589   6.105   1.998   2.484
  127SOPE    HS13590   6.068   1.894   2.470
  127SOPE   O2113591   5.996   2.083   2.518
  127SOPE   C2113592   5.932   2.068   2.631
  127SOPE   O2213593   5.948   1.981   2.714
  127SOPE   C2213594   5.831   2.181   2.643
  127SOPE   H2R13595   5.772   2.165   2.735
  127SOPE   H2S13596   5.764   2.173   2.555
  127SOPE    C313597   6.218   1.989   2.593
  127SOPE    HX13598   6.295   1.920   2.553
  127SOPE    HY13599   6.178   1.939   2.684
  127SOPE   O3113600   6.273   2.116   2.631
  127SOPE   C3113601   6.381   2.157   2.565
  127SOPE   O3213602   6.434   2.101   2.471
  127SOPE   C3213603   6.431   2.285   2.632
  127SOPE   H2X13604   6.341   2.344   2.660
  127SOPE   H2Y13605   6.489   2.343   2.558
  127SOPE   C2313606   5.901   2.319   2.646
  127SOPE   H3R13607   5.824   2.396   2.665
  127SOPE   H3S13608   5.947   2.340   2.547
  127SOPE   C2413609   6.009   2.322   2.754
  127SOPE   H4R13610   5.972   2.262   2.840
  127SOPE   H4S13611   6.100   2.270   2.718
  127SOPE   C2513612   6.048   2.462   2.803
  127SOPE   H5R13613   6.093   2.519   2.719
  127SOPE   H5S13614   5.958   2.518   2.835
  127SOPE   C2613615   6.148   2.453   2.919
  127SOPE   H6R13616   6.124   2.372   2.991
  127SOPE   H6S13617   6.242   2.425   2.868
  127SOPE   C2713618   6.168   2.585   2.993
  127SOPE   H7R13619   6.277   2.603   3.010
  127SOPE   H7S13620   6.134   2.665   2.923
  127SOPE   C2813621   6.092   2.600   3.126
  127SOPE   H8R13622   6.074   2.710   3.135
  127SOPE   H8S13623   5.992   2.553   3.119
  127SOPE   C2913624   6.167   2.562   3.251
  127SOPE   H9113625   6.274   2.584   3.247
  127SOPE  C21013626   6.119   2.522   3.370
  127SOPE  H10113627   6.191   2.497   3.449
  127SOPE  C21113628   5.975   2.507   3.409
  127SOPE  H11R13629   5.955   2.400   3.434
  127SOPE  H11S13630   5.907   2.535   3.326
  127SOPE  C21213631   5.939   2.588   3.534
  127SOPE  H12R13632   5.829   2.586   3.547
  127SOPE  H12S13633   5.968   2.695   3.521
  127SOPE  C21313634   6.005   2.529   3.659
  127SOPE  H13R13635   6.115   2.540   3.652
  127SOPE  H13S13636   5.981   2.420   3.661
  127SOPE  C21413637   5.956   2.594   3.789
  127SOPE  H14R13638   5.847   2.571   3.798
  127SOPE  H14S13639   5.967   2.704   3.781
  127SOPE  C21513640   6.031   2.543   3.913
  127SOPE  H15R13641   5.998   2.601   4.002
  127SOPE  H15S13642   6.139   2.564   3.897
  127SOPE  C21613643   6.012   2.394   3.940
  127SOPE  H16R13644   6.032   2.335   3.847
  127SOPE  H16S13645   5.905   2.378   3.967
  127SOPE  C21713646   6.101   2.337   4.051
  127SOPE  H17R13647   6.077   2.388   4.147
  127SOPE  H17S13648   6.207   2.359   4.027
  127SOPE  C21813649   6.085   2.186   4.067
  127SOPE  H18R13650   6.099   2.134   3.970
  127SOPE  H18S13651   5.983   2.162   4.105
  127SOPE  H18T13652   6.160   2.145   4.139
  127SOPE   C3313653   6.518   2.258   2.758
  127SOPE   H3X13654   6.624   2.275   2.731
  127SOPE   H3Y13655   6.510   2.153   2.794
  127SOPE   C3413656   6.477   2.351   2.872
  127SOPE   H4X13657   6.397   2.306   2.934
  127SOPE   H4Y13658   6.437   2.442   2.822
  127SOPE   C3513659   6.590   2.401   2.962
  127SOPE   H5X13660   6.679   2.413   2.895
  127SOPE   H5Y13661   6.617   2.327   3.040
  127SOPE   C3613662   6.554   2.538   3.021
  127SOPE   H6X13663   6.481   2.588   2.954
  127SOPE   H6Y13664   6.642   2.606   3.015
  127SOPE   C3713665   6.496   2.535   3.162
  127SOPE   H7X13666   6.406   2.470   3.157
  127SOPE   H7Y13667   6.466   2.639   3.189
  127SOPE   C3813668   6.584   2.480   3.275
  127SOPE   H8X13669   6.687   2.522   3.264
  127SOPE   H8Y13670   6.592   2.370   3.261
  127SOPE   C3913671   6.531   2.509   3.417
  127SOPE   H9X13672   6.421   2.526   3.415
  127SOPE   H9Y13673   6.579   2.601   3.456
  127SOPE  C31013674   6.560   2.390   3.510
  127SOPE  H10X13675   6.665   2.361   3.489
  127SOPE  H10Y13676   6.493   2.306   3.482
  127SOPE  C31113677   6.553   2.412   3.662
  127SOPE  H11X13678   6.638   2.480   3.688
  127SOPE  H11Y13679   6.575   2.316   3.713
  127SOPE  C31213680   6.421   2.466   3.719
  127SOPE  H12X13681   6.337   2.407   3.678
  127SOPE  H12Y13682   6.406   2.571   3.685
  127SOPE  C31313683   6.412   2.460   3.874
  127SOPE  H13X13684   6.373   2.359   3.902
  127SOPE  H13Y13685   6.338   2.536   3.907
  127SOPE  C31413686   6.542   2.483   3.953
  127SOPE  H14X13687   6.617   2.526   3.883
  127SOPE  H14Y13688   6.583   2.387   3.991
  127SOPE  C31513689   6.529   2.585   4.067
  127SOPE  H15X13690   6.474   2.674   4.029
  127SOPE  H15Y13691   6.630   2.619   4.099
  127SOPE  C31613692   6.464   2.539   4.197
  127SOPE  H16X13693   6.371   2.480   4.179
  127SOPE  H16Y13694   6.436   2.633   4.248
  127SOPE  C31713695   6.560   2.471   4.294
  127SOPE  H17X13696   6.664   2.506   4.278
  127SOPE  H17Y13697   6.558   2.361   4.277
  127SOPE  C31813698   6.519   2.507   4.436
  127SOPE  H18X13699   6.567   2.441   4.512
  127SOPE  H18Y13700   6.409   2.497   4.443
  127SOPE  H18Z13701   6.544   2.613   4.460
  128SOPE     N13702   0.303   1.658   2.135
  128SOPE   HN113703   0.218   1.618   2.179
  128SOPE   HN213704   0.332   1.597   2.056
  128SOPE   HN313705   0.381   1.653   2.204
  128SOPE   C1213706   0.285   1.803   2.096
  128SOPE  H12A13707   0.198   1.841   2.153
  128SOPE  H12B13708   0.264   1.808   1.987
  128SOPE   C1113709   0.409   1.889   2.130
  128SOPE  H11A13710   0.433   1.877   2.238
  128SOPE  H11B13711   0.380   1.996   2.120
  128SOPE     P13712   0.645   1.785   2.101
  128SOPE   O1313713   0.711   1.868   2.203
  128SOPE   O1413714   0.727   1.730   1.991
  128SOPE   O1213715   0.520   1.863   2.042
  128SOPE   O1113716   0.566   1.670   2.169
  128SOPE    C113717   0.608   1.540   2.204
  128SOPE    HA13718   0.665   1.492   2.121
  128SOPE    HB13719   0.517   1.477   2.219
  128SOPE    C213720   0.687   1.529   2.338
  128SOPE    HS13721   0.677   1.426   2.376
  128SOPE   O2113722   0.647   1.622   2.441
  128SOPE   C2113723   0.526   1.670   2.457
  128SOPE   O2213724   0.427   1.652   2.387
  128SOPE   C2213725   0.520   1.755   2.585
  128SOPE   H2R13726   0.429   1.817   2.576
  128SOPE   H2S13727   0.609   1.822   2.588
  128SOPE    C313728   0.837   1.555   2.309
  128SOPE    HX13729   0.851   1.662   2.281
  128SOPE    HY13730   0.866   1.494   2.221
  128SOPE   O3113731   0.915   1.513   2.422
  128SOPE   C3113732   0.958   1.613   2.500
  128SOPE   O3213733   0.984   1.726   2.464
  128SOPE   C3213734   0.966   1.556   2.641
  128SOPE   H2X13735   1.037   1.470   2.636
  128SOPE   H2Y13736   0.865   1.513   2.663
  128SOPE   C2313737   0.512   1.669   2.714
  128SOPE   H3R13738   0.613   1.639   2.747
  128SOPE   H3S13739   0.457   1.575   2.694
  128SOPE   C2413740   0.438   1.742   2.828
  128SOPE   H4R13741   0.499   1.828   2.864
  128SOPE   H4S13742   0.346   1.787   2.786
  128SOPE   C2513743   0.403   1.649   2.946
  128SOPE   H5R13744   0.361   1.553   2.909
  128SOPE   H5S13745   0.500   1.624   2.995
  128SOPE   C2613746   0.303   1.709   3.048
  128SOPE   H6R13747   0.333   1.814   3.070
  128SOPE   H6S13748   0.203   1.717   3.002
  128SOPE   C2713749   0.291   1.634   3.183
  128SOPE   H7R13750   0.256   1.708   3.258
  128SOPE   H7S13751   0.210   1.558   3.174
  128SOPE   C2813752   0.421   1.563   3.228
  128SOPE   H8R13753   0.442   1.489   3.149
  128SOPE   H8S13754   0.503   1.638   3.224
  128SOPE   C2913755   0.431   1.490   3.359
  128SOPE   H9113756   0.456   1.383   3.350
  128SOPE  C21013757   0.429   1.544   3.482
  128SOPE  H10113758   0.438   1.482   3.572
  128SOPE  C21113759   0.414   1.692   3.499
  128SOPE  H11R13760   0.318   1.718   3.449
  128SOPE  H11S13761   0.493   1.745   3.442
  128SOPE  C21213762   0.408   1.752   3.640
  128SOPE  H12R13763   0.512   1.778   3.669
  128SOPE  H12S13764   0.374   1.678   3.716
  128SOPE  C21313765   0.317   1.876   3.634
  128SOPE  H13R13766   0.243   1.864   3.552
  128SOPE  H13S13767   0.378   1.963   3.603
  128SOPE  C21413768   0.230   1.920   3.754
  128SOPE  H14R13769   0.128   1.881   3.732
  128SOPE  H14S13770   0.225   2.031   3.752
  128SOPE  C21513771   0.259   1.881   3.897
  128SOPE  H15R13772   0.319   1.963   3.942
  128SOPE  H15S13773   0.317   1.787   3.905
  128SOPE  C21613774   0.126   1.881   3.974
  128SOPE  H16R13775   0.052   1.817   3.921
  128SOPE  H16S13776   0.089   1.985   3.966
  128SOPE  C21713777   0.132   1.840   4.121
  128SOPE  H17R13778   0.221   1.776   4.139
  128SOPE  H17S13779   0.042   1.778   4.143
  128SOPE  C21813780   0.130   1.960   4.217
  128SOPE  H18R13781   0.036   2.018   4.205
  128SOPE  H18S13782   0.215   2.028   4.194
  128SOPE  H18T13783   0.138   1.926   4.322
  128SOPE   C3313784   1.003   1.655   2.752
  128SOPE   H3X13785   1.072   1.736   2.717
  128SOPE   H3Y13786   1.054   1.601   2.835
  128SOPE   C3413787   0.875   1.714   2.809
  128SOPE   H4X13788   0.808   1.630   2.835
  128SOPE   H4Y13789   0.825   1.774   2.730
  128SOPE   C3513790   0.888   1.801   2.934
  128SOPE   H5X13791   0.951   1.891   2.915
  128SOPE   H5Y13792   0.933   1.743   3.017
  128SOPE   C3613793   0.746   1.842   2.970
  128SOPE   H6X13794   0.686   1.748   2.968
  128SOPE   H6Y13795   0.706   1.908   2.889
  128SOPE   C3713796   0.721   1.908   3.105
  128SOPE   H7X13797   0.762   2.011   3.108
  128SOPE   H7Y13798   0.768   1.848   3.185
  128SOPE   C3813799   0.569   1.908   3.123
  128SOPE   H8X13800   0.538   1.803   3.106
  128SOPE   H8Y13801   0.520   1.972   3.047
  128SOPE   C3913802   0.521   1.942   3.262
  128SOPE   H9X13803   0.587   1.891   3.336
  128SOPE   H9Y13804   0.417   1.907   3.277
  128SOPE  C31013805   0.524   2.092   3.283
  128SOPE  H10X13806   0.455   2.141   3.211
  128SOPE  H10Y13807   0.628   2.128   3.262
  128SOPE  C31113808   0.485   2.126   3.425
  128SOPE  H11X13809   0.387   2.078   3.445
  128SOPE  H11Y13810   0.469   2.236   3.434
  128SOPE  C31213811   0.592   2.084   3.525
  128SOPE  H12X13812   0.690   2.111   3.481
  128SOPE  H12Y13813   0.591   1.973   3.534
  128SOPE  C31313814   0.578   2.147   3.664
  128SOPE  H13X13815   0.480   2.199   3.672
  128SOPE  H13Y13816   0.659   2.221   3.680
  128SOPE  C31413817   0.585   2.039   3.771
  128SOPE  H14X13818   0.682   1.984   3.766
  128SOPE  H14Y13819   0.510   1.960   3.748
  128SOPE  C31513820   0.548   2.077   3.912
  128SOPE  H15X13821   0.443   2.114   3.914
  128SOPE  H15Y13822   0.609   2.162   3.950
  128SOPE  C31613823   0.567   1.951   3.998
  128SOPE  H16X13824   0.676   1.936   4.012
  128SOPE  H16Y13825   0.532   1.861   3.942
  128SOPE  C31713826   0.496   1.954   4.133
  128SOPE  H17X13827   0.393   1.915   4.123
  128SOPE  H17Y13828   0.490   2.059   4.169
  128SOPE  C31813829   0.569   1.867   4.233
  128SOPE  H18X13830   0.506   1.847   4.322
  128SOPE  H18Y13831   0.662   1.919   4.265
  128SOPE  H18Z13832   0.598   1.771   4.185
  129OSM      N13833   2.473   4.865   6.489
  129OSM    C1513834   2.497   4.727   6.435
  129OSM   H15A13835   2.567   4.735   6.353
  129OSM   H15B13836   2.405   4.689   6.394
  129OSM   H15C13837   2.537   4.661   6.510
  129OSM    C1413838   2.362   4.857   6.589
  129OSM   H14A13839   2.385   4.787   6.668
  129OSM   H14B13840   2.271   4.824   6.541
  129OSM   H14C13841   2.341   4.954   6.632
  129OSM    C1313842   2.598   4.918   6.551
  129OSM   H13A13843   2.677   4.922   6.478
  129OSM   H13B13844   2.630   4.858   6.635
  129OSM   H13C13845   2.583   5.020   6.586
  129OSM    C1213846   2.430   4.954   6.372
  129OSM   H12A13847   2.390   5.047   6.409
  129OSM   H12B13848   2.347   4.906   6.323
  129OSM    C1113849   2.539   4.989   6.266
  129OSM   H11A13850   2.604   5.067   6.311
  129OSM   H11B13851   2.488   5.036   6.179
  129OSM      P13852   2.768   4.871   6.218
  129OSM    O1313853   2.820   4.943   6.336
  129OSM    O1413854   2.813   4.731   6.202
  129OSM    O1113855   2.799   4.954   6.086
  129OSM    O1213856   2.611   4.873   6.222
  129OSM    C1S13857   2.743   4.913   5.960
  129OSM    H1S13858   2.635   4.890   5.970
  129OSM    H1T13859   2.795   4.822   5.923
  129OSM     NF13860   2.696   4.989   5.725
  129OSM    HNF13861   2.755   4.981   5.644
  129OSM    C2S13862   2.758   5.025   5.851
  129OSM    H2S13863   2.705   5.115   5.888
  129OSM    C3S13864   2.906   5.059   5.827
  129OSM    H3S13865   2.952   4.978   5.767
  129OSM     O313866   2.983   5.067   5.944
  129OSM    HO313867   2.923   5.037   6.013
  129OSM    C4S13868   2.915   5.189   5.751
  129OSM    H4S13869   2.886   5.279   5.807
  129OSM    C5S13870   2.958   5.197   5.625
  129OSM    H5S13871   2.985   5.104   5.572
  129OSM    C6S13872   2.971   5.321   5.540
  129OSM    H6S13873   3.075   5.360   5.542
  129OSM    H6T13874   2.904   5.402   5.577
  129OSM    C7S13875   2.936   5.287   5.395
  129OSM    H7S13876   3.012   5.217   5.353
  129OSM    H7T13877   2.942   5.379   5.333
  129OSM    C8S13878   2.797   5.225   5.376
  129OSM    H8S13879   2.721   5.284   5.430
  129OSM    H8T13880   2.797   5.122   5.418
  129OSM    C9S13881   2.761   5.218   5.228
  129OSM    H9S13882   2.849   5.183   5.171
  129OSM    H9T13883   2.739   5.321   5.192
  129OSM   C10S13884   2.643   5.126   5.200
  129OSM   H10S13885   2.554   5.168   5.252
  129OSM   H10T13886   2.661   5.025   5.242
  129OSM   C11S13887   2.615   5.113   5.049
  129OSM   H11S13888   2.674   5.027   5.011
  129OSM   H11T13889   2.651   5.204   4.997
  129OSM   C12S13890   2.466   5.096   5.017
  129OSM   H12S13891   2.424   5.198   5.004
  129OSM   H12T13892   2.412   5.047   5.100
  129OSM   C13S13893   2.438   5.022   4.886
  129OSM   H13S13894   2.437   4.912   4.903
  129OSM   H13T13895   2.521   5.043   4.815
  129OSM   C14S13896   2.307   5.069   4.822
  129OSM   H14S13897   2.301   5.180   4.831
  129OSM   H14T13898   2.219   5.026   4.876
  129OSM   C15S13899   2.300   5.036   4.673
  129OSM   H15S13900   2.399   5.062   4.628
  129OSM   H15T13901   2.223   5.099   4.624
  129OSM   C16S13902   2.268   4.889   4.645
  129OSM   H16S13903   2.158   4.875   4.653
  129OSM   H16T13904   2.316   4.824   4.721
  129OSM   C17S13905   2.318   4.845   4.506
  129OSM   H17S13906   2.272   4.746   4.482
  129OSM   H17T13907   2.428   4.831   4.513
  129OSM   C18S13908   2.288   4.942   4.392
  129OSM   H18S13909   2.337   5.040   4.409
  129OSM   H18T13910   2.179   4.958   4.380
  129OSM   H18U13911   2.329   4.900   4.298
  129OSM    C1F13912   2.566   4.970   5.714
  129OSM     OF13913   2.491   4.998   5.806
  129OSM    C2F13914   2.519   4.915   5.584
  129OSM    H2F13915   2.606   4.884   5.522
  129OSM    H2G13916   2.465   4.994   5.527
  129OSM    C3F13917   2.427   4.795   5.611
  129OSM    H3F13918   2.389   4.758   5.513
  129OSM    H3G13919   2.338   4.831   5.667
  129OSM    C4F13920   2.494   4.680   5.690
  129OSM    H4F13921   2.422   4.596   5.695
  129OSM    H4G13922   2.512   4.714   5.794
  129OSM    C5F13923   2.627   4.628   5.630
  129OSM    H5F13924   2.660   4.539   5.687
  129OSM    H5G13925   2.705   4.706   5.639
  129OSM    C6F13926   2.608   4.590   5.483
  129OSM    H6F13927   2.574   4.681   5.429
  129OSM    H6G13928   2.527   4.514   5.478
  129OSM    C7F13929   2.728   4.537   5.403
  129OSM    H7F13930   2.769   4.445   5.451
  129OSM    H7G13931   2.807   4.615   5.400
  129OSM    C8F13932   2.677   4.506   5.260
  129OSM    H8F13933   2.628   4.602   5.233
  129OSM    H8G13934   2.597   4.430   5.277
  129OSM    C9F13935   2.750   4.462   5.136
  129OSM    H9F13936   2.773   4.355   5.131
  129OSM   C10F13937   2.785   4.541   5.032
  129OSM   H10F13938   2.836   4.495   4.946
  129OSM   C11F13939   2.763   4.691   5.018
  129OSM   H11F13940   2.863   4.738   5.010
  129OSM   H11G13941   2.717   4.735   5.109
  129OSM   C12F13942   2.683   4.740   4.896
  129OSM   H12F13943   2.671   4.850   4.904
  129OSM   H12G13944   2.580   4.698   4.895
  129OSM   C13F13945   2.751   4.711   4.763
  129OSM   H13F13946   2.776   4.603   4.756
  129OSM   H13G13947   2.846   4.768   4.759
  129OSM   C14F13948   2.664   4.748   4.642
  129OSM   H14F13949   2.636   4.855   4.646
  129OSM   H14G13950   2.571   4.688   4.645
  129OSM   C15F13951   2.742   4.719   4.513
  129OSM   H15F13952   2.777   4.614   4.518
  129OSM   H15G13953   2.831   4.785   4.511
  129OSM   C16F13954   2.662   4.735   4.382
  129OSM   H16F13955   2.559   4.697   4.397
  129OSM   H16G13956   2.710   4.671   4.305
  129OSM   C17F13957   2.657   4.877   4.326
  129OSM   H17F13958   2.618   4.947   4.403
  129OSM   H17G13959   2.584   4.877   4.242
  129OSM   C18F13960   2.791   4.928   4.272
  129OSM   H18F13961   2.835   4.854   4.202
  129OSM   H18G13962   2.863   4.945   4.355
  129OSM   H18H13963   2.778   5.024   4.218
  130OSM      N13964   3.613   5.472   6.283
  130OSM    C1513965   3.530   5.507   6.403
  130OSM   H15A13966   3.432   5.463   6.398
  130OSM   H15B13967   3.524   5.614   6.419
  130OSM   H15C13968   3.578   5.463   6.489
  130OSM    C1413969   3.553   5.531   6.159
  130OSM   H14A13970   3.456   5.488   6.138
  130OSM   H14B13971   3.617   5.514   6.074
  130OSM   H14C13972   3.542   5.638   6.170
  130OSM    C1313973   3.750   5.531   6.303
  130OSM   H13A13974   3.798   5.481   6.387
  130OSM   H13B13975   3.748   5.636   6.328
  130OSM   H13C13976   3.814   5.517   6.218
  130OSM    C1213977   3.627   5.321   6.275
  130OSM   H12A13978   3.715   5.297   6.218
  130OSM   H12B13979   3.541   5.278   6.225
  130OSM    C1113980   3.641   5.244   6.410
  130OSM   H11A13981   3.651   5.135   6.388
  130OSM   H11B13982   3.547   5.253   6.468
  130OSM      P13983   3.894   5.235   6.465
  130OSM    O1313984   3.990   5.330   6.523
  130OSM    O1413985   3.898   5.095   6.513
  130OSM    O1113986   3.903   5.239   6.307
  130OSM    O1213987   3.749   5.294   6.489
  130OSM    C1S13988   4.008   5.309   6.241
  130OSM    H1S13989   4.107   5.285   6.285
  130OSM    H1T13990   3.994   5.419   6.249
  130OSM     NF13991   3.894   5.315   6.019
  130OSM    HNF13992   3.835   5.243   5.983
  130OSM    C2S13993   4.011   5.268   6.091
  130OSM    H2S13994   4.100   5.315   6.043
  130OSM    C3S13995   4.027   5.115   6.082
  130OSM    H3S13996   3.960   5.064   6.154
  130OSM     O313997   4.161   5.075   6.113
  130OSM    HO313998   4.192   5.138   6.179
  130OSM    C4S13999   3.994   5.070   5.943
  130OSM    H4S14000   4.068   5.099   5.867
  130OSM    C5S14001   3.884   5.000   5.905
  130OSM    H5S14002   3.812   4.967   5.981
  130OSM    C6S14003   3.855   4.956   5.764
  130OSM    H6S14004   3.764   4.893   5.761
  130OSM    H6T14005   3.937   4.889   5.728
  130OSM    C7S14006   3.843   5.065   5.655
  130OSM    H7S14007   3.872   5.016   5.560
  130OSM    H7T14008   3.915   5.148   5.670
  130OSM    C8S14009   3.701   5.118   5.637
  130OSM    H8S14010   3.685   5.206   5.702
  130OSM    H8T14011   3.628   5.040   5.668
  130OSM    C9S14012   3.673   5.154   5.490
  130OSM    H9S14013   3.761   5.207   5.448
  130OSM    H9T14014   3.587   5.225   5.486
  130OSM   C10S14015   3.638   5.032   5.403
  130OSM   H10S14016   3.549   4.981   5.446
  130OSM   H10T14017   3.721   4.958   5.405
  130OSM   C11S14018   3.608   5.069   5.258
  130OSM   H11S14019   3.545   5.160   5.254
  130OSM   H11T14020   3.550   4.987   5.210
  130OSM   C12S14021   3.736   5.091   5.177
  130OSM   H12S14022   3.792   4.994   5.174
  130OSM   H12T14023   3.801   5.164   5.230
  130OSM   C13S14024   3.712   5.139   5.034
  130OSM   H13S14025   3.668   5.241   5.035
  130OSM   H13T14026   3.639   5.071   4.984
  130OSM   C14S14027   3.843   5.138   4.955
  130OSM   H14S14028   3.889   5.038   4.969
  130OSM   H14T14029   3.913   5.214   4.997
  130OSM   C15S14030   3.828   5.163   4.805
  130OSM   H15S14031   3.755   5.092   4.762
  130OSM   H15T14032   3.926   5.142   4.757
  130OSM   C16S14033   3.788   5.307   4.771
  130OSM   H16S14034   3.838   5.379   4.840
  130OSM   H16T14035   3.678   5.318   4.785
  130OSM   C17S14036   3.825   5.346   4.627
  130OSM   H17S14037   3.934   5.364   4.621
  130OSM   H17T14038   3.774   5.441   4.601
  130OSM   C18S14039   3.787   5.240   4.525
  130OSM   H18S14040   3.790   5.283   4.422
  130OSM   H18T14041   3.685   5.201   4.544
  130OSM   H18U14042   3.858   5.154   4.529
  130OSM    C1F14043   3.876   5.440   5.980
  130OSM     OF14044   3.945   5.531   6.023
  130OSM    C2F14045   3.771   5.459   5.875
  130OSM    H2F14046   3.671   5.430   5.915
  130OSM    H2G14047   3.795   5.389   5.792
  130OSM    C3F14048   3.768   5.603   5.821
  130OSM    H3F14049   3.870   5.630   5.788
  130OSM    H3G14050   3.738   5.674   5.901
  130OSM    C4F14051   3.675   5.620   5.700
  130OSM    H4F14052   3.669   5.728   5.675
  130OSM    H4G14053   3.572   5.585   5.724
  130OSM    C5F14054   3.728   5.545   5.577
  130OSM    H5F14055   3.726   5.435   5.595
  130OSM    H5G14056   3.833   5.576   5.563
  130OSM    C6F14057   3.650   5.574   5.449
  130OSM    H6F14058   3.655   5.683   5.427
  130OSM    H6G14059   3.543   5.548   5.463
  130OSM    C7F14060   3.704   5.497   5.327
  130OSM    H7F14061   3.647   5.530   5.237
  130OSM    H7G14062   3.685   5.389   5.340
  130OSM    C8F14063   3.855   5.520   5.304
  130OSM    H8F14064   3.912   5.483   5.391
  130OSM    H8G14065   3.871   5.630   5.299
  130OSM    C9F14066   3.905   5.449   5.181
  130OSM    H9F14067   3.899   5.339   5.185
  130OSM   C10F14068   3.954   5.505   5.069
  130OSM   H10F14069   3.987   5.440   4.987
  130OSM   C11F14070   3.970   5.652   5.044
  130OSM   H11F14071   4.075   5.670   5.009
  130OSM   H11G14072   3.955   5.715   5.134
  130OSM   C12F14073   3.878   5.707   4.935
  130OSM   H12F14074   3.889   5.644   4.844
  130OSM   H12G14075   3.911   5.810   4.908
  130OSM   C13F14076   3.731   5.715   4.980
  130OSM   H13F14077   3.723   5.788   5.063
  130OSM   H13G14078   3.699   5.616   5.019
  130OSM   C14F14079   3.638   5.756   4.866
  130OSM   H14F14080   3.673   5.852   4.823
  130OSM   H14G14081   3.535   5.772   4.907
  130OSM   C15F14082   3.631   5.648   4.758
  130OSM   H15F14083   3.593   5.554   4.804
  130OSM   H15G14084   3.732   5.626   4.717
  130OSM   C16F14085   3.542   5.685   4.640
  130OSM   H16F14086   3.443   5.718   4.677
  130OSM   H16G14087   3.526   5.591   4.583
  130OSM   C17F14088   3.602   5.790   4.546
  130OSM   H17F14089   3.701   5.753   4.510
  130OSM   H17G14090   3.621   5.883   4.603
  130OSM   C18F14091   3.513   5.820   4.426
  130OSM   H18F14092   3.562   5.893   4.358
  130OSM   H18G14093   3.417   5.865   4.461
  130OSM   H18H14094   3.490   5.728   4.369
  131OSM      N14095   4.323   1.719   6.430
  131OSM    C1514096   4.383   1.616   6.521
  131OSM   H15A14097   4.463   1.560   6.474
  131OSM   H15B14098   4.309   1.547   6.559
  131OSM   H15C14099   4.429   1.663   6.607
  131OSM    C1414100   4.433   1.791   6.358
  131OSM   H14A14101   4.507   1.829   6.428
  131OSM   H14B14102   4.390   1.875   6.306
  131OSM   H14C14103   4.484   1.727   6.288
  131OSM    C1314104   4.231   1.655   6.331
  131OSM   H13A14105   4.282   1.578   6.274
  131OSM   H13B14106   4.194   1.730   6.263
  131OSM   H13C14107   4.147   1.609   6.381
  131OSM    C1214108   4.247   1.821   6.513
  131OSM   H12A14109   4.319   1.880   6.567
  131OSM   H12B14110   4.191   1.768   6.590
  131OSM    C1114111   4.150   1.916   6.439
  131OSM   H11A14112   4.115   1.991   6.513
  131OSM   H11B14113   4.061   1.859   6.405
  131OSM      P14114   4.161   2.118   6.273
  131OSM    O1314115   4.015   2.114   6.255
  131OSM    O1414116   4.213   2.221   6.365
  131OSM    O1114117   4.232   2.138   6.133
  131OSM    O1214118   4.213   1.978   6.326
  131OSM    C1S14119   4.313   2.038   6.070
  131OSM    H1S14120   4.307   1.939   6.121
  131OSM    H1T14121   4.420   2.069   6.072
  131OSM     NF14122   4.312   1.889   5.871
  131OSM    HNF14123   4.377   1.888   5.796
  131OSM    C2S14124   4.270   2.019   5.921
  131OSM    H2S14125   4.159   2.022   5.916
  131OSM    C3S14126   4.326   2.138   5.838
  131OSM    H3S14127   4.436   2.144   5.856
  131OSM     O314128   4.271   2.262   5.879
  131OSM    HO314129   4.235   2.245   5.967
  131OSM    C4S14130   4.301   2.120   5.691
  131OSM    H4S14131   4.195   2.113   5.664
  131OSM    C5S14132   4.394   2.117   5.593
  131OSM    H5S14133   4.500   2.131   5.618
  131OSM    C6S14134   4.366   2.099   5.446
  131OSM    H6S14135   4.369   2.197   5.394
  131OSM    H6T14136   4.263   2.058   5.430
  131OSM    C7S14137   4.465   2.004   5.375
  131OSM    H7S14138   4.471   1.908   5.431
  131OSM    H7T14139   4.567   2.049   5.375
  131OSM    C8S14140   4.427   1.970   5.229
  131OSM    H8S14141   4.324   1.926   5.229
  131OSM    H8T14142   4.496   1.891   5.193
  131OSM    C9S14143   4.432   2.087   5.130
  131OSM    H9S14144   4.534   2.129   5.127
  131OSM    H9T14145   4.363   2.168   5.164
  131OSM   C10S14146   4.390   2.043   4.988
  131OSM   H10S14147   4.288   2.000   4.994
  131OSM   H10T14148   4.458   1.962   4.954
  131OSM   C11S14149   4.390   2.155   4.882
  131OSM   H11S14150   4.494   2.189   4.864
  131OSM   H11T14151   4.332   2.242   4.920
  131OSM   C12S14152   4.326   2.106   4.751
  131OSM   H12S14153   4.221   2.078   4.772
  131OSM   H12T14154   4.378   2.014   4.717
  131OSM   C13S14155   4.326   2.207   4.635
  131OSM   H13S14156   4.295   2.307   4.673
  131OSM   H13T14157   4.250   2.173   4.561
  131OSM   C14S14158   4.461   2.220   4.562
  131OSM   H14S14159   4.501   2.120   4.538
  131OSM   H14T14160   4.533   2.269   4.632
  131OSM   C15S14161   4.454   2.305   4.433
  131OSM   H15S14162   4.557   2.322   4.396
  131OSM   H15T14163   4.411   2.404   4.459
  131OSM   C16S14164   4.371   2.246   4.316
  131OSM   H16S14165   4.365   2.326   4.239
  131OSM   H16T14166   4.267   2.224   4.347
  131OSM   C17S14167   4.433   2.123   4.248
  131OSM   H17S14168   4.543   2.126   4.257
  131OSM   H17T14169   4.409   2.127   4.139
  131OSM   C18S14170   4.381   1.989   4.301
  131OSM   H18S14171   4.426   1.904   4.246
  131OSM   H18T14172   4.271   1.983   4.293
  131OSM   H18U14173   4.409   1.980   4.409
  131OSM    C1F14174   4.260   1.775   5.916
  131OSM     OF14175   4.180   1.771   6.009
  131OSM    C2F14176   4.306   1.650   5.852
  131OSM    H2F14177   4.360   1.592   5.930
  131OSM    H2G14178   4.378   1.672   5.770
  131OSM    C3F14179   4.187   1.567   5.800
  131OSM    H3F14180   4.118   1.542   5.883
  131OSM    H3G14181   4.225   1.471   5.759
  131OSM    C4F14182   4.107   1.635   5.688
  131OSM    H4F14183   4.053   1.722   5.730
  131OSM    H4G14184   4.031   1.563   5.651
  131OSM    C5F14185   4.191   1.678   5.567
  131OSM    H5F14186   4.242   1.590   5.524
  131OSM    H5G14187   4.269   1.751   5.599
  131OSM    C6F14188   4.108   1.746   5.457
  131OSM    H6F14189   4.036   1.674   5.415
  131OSM    H6G14190   4.177   1.777   5.375
  131OSM    C7F14191   4.033   1.871   5.508
  131OSM    H7F14192   4.101   1.927   5.576
  131OSM    H7G14193   3.945   1.839   5.568
  131OSM    C8F14194   3.990   1.965   5.395
  131OSM    H8F14195   4.080   2.002   5.342
  131OSM    H8G14196   3.940   2.054   5.440
  131OSM    C9F14197   3.895   1.896   5.301
  131OSM    H9F14198   3.805   1.856   5.350
  131OSM   C10F14199   3.907   1.881   5.169
  131OSM   H10F14200   3.829   1.827   5.114
  131OSM   C11F14201   4.021   1.930   5.084
  131OSM   H11F14202   4.117   1.932   5.139
  131OSM   H11G14203   4.001   2.034   5.050
  131OSM   C12F14204   4.037   1.845   4.957
  131OSM   H12F14205   4.097   1.908   4.888
  131OSM   H12G14206   3.940   1.826   4.907
  131OSM   C13F14207   4.111   1.713   4.984
  131OSM   H13F14208   4.047   1.645   5.044
  131OSM   H13G14209   4.201   1.736   5.045
  131OSM   C14F14210   4.157   1.643   4.856
  131OSM   H14F14211   4.071   1.599   4.802
  131OSM   H14G14212   4.225   1.560   4.884
  131OSM   C15F14213   4.231   1.740   4.762
  131OSM   H15F14214   4.283   1.816   4.824
  131OSM   H15G14215   4.158   1.793   4.696
  131OSM   C16F14216   4.339   1.673   4.678
  131OSM   H16F14217   4.295   1.597   4.611
  131OSM   H16G14218   4.404   1.623   4.753
  131OSM   C17F14219   4.419   1.776   4.598
  131OSM   H17F14220   4.479   1.837   4.668
  131OSM   H17G14221   4.345   1.843   4.549
  131OSM   C18F14222   4.513   1.721   4.490
  131OSM   H18F14223   4.598   1.666   4.536
  131OSM   H18G14224   4.557   1.803   4.430
  131OSM   H18H14225   4.459   1.652   4.422
  132OSM      N14226   5.297   5.171   6.513
  132OSM    C1514227   5.235   5.219   6.640
  132OSM   H15A14228   5.131   5.191   6.645
  132OSM   H15B14229   5.241   5.327   6.646
  132OSM   H15C14230   5.285   5.177   6.727
  132OSM    C1414231   5.443   5.205   6.512
  132OSM   H14A14232   5.487   5.172   6.419
  132OSM   H14B14233   5.496   5.163   6.596
  132OSM   H14C14234   5.454   5.312   6.510
  132OSM    C1314235   5.285   5.022   6.506
  132OSM   H13A14236   5.339   4.975   6.587
  132OSM   H13B14237   5.325   4.985   6.413
  132OSM   H13C14238   5.181   4.991   6.513
  132OSM    C1214239   5.231   5.236   6.392
  132OSM   H12A14240   5.130   5.199   6.382
  132OSM   H12B14241   5.284   5.207   6.303
  132OSM    C1114242   5.227   5.392   6.387
  132OSM   H11A14243   5.173   5.431   6.476
  132OSM   H11B14244   5.168   5.424   6.299
  132OSM      P14245   5.443   5.438   6.249
  132OSM    O1314246   5.567   5.514   6.270
  132OSM    O1414247   5.455   5.294   6.217
  132OSM    O1114248   5.347   5.505   6.143
  132OSM    O1214249   5.359   5.448   6.384
  132OSM    C1S14250   5.388   5.542   6.011
  132OSM    H1S14251   5.495   5.571   6.006
  132OSM    H1T14252   5.329   5.632   5.981
  132OSM     NF14253   5.371   5.497   5.768
  132OSM    HNF14254   5.287   5.526   5.723
  132OSM    C2S14255   5.362   5.434   5.900
  132OSM    H2S14256   5.441   5.356   5.909
  132OSM    C3S14257   5.225   5.361   5.921
  132OSM    H3S14258   5.145   5.438   5.922
  132OSM     O314259   5.212   5.286   6.041
  132OSM    HO314260   5.291   5.309   6.091
  132OSM    C4S14261   5.201   5.266   5.805
  132OSM    H4S14262   5.292   5.220   5.764
  132OSM    C5S14263   5.082   5.237   5.752
  132OSM    H5S14264   4.991   5.282   5.796
  132OSM    C6S14265   5.057   5.143   5.637
  132OSM    H6S14266   4.948   5.146   5.615
  132OSM    H6T14267   5.079   5.039   5.669
  132OSM    C7S14268   5.128   5.167   5.502
  132OSM    H7S14269   5.104   5.080   5.437
  132OSM    H7T14270   5.238   5.169   5.515
  132OSM    C8S14271   5.080   5.294   5.430
  132OSM    H8S14272   5.132   5.381   5.476
  132OSM    H8T14273   4.971   5.307   5.447
  132OSM    C9S14274   5.105   5.293   5.278
  132OSM    H9S14275   5.046   5.376   5.232
  132OSM    H9T14276   5.067   5.198   5.235
  132OSM   C10S14277   5.253   5.313   5.242
  132OSM   H10S14278   5.312   5.229   5.284
  132OSM   H10T14279   5.289   5.407   5.289
  132OSM   C11S14280   5.277   5.319   5.090
  132OSM   H11S14281   5.221   5.405   5.046
  132OSM   H11T14282   5.235   5.227   5.046
  132OSM   C12S14283   5.427   5.329   5.054
  132OSM   H12S14284   5.479   5.243   5.101
  132OSM   H12T14285   5.470   5.421   5.099
  132OSM   C13S14286   5.460   5.331   4.904
  132OSM   H13S14287   5.571   5.328   4.893
  132OSM   H13T14288   5.424   5.424   4.856
  132OSM   C14S14289   5.398   5.211   4.834
  132OSM   H14S14290   5.289   5.232   4.824
  132OSM   H14T14291   5.412   5.124   4.901
  132OSM   C15S14292   5.454   5.174   4.697
  132OSM   H15S14293   5.434   5.066   4.681
  132OSM   H15T14294   5.564   5.189   4.694
  132OSM   C16S14295   5.387   5.250   4.582
  132OSM   H16S14296   5.417   5.357   4.588
  132OSM   H16T14297   5.276   5.245   4.594
  132OSM   C17S14298   5.423   5.192   4.445
  132OSM   H17S14299   5.340   5.127   4.411
  132OSM   H17T14300   5.513   5.127   4.455
  132OSM   C18S14301   5.452   5.299   4.340
  132OSM   H18S14302   5.546   5.354   4.366
  132OSM   H18T14303   5.369   5.372   4.338
  132OSM   H18U14304   5.463   5.254   4.239
  132OSM    C1F14305   5.490   5.528   5.716
  132OSM     OF14306   5.591   5.486   5.770
  132OSM    C2F14307   5.493   5.615   5.593
  132OSM    H2F14308   5.516   5.718   5.626
  132OSM    H2G14309   5.393   5.612   5.543
  132OSM    C3F14310   5.605   5.581   5.493
  132OSM    H3F14311   5.593   5.475   5.461
  132OSM    H3G14312   5.703   5.592   5.544
  132OSM    C4F14313   5.604   5.669   5.367
  132OSM    H4F14314   5.699   5.653   5.311
  132OSM    H4G14315   5.598   5.776   5.394
  132OSM    C5F14316   5.488   5.628   5.276
  132OSM    H5F14317   5.393   5.661   5.324
  132OSM    H5G14318   5.484   5.517   5.274
  132OSM    C6F14319   5.491   5.682   5.132
  132OSM    H6F14320   5.560   5.619   5.072
  132OSM    H6G14321   5.530   5.786   5.130
  132OSM    C7F14322   5.349   5.680   5.075
  132OSM    H7F14323   5.289   5.763   5.118
  132OSM    H7G14324   5.299   5.588   5.111
  132OSM    C8F14325   5.331   5.686   4.922
  132OSM    H8F14326   5.247   5.757   4.903
  132OSM    H8G14327   5.292   5.587   4.891
  132OSM    C9F14328   5.449   5.724   4.837
  132OSM    H9F14329   5.541   5.757   4.888
  132OSM   C10F14330   5.441   5.723   4.704
  132OSM   H10F14331   5.528   5.753   4.643
  132OSM   C11F14332   5.314   5.685   4.631
  132OSM   H11F14333   5.228   5.732   4.682
  132OSM   H11G14334   5.302   5.575   4.635
  132OSM   C12F14335   5.300   5.730   4.485
  132OSM   H12F14336   5.296   5.841   4.481
  132OSM   H12G14337   5.202   5.696   4.445
  132OSM   C13F14338   5.411   5.677   4.395
  132OSM   H13F14339   5.377   5.581   4.351
  132OSM   H13G14340   5.503   5.655   4.453
  132OSM   C14F14341   5.448   5.775   4.284
  132OSM   H14F14342   5.496   5.865   4.327
  132OSM   H14G14343   5.356   5.807   4.231
  132OSM   C15F14344   5.543   5.708   4.185
  132OSM   H15F14345   5.495   5.613   4.152
  132OSM   H15G14346   5.638   5.680   4.236
  132OSM   C16F14347   5.572   5.796   4.064
  132OSM   H16F14348   5.648   5.872   4.091
  132OSM   H16G14349   5.480   5.849   4.033
  132OSM   C17F14350   5.621   5.711   3.948
  132OSM   H17F14351   5.689   5.634   3.991
  132OSM   H17G14352   5.680   5.771   3.875
  132OSM   C18F14353   5.505   5.642   3.878
  132OSM   H18F14354   5.470   5.703   3.792
  132OSM   H18G14355   5.421   5.628   3.948
  132OSM   H18H14356   5.532   5.542   3.839
  133OSM      N14357   2.335   5.786   6.436
  133OSM    C1514358   2.189   5.800   6.408
  133OSM   H15A14359   2.135   5.841   6.493
  133OSM   H15B14360   2.150   5.701   6.386
  133OSM   H15C14361   2.172   5.862   6.321
  133OSM    C1414362   2.397   5.920   6.459
  133OSM   H14A14363   2.351   5.973   6.541
  133OSM   H14B14364   2.392   5.984   6.372
  133OSM   H14C14365   2.502   5.910   6.484
  133OSM    C1314366   2.352   5.702   6.559
  133OSM   H13A14367   2.456   5.696   6.587
  133OSM   H13B14368   2.315   5.603   6.536
  133OSM   H13C14369   2.294   5.741   6.642
  133OSM    C1214370   2.402   5.717   6.318
  133OSM   H12A14371   2.508   5.736   6.318
  133OSM   H12B14372   2.364   5.761   6.227
  133OSM    C1114373   2.382   5.563   6.306
  133OSM   H11A14374   2.456   5.512   6.371
  133OSM   H11B14375   2.404   5.535   6.201
  133OSM      P14376   2.186   5.390   6.295
  133OSM    O1314377   2.286   5.282   6.304
  133OSM    O1414378   2.059   5.374   6.370
  133OSM    O1114379   2.156   5.429   6.144
  133OSM    O1214380   2.251   5.524   6.346
  133OSM    C1S14381   2.232   5.368   6.039
  133OSM    H1S14382   2.206   5.261   6.031
  133OSM    H1T14383   2.341   5.376   6.056
  133OSM     NF14384   2.271   5.359   5.798
  133OSM    HNF14385   2.369   5.377   5.788
  133OSM    C2S14386   2.201   5.433   5.901
  133OSM    H2S14387   2.092   5.426   5.885
  133OSM    C3S14388   2.239   5.584   5.895
  133OSM    H3S14389   2.349   5.595   5.902
  133OSM     O314390   2.184   5.661   6.003
  133OSM    HO314391   2.156   5.594   6.065
  133OSM    C4S14392   2.190   5.639   5.763
  133OSM    H4S14393   2.082   5.664   5.762
  133OSM    C5S14394   2.264   5.660   5.652
  133OSM    H5S14395   2.371   5.634   5.655
  133OSM    C6S14396   2.216   5.713   5.519
  133OSM    H6S14397   2.246   5.641   5.440
  133OSM    H6T14398   2.267   5.809   5.496
  133OSM    C7S14399   2.064   5.736   5.501
  133OSM    H7S14400   2.029   5.810   5.576
  133OSM    H7T14401   2.010   5.640   5.519
  133OSM    C8S14402   2.024   5.787   5.360
  133OSM    H8S14403   2.081   5.880   5.337
  133OSM    H8T14404   1.916   5.813   5.362
  133OSM    C9S14405   2.047   5.685   5.248
  133OSM    H9S14406   1.997   5.590   5.277
  133OSM    H9T14407   2.156   5.666   5.237
  133OSM   C10S14408   1.988   5.726   5.112
  133OSM   H10S14409   2.041   5.816   5.074
  133OSM   H10T14410   1.881   5.754   5.127
  133OSM   C11S14411   1.993   5.614   5.006
  133OSM   H11S14412   1.947   5.522   5.048
  133OSM   H11T14413   2.099   5.591   4.982
  133OSM   C12S14414   1.920   5.654   4.878
  133OSM   H12S14415   1.966   5.748   4.840
  133OSM   H12T14416   1.814   5.676   4.903
  133OSM   C13S14417   1.923   5.550   4.766
  133OSM   H13S14418   1.880   5.453   4.800
  133OSM   H13T14419   2.028   5.531   4.735
  133OSM   C14S14420   1.843   5.603   4.646
  133OSM   H14S14421   1.875   5.708   4.629
  133OSM   H14T14422   1.735   5.604   4.672
  133OSM   C15S14423   1.863   5.528   4.514
  133OSM   H15S14424   1.812   5.429   4.519
  133OSM   H15T14425   1.971   5.511   4.494
  133OSM   C16S14426   1.804   5.612   4.400
  133OSM   H16S14427   1.866   5.703   4.387
  133OSM   H16T14428   1.702   5.646   4.431
  133OSM   C17S14429   1.790   5.540   4.266
  133OSM   H17S14430   1.724   5.451   4.279
  133OSM   H17T14431   1.889   5.504   4.233
  133OSM   C18S14432   1.730   5.633   4.160
  133OSM   H18S14433   1.632   5.673   4.194
  133OSM   H18T14434   1.714   5.579   4.064
  133OSM   H18U14435   1.798   5.719   4.142
  133OSM    C1F14436   2.217   5.252   5.743
  133OSM     OF14437   2.118   5.201   5.792
  133OSM    C2F14438   2.287   5.199   5.620
  133OSM    H2F14439   2.341   5.108   5.652
  133OSM    H2G14440   2.362   5.274   5.588
  133OSM    C3F14441   2.199   5.161   5.498
  133OSM    H3F14442   2.170   5.054   5.506
  133OSM    H3G14443   2.262   5.165   5.407
  133OSM    C4F14444   2.069   5.241   5.475
  133OSM    H4F14445   2.026   5.278   5.571
  133OSM    H4G14446   1.993   5.171   5.434
  133OSM    C5F14447   2.081   5.354   5.374
  133OSM    H5F14448   2.162   5.424   5.407
  133OSM    H5G14449   1.986   5.411   5.377
  133OSM    C6F14450   2.105   5.304   5.231
  133OSM    H6F14451   2.009   5.313   5.175
  133OSM    H6G14452   2.128   5.195   5.233
  133OSM    C7F14453   2.216   5.375   5.153
  133OSM    H7F14454   2.196   5.484   5.145
  133OSM    H7G14455   2.213   5.334   5.050
  133OSM    C8F14456   2.359   5.352   5.207
  133OSM    H8F14457   2.426   5.364   5.119
  133OSM    H8G14458   2.366   5.245   5.238
  133OSM    C9F14459   2.409   5.442   5.317
  133OSM    H9F14460   2.387   5.408   5.419
  133OSM   C10F14461   2.474   5.558   5.297
  133OSM   H10F14462   2.507   5.616   5.385
  133OSM   C11F14463   2.508   5.617   5.163
  133OSM   H11F14464   2.524   5.727   5.174
  133OSM   H11G14465   2.424   5.604   5.091
  133OSM   C12F14466   2.634   5.555   5.099
  133OSM   H12F14467   2.618   5.448   5.077
  133OSM   H12G14468   2.717   5.563   5.173
  133OSM   C13F14469   2.677   5.626   4.970
  133OSM   H13F14470   2.787   5.615   4.960
  133OSM   H13G14471   2.654   5.734   4.978
  133OSM   C14F14472   2.614   5.568   4.843
  133OSM   H14F14473   2.505   5.551   4.859
  133OSM   H14G14474   2.660   5.469   4.823
  133OSM   C15F14475   2.635   5.660   4.722
  133OSM   H15F14476   2.656   5.600   4.630
  133OSM   H15G14477   2.726   5.721   4.740
  133OSM   C16F14478   2.516   5.753   4.695
  133OSM   H16F14479   2.548   5.837   4.630
  133OSM   H16G14480   2.483   5.796   4.792
  133OSM   C17F14481   2.396   5.682   4.628
  133OSM   H17F14482   2.305   5.744   4.646
  133OSM   H17G14483   2.379   5.584   4.677
  133OSM   C18F14484   2.412   5.663   4.477
  133OSM   H18F14485   2.503   5.602   4.455
  133OSM   H18G14486   2.423   5.761   4.426
  133OSM   H18H14487   2.324   5.611   4.435
  134OSM      N14488   1.401   2.519   6.352
  134OSM    C1514489   1.421   2.417   6.244
  134OSM   H15A14490   1.509   2.357   6.261
  134OSM   H15B14491   1.431   2.465   6.148
  134OSM   H15C14492   1.336   2.351   6.239
  134OSM    C1414493   1.280   2.601   6.321
  134OSM   H14A14494   1.283   2.642   6.221
  134OSM   H14B14495   1.276   2.686   6.387
  134OSM   H14C14496   1.189   2.542   6.330
  134OSM    C1314497   1.377   2.450   6.484
  134OSM   H13A14498   1.464   2.396   6.518
  134OSM   H13B14499   1.294   2.382   6.481
  134OSM   H13C14500   1.355   2.524   6.559
  134OSM    C1214501   1.522   2.610   6.366
  134OSM   H12A14502   1.540   2.661   6.273
  134OSM   H12B14503   1.610   2.550   6.387
  134OSM    C1114504   1.513   2.720   6.474
  134OSM   H11A14505   1.616   2.748   6.504
  134OSM   H11B14506   1.467   2.680   6.568
  134OSM      P14507   1.507   2.960   6.371
  134OSM    O1314508   1.415   3.074   6.375
  134OSM    O1414509   1.639   2.974   6.437
  134OSM    O1114510   1.530   2.918   6.220
  134OSM    O1214511   1.435   2.830   6.428
  134OSM    C1S14512   1.425   2.852   6.148
  134OSM    H1S14513   1.324   2.875   6.188
  134OSM    H1T14514   1.441   2.742   6.152
  134OSM     NF14515   1.348   2.782   5.921
  134OSM    HNF14516   1.385   2.764   5.831
  134OSM    C2S14517   1.420   2.885   5.996
  134OSM    H2S14518   1.364   2.980   5.984
  134OSM    C3S14519   1.562   2.906   5.936
  134OSM    H3S14520   1.621   2.813   5.952
  134OSM     O314521   1.633   3.012   5.998
  134OSM    HO314522   1.596   3.015   6.086
  134OSM    C4S14523   1.550   2.933   5.788
  134OSM    H4S14524   1.530   3.038   5.761
  134OSM    C5S14525   1.566   2.841   5.692
  134OSM    H5S14526   1.593   2.737   5.719
  134OSM    C6S14527   1.554   2.866   5.544
  134OSM    H6S14528   1.537   2.974   5.524
  134OSM    H6T14529   1.464   2.815   5.504
  134OSM    C7S14530   1.674   2.815   5.462
  134OSM    H7S14531   1.766   2.869   5.493
  134OSM    H7T14532   1.656   2.841   5.355
  134OSM    C8S14533   1.698   2.663   5.474
  134OSM    H8S14534   1.728   2.639   5.578
  134OSM    H8T14535   1.784   2.637   5.408
  134OSM    C9S14536   1.577   2.576   5.435
  134OSM    H9S14537   1.484   2.611   5.485
  134OSM    H9T14538   1.595   2.472   5.469
  134OSM   C10S14539   1.557   2.573   5.284
  134OSM   H10S14540   1.644   2.524   5.236
  134OSM   H10T14541   1.552   2.677   5.246
  134OSM   C11S14542   1.429   2.500   5.242
  134OSM   H11S14543   1.342   2.563   5.269
  134OSM   H11T14544   1.420   2.404   5.296
  134OSM   C12S14545   1.427   2.473   5.092
  134OSM   H12S14546   1.327   2.430   5.067
  134OSM   H12T14547   1.504   2.397   5.066
  134OSM   C13S14548   1.453   2.600   5.010
  134OSM   H13S14549   1.555   2.640   5.031
  134OSM   H13T14550   1.379   2.678   5.037
  134OSM   C14S14551   1.445   2.574   4.860
  134OSM   H14S14552   1.531   2.512   4.829
  134OSM   H14T14553   1.452   2.671   4.806
  134OSM   C15S14554   1.315   2.504   4.822
  134OSM   H15S14555   1.229   2.550   4.877
  134OSM   H15T14556   1.320   2.397   4.851
  134OSM   C16S14557   1.292   2.512   4.673
  134OSM   H16S14558   1.273   2.618   4.642
  134OSM   H16T14559   1.201   2.454   4.647
  134OSM   C17S14560   1.412   2.462   4.595
  134OSM   H17S14561   1.441   2.361   4.633
  134OSM   H17T14562   1.500   2.529   4.605
  134OSM   C18S14563   1.373   2.451   4.451
  134OSM   H18S14564   1.270   2.410   4.449
  134OSM   H18T14565   1.440   2.383   4.395
  134OSM   H18U14566   1.368   2.551   4.402
  134OSM    C1F14567   1.232   2.725   5.951
  134OSM     OF14568   1.182   2.728   6.062
  134OSM    C2F14569   1.169   2.647   5.840
  134OSM    H2F14570   1.114   2.562   5.886
  134OSM    H2G14571   1.247   2.607   5.772
  134OSM    C3F14572   1.068   2.731   5.761
  134OSM    H3F14573   0.992   2.773   5.831
  134OSM    H3G14574   1.015   2.663   5.690
  134OSM    C4F14575   1.125   2.845   5.676
  134OSM    H4F14576   1.200   2.906   5.732
  134OSM    H4G14577   1.039   2.912   5.655
  134OSM    C5F14578   1.184   2.795   5.543
  134OSM    H5F14579   1.108   2.733   5.492
  134OSM    H5G14580   1.272   2.730   5.562
  134OSM    C6F14581   1.222   2.910   5.447
  134OSM    H6F14582   1.245   2.867   5.347
  134OSM    H6G14583   1.311   2.965   5.483
  134OSM    C7F14584   1.108   3.011   5.435
  134OSM    H7F14585   1.107   3.078   5.524
  134OSM    H7G14586   1.014   2.951   5.437
  134OSM    C8F14587   1.107   3.095   5.308
  134OSM    H8F14588   1.025   3.170   5.320
  134OSM    H8G14589   1.078   3.030   5.223
  134OSM    C9F14590   1.229   3.174   5.276
  134OSM    H9F14591   1.248   3.263   5.338
  134OSM   C10F14592   1.312   3.145   5.175
  134OSM   H10F14593   1.390   3.219   5.149
  134OSM   C11F14594   1.301   3.030   5.079
  134OSM   H11F14595   1.234   2.950   5.114
  134OSM   H11G14596   1.401   2.983   5.065
  134OSM   C12F14597   1.252   3.082   4.943
  134OSM   H12F14598   1.321   3.161   4.907
  134OSM   H12G14599   1.151   3.128   4.953
  134OSM   C13F14600   1.246   2.970   4.840
  134OSM   H13F14601   1.161   2.902   4.862
  134OSM   H13G14602   1.338   2.909   4.849
  134OSM   C14F14603   1.237   3.024   4.697
  134OSM   H14F14604   1.297   3.117   4.688
  134OSM   H14G14605   1.131   3.050   4.675
  134OSM   C15F14606   1.290   2.922   4.596
  134OSM   H15F14607   1.248   2.822   4.622
  134OSM   H15G14608   1.400   2.907   4.606
  134OSM   C16F14609   1.260   2.955   4.450
  134OSM   H16F14610   1.300   3.055   4.424
  134OSM   H16G14611   1.150   2.959   4.437
  134OSM   C17F14612   1.319   2.849   4.358
  134OSM   H17F14613   1.327   2.754   4.415
  134OSM   H17G14614   1.423   2.877   4.330
  134OSM   C18F14615   1.236   2.823   4.233
  134OSM   H18F14616   1.143   2.771   4.264
  134OSM   H18G14617   1.291   2.759   4.161
  134OSM   H18H14618   1.209   2.918   4.182
  135OSM      N14619   1.780   2.007   6.514
  135OSM    C1514620   1.913   2.068   6.544
  135OSM   H15A14621   1.971   2.076   6.453
  135OSM   H15B14622   1.970   2.008   6.613
  135OSM   H15C14623   1.905   2.169   6.583
  135OSM    C1414624   1.808   1.874   6.450
  135OSM   H14A14625   1.870   1.813   6.513
  135OSM   H14B14626   1.864   1.890   6.359
  135OSM   H14C14627   1.718   1.820   6.425
  135OSM    C1314628   1.707   1.989   6.644
  135OSM   H13A14629   1.611   1.939   6.631
  135OSM   H13B14630   1.690   2.083   6.694
  135OSM   H13C14631   1.765   1.929   6.712
  135OSM    C1214632   1.699   2.095   6.419
  135OSM   H12A14633   1.696   2.194   6.460
  135OSM   H12B14634   1.598   2.057   6.416
  135OSM    C1114635   1.747   2.110   6.272
  135OSM   H11A14636   1.667   2.162   6.214
  135OSM   H11B14637   1.759   2.011   6.223
  135OSM      P14638   2.002   2.142   6.210
  135OSM    O1314639   2.104   2.210   6.294
  135OSM    O1414640   2.003   1.994   6.207
  135OSM    O1114641   2.000   2.201   6.063
  135OSM    O1214642   1.863   2.191   6.267
  135OSM    C1S14643   2.123   2.227   5.992
  135OSM    H1S14644   2.202   2.153   6.021
  135OSM    H1T14645   2.162   2.327   6.018
  135OSM     NF14646   2.222   2.186   5.758
  135OSM    HNF14647   2.236   2.237   5.674
  135OSM    C2S14648   2.100   2.221   5.837
  135OSM    H2S14649   2.022   2.145   5.816
  135OSM    C3S14650   2.034   2.358   5.795
  135OSM    H3S14651   2.104   2.440   5.820
  135OSM     O314652   1.912   2.381   5.867
  135OSM    HO314653   1.912   2.315   5.936
  135OSM    C4S14654   2.009   2.366   5.645
  135OSM    H4S14655   2.097   2.402   5.590
  135OSM    C5S14656   1.897   2.339   5.575
  135OSM    H5S14657   1.806   2.307   5.629
  135OSM    C6S14658   1.881   2.348   5.424
  135OSM    H6S14659   1.794   2.412   5.398
  135OSM    H6T14660   1.856   2.247   5.386
  135OSM    C7S14661   2.001   2.402   5.342
  135OSM    H7S14662   2.094   2.347   5.368
  135OSM    H7T14663   2.017   2.509   5.368
  135OSM    C8S14664   1.980   2.390   5.190
  135OSM    H8S14665   2.064   2.444   5.139
  135OSM    H8T14666   1.886   2.441   5.162
  135OSM    C9S14667   1.979   2.245   5.138
  135OSM    H9S14668   1.897   2.188   5.185
  135OSM    H9T14669   2.075   2.198   5.169
  135OSM   C10S14670   1.966   2.232   4.986
  135OSM   H10S14671   1.977   2.125   4.958
  135OSM   H10T14672   2.049   2.287   4.937
  135OSM   C11S14673   1.831   2.282   4.931
  135OSM   H11S14674   1.816   2.389   4.957
  135OSM   H11T14675   1.750   2.223   4.981
  135OSM   C12S14676   1.819   2.264   4.779
  135OSM   H12S14677   1.712   2.269   4.749
  135OSM   H12T14678   1.857   2.164   4.752
  135OSM   C13S14679   1.896   2.372   4.701
  135OSM   H13S14680   1.984   2.404   4.761
  135OSM   H13T14681   1.832   2.461   4.686
  135OSM   C14S14682   1.950   2.322   4.566
  135OSM   H14S14683   2.017   2.236   4.586
  135OSM   H14T14684   2.011   2.402   4.520
  135OSM   C15S14685   1.842   2.278   4.466
  135OSM   H15S14686   1.773   2.363   4.445
  135OSM   H15T14687   1.783   2.195   4.508
  135OSM   C16S14688   1.909   2.233   4.335
  135OSM   H16S14689   1.981   2.152   4.359
  135OSM   H16T14690   1.966   2.318   4.292
  135OSM   C17S14691   1.814   2.178   4.228
  135OSM   H17S14692   1.735   2.254   4.206
  135OSM   H17T14693   1.762   2.088   4.267
  135OSM   C18S14694   1.890   2.144   4.100
  135OSM   H18S14695   1.952   2.230   4.068
  135OSM   H18T14696   1.819   2.121   4.018
  135OSM   H18U14697   1.956   2.056   4.116
  135OSM    C1F14698   2.287   2.065   5.768
  135OSM     OF14699   2.320   2.022   5.878
  135OSM    C2F14700   2.323   1.985   5.638
  135OSM    H2F14701   2.431   1.971   5.661
  135OSM    H2G14702   2.321   2.064   5.560
  135OSM    C3F14703   2.303   1.826   5.593
  135OSM    H3F14704   2.325   1.769   5.686
  135OSM    H3G14705   2.393   1.812   5.530
  135OSM    C4F14706   2.199   1.727   5.511
  135OSM    H4F14707   2.263   1.671   5.441
  135OSM    H4G14708   2.174   1.651   5.588
  135OSM    C5F14709   2.059   1.742   5.433
  135OSM    H5F14710   2.009   1.841   5.432
  135OSM    H5G14711   1.990   1.677   5.490
  135OSM    C6F14712   2.032   1.709   5.282
  135OSM    H6F14713   1.930   1.664   5.282
  135OSM    H6G14714   2.103   1.633   5.243
  135OSM    C7F14715   1.993   1.820   5.182
  135OSM    H7F14716   2.086   1.874   5.151
  135OSM    H7G14717   1.926   1.895   5.229
  135OSM    C8F14718   1.934   1.773   5.047
  135OSM    H8F14719   1.989   1.682   5.014
  135OSM    H8G14720   1.956   1.851   4.971
  135OSM    C9F14721   1.786   1.749   5.049
  135OSM    H9F14722   1.733   1.786   5.139
  135OSM   C10F14723   1.715   1.692   4.951
  135OSM   H10F14724   1.606   1.680   4.963
  135OSM   C11F14725   1.766   1.639   4.819
  135OSM   H11F14726   1.730   1.535   4.807
  135OSM   H11G14727   1.877   1.635   4.815
  135OSM   C12F14728   1.715   1.721   4.698
  135OSM   H12F14729   1.610   1.752   4.714
  135OSM   H12G14730   1.714   1.654   4.609
  135OSM   C13F14731   1.801   1.844   4.662
  135OSM   H13F14732   1.803   1.915   4.747
  135OSM   H13G14733   1.751   1.895   4.577
  135OSM   C14F14734   1.945   1.810   4.619
  135OSM   H14F14735   1.945   1.711   4.568
  135OSM   H14G14736   2.010   1.802   4.708
  135OSM   C15F14737   2.003   1.913   4.520
  135OSM   H15F14738   2.009   2.012   4.569
  135OSM   H15G14739   1.933   1.922   4.434
  135OSM   C16F14740   2.141   1.872   4.465
  135OSM   H16F14741   2.133   1.770   4.422
  135OSM   H16G14742   2.214   1.868   4.548
  135OSM   C17F14743   2.193   1.966   4.355
  135OSM   H17F14744   2.112   1.986   4.282
  135OSM   H17G14745   2.274   1.913   4.300
  135OSM   C18F14746   2.250   2.099   4.408
  135OSM   H18F14747   2.297   2.157   4.326
  135OSM   H18G14748   2.327   2.079   4.486
  135OSM   H18H14749   2.171   2.161   4.454
  136OSM      N14750   6.506   4.096   6.474
  136OSM    C1514751   6.600   3.994   6.419
  136OSM   H15A14752   6.655   3.944   6.497
  136OSM   H15B14753   6.670   4.039   6.350
  136OSM   H15C14754   6.543   3.921   6.363
  136OSM    C1414755   6.410   4.031   6.570
  136OSM   H14A14756   6.461   3.983   6.652
  136OSM   H14B14757   6.351   3.959   6.515
  136OSM   H14C14758   6.340   4.104   6.608
  136OSM    C1314759   6.583   4.202   6.547
  136OSM   H13A14760   6.516   4.275   6.590
  136OSM   H13B14761   6.653   4.251   6.481
  136OSM   H13C14762   6.640   4.158   6.628
  136OSM    C1214763   6.426   4.156   6.360
  136OSM   H12A14764   6.490   4.220   6.301
  136OSM   H12B14765   6.345   4.215   6.402
  136OSM    C1114766   6.359   4.058   6.262
  136OSM   H11A14767   6.435   3.994   6.211
  136OSM   H11B14768   6.313   4.118   6.181
  136OSM      P14769   6.118   4.029   6.357
  136OSM    O1314770   6.037   3.917   6.411
  136OSM    O1414771   6.132   4.151   6.439
  136OSM    O1114772   6.065   4.068   6.213
  136OSM    O1214773   6.264   3.973   6.328
  136OSM    C1S14774   6.094   3.976   6.106
  136OSM    H1S14775   6.043   3.879   6.126
  136OSM    H1T14776   6.202   3.952   6.097
  136OSM     NF14777   6.117   4.152   5.927
  136OSM    HNF14778   6.062   4.233   5.909
  136OSM    C2S14779   6.050   4.028   5.966
  136OSM    H2S14780   6.083   3.949   5.895
  136OSM    C3S14781   5.896   4.043   5.959
  136OSM    H3S14782   5.865   4.138   6.009
  136OSM     O314783   5.818   3.939   6.019
  136OSM    HO314784   5.882   3.883   6.064
  136OSM    C4S14785   5.871   4.055   5.812
  136OSM    H4S14786   5.858   4.158   5.776
  136OSM    C5S14787   5.873   3.953   5.724
  136OSM    H5S14788   5.892   3.850   5.755
  136OSM    C6S14789   5.855   3.978   5.578
  136OSM    H6S14790   5.791   4.068   5.562
  136OSM    H6T14791   5.809   3.892   5.526
  136OSM    C7S14792   5.994   4.008   5.521
  136OSM    H7S14793   6.058   4.064   5.593
  136OSM    H7T14794   5.982   4.077   5.435
  136OSM    C8S14795   6.070   3.883   5.474
  136OSM    H8S14796   6.069   3.806   5.554
  136OSM    H8T14797   6.176   3.911   5.456
  136OSM    C9S14798   6.012   3.824   5.344
  136OSM    H9S14799   5.913   3.779   5.365
  136OSM    H9T14800   6.080   3.742   5.312
  136OSM   C10S14801   5.998   3.926   5.230
  136OSM   H10S14802   5.921   4.002   5.255
  136OSM   H10T14803   5.960   3.877   5.138
  136OSM   C11S14804   6.131   3.993   5.195
  136OSM   H11S14805   6.215   3.932   5.234
  136OSM   H11T14806   6.138   4.092   5.245
  136OSM   C12S14807   6.148   4.010   5.045
  136OSM   H12S14808   6.214   4.097   5.024
  136OSM   H12T14809   6.050   4.031   4.996
  136OSM   C13S14810   6.214   3.887   4.986
  136OSM   H13S14811   6.150   3.798   5.003
  136OSM   H13T14812   6.310   3.868   5.038
  136OSM   C14S14813   6.241   3.908   4.838
  136OSM   H14S14814   6.311   3.993   4.825
  136OSM   H14T14815   6.147   3.934   4.783
  136OSM   C15S14816   6.304   3.783   4.779
  136OSM   H15S14817   6.227   3.723   4.725
  136OSM   H15T14818   6.340   3.720   4.863
  136OSM   C16S14819   6.424   3.814   4.690
  136OSM   H16S14820   6.460   3.715   4.656
  136OSM   H16T14821   6.506   3.858   4.751
  136OSM   C17S14822   6.399   3.902   4.567
  136OSM   H17S14823   6.470   3.868   4.489
  136OSM   H17T14824   6.429   4.007   4.588
  136OSM   C18S14825   6.257   3.907   4.510
  136OSM   H18S14826   6.201   3.814   4.533
  136OSM   H18T14827   6.261   3.919   4.400
  136OSM   H18U14828   6.200   3.991   4.554
  136OSM    C1F14829   6.248   4.160   5.906
  136OSM     OF14830   6.322   4.064   5.926
  136OSM    C2F14831   6.297   4.292   5.858
  136OSM    H2F14832   6.303   4.361   5.944
  136OSM    H2G14833   6.223   4.336   5.788
  136OSM    C3F14834   6.435   4.283   5.788
  136OSM    H3F14835   6.511   4.238   5.855
  136OSM    H3G14836   6.468   4.386   5.763
  136OSM    C4F14837   6.432   4.202   5.657
  136OSM    H4F14838   6.422   4.093   5.679
  136OSM    H4G14839   6.531   4.217   5.609
  136OSM    C5F14840   6.317   4.244   5.564
  136OSM    H5F14841   6.315   4.355   5.560
  136OSM    H5G14842   6.220   4.211   5.606
  136OSM    C6F14843   6.331   4.192   5.422
  136OSM    H6F14844   6.252   4.240   5.361
  136OSM    H6G14845   6.316   4.081   5.418
  136OSM    C7F14846   6.467   4.228   5.362
  136OSM    H7F14847   6.546   4.157   5.395
  136OSM    H7G14848   6.492   4.327   5.407
  136OSM    C8F14849   6.464   4.242   5.211
  136OSM    H8F14850   6.557   4.294   5.181
  136OSM    H8G14851   6.380   4.308   5.181
  136OSM    C9F14852   6.455   4.109   5.141
  136OSM    H9F14853   6.410   4.027   5.200
  136OSM   C10F14854   6.497   4.087   5.016
  136OSM   H10F14855   6.487   3.986   4.972
  136OSM   C11F14856   6.559   4.190   4.927
  136OSM   H11F14857   6.667   4.166   4.917
  136OSM   H11G14858   6.550   4.293   4.968
  136OSM   C12F14859   6.509   4.198   4.784
  136OSM   H12F14860   6.504   4.094   4.743
  136OSM   H12G14861   6.582   4.254   4.723
  136OSM   C13F14862   6.376   4.270   4.770
  136OSM   H13F14863   6.379   4.367   4.824
  136OSM   H13G14864   6.296   4.208   4.817
  136OSM   C14F14865   6.348   4.293   4.623
  136OSM   H14F14866   6.372   4.200   4.566
  136OSM   H14G14867   6.414   4.373   4.583
  136OSM   C15F14868   6.202   4.326   4.599
  136OSM   H15F14869   6.185   4.433   4.623
  136OSM   H15G14870   6.139   4.263   4.666
  136OSM   C16F14871   6.161   4.297   4.455
  136OSM   H16F14872   6.053   4.319   4.442
  136OSM   H16G14873   6.176   4.189   4.433
  136OSM   C17F14874   6.241   4.379   4.355
  136OSM   H17F14875   6.349   4.350   4.358
  136OSM   H17G14876   6.234   4.487   4.381
  136OSM   C18F14877   6.187   4.357   4.216
  136OSM   H18F14878   6.247   4.411   4.140
  136OSM   H18G14879   6.082   4.392   4.213
  136OSM   H18H14880   6.186   4.249   4.190
  137OSM      N14881   2.252   1.111   6.290
  137OSM    C1514882   2.231   0.963   6.301
  137OSM   H15A14883   2.147   0.932   6.241
  137OSM   H15B14884   2.209   0.935   6.403
  137OSM   H15C14885   2.317   0.907   6.269
  137OSM    C1414886   2.273   1.147   6.146
  137OSM   H14A14887   2.283   1.254   6.135
  137OSM   H14B14888   2.190   1.115   6.085
  137OSM   H14C14889   2.362   1.100   6.106
  137OSM    C1314890   2.129   1.181   6.339
  137OSM   H13A14891   2.112   1.163   6.444
  137OSM   H13B14892   2.041   1.151   6.285
  137OSM   H13C14893   2.143   1.288   6.332
  137OSM    C1214894   2.371   1.157   6.375
  137OSM   H12A14895   2.459   1.102   6.345
  137OSM   H12B14896   2.350   1.130   6.478
  137OSM    C1114897   2.403   1.309   6.376
  137OSM   H11A14898   2.421   1.344   6.272
  137OSM   H11B14899   2.498   1.323   6.432
  137OSM      P14900   2.276   1.536   6.414
  137OSM    O1314901   2.188   1.590   6.521
  137OSM    O1414902   2.407   1.602   6.392
  137OSM    O1114903   2.194   1.533   6.277
  137OSM    O1214904   2.300   1.382   6.441
  137OSM    C1S14905   2.172   1.658   6.207
  137OSM    H1S14906   2.269   1.700   6.173
  137OSM    H1T14907   2.123   1.733   6.273
  137OSM     NF14908   2.076   1.764   6.002
  137OSM    HNF14909   2.076   1.849   6.053
  137OSM    C2S14910   2.083   1.640   6.079
  137OSM    H2S14911   2.134   1.561   6.020
  137OSM    C3S14912   1.941   1.589   6.114
  137OSM    H3S14913   1.890   1.665   6.177
  137OSM     O314914   1.947   1.470   6.191
  137OSM    HO314915   2.036   1.474   6.229
  137OSM    C4S14916   1.858   1.570   5.987
  137OSM    H4S14917   1.761   1.622   5.991
  137OSM    C5S14918   1.888   1.497   5.876
  137OSM    H5S14919   1.985   1.447   5.871
  137OSM    C6S14920   1.802   1.482   5.753
  137OSM    H6S14921   1.752   1.578   5.729
  137OSM    H6T14922   1.723   1.406   5.770
  137OSM    C7S14923   1.886   1.438   5.630
  137OSM    H7S14924   1.939   1.342   5.648
  137OSM    H7T14925   1.966   1.515   5.617
  137OSM    C8S14926   1.804   1.427   5.500
  137OSM    H8S14927   1.729   1.508   5.504
  137OSM    H8T14928   1.749   1.331   5.491
  137OSM    C9S14929   1.886   1.450   5.372
  137OSM    H9S14930   1.979   1.502   5.403
  137OSM    H9T14931   1.821   1.511   5.305
  137OSM   C10S14932   1.940   1.337   5.285
  137OSM   H10S14933   1.852   1.290   5.235
  137OSM   H10T14934   1.991   1.265   5.352
  137OSM   C11S14935   2.039   1.384   5.176
  137OSM   H11S14936   2.138   1.402   5.223
  137OSM   H11T14937   2.003   1.480   5.133
  137OSM   C12S14938   2.054   1.287   5.057
  137OSM   H12S14939   1.977   1.311   4.981
  137OSM   H12T14940   2.036   1.184   5.095
  137OSM   C13S14941   2.189   1.278   4.984
  137OSM   H13S14942   2.182   1.191   4.916
  137OSM   H13T14943   2.269   1.255   5.056
  137OSM   C14S14944   2.229   1.400   4.899
  137OSM   H14S14945   2.308   1.368   4.827
  137OSM   H14T14946   2.276   1.472   4.969
  137OSM   C15S14947   2.122   1.482   4.826
  137OSM   H15S14948   2.168   1.577   4.792
  137OSM   H15T14949   2.045   1.512   4.901
  137OSM   C16S14950   2.050   1.423   4.704
  137OSM   H16S14951   2.042   1.501   4.625
  137OSM   H16T14952   1.946   1.406   4.738
  137OSM   C17S14953   2.103   1.293   4.640
  137OSM   H17S14954   2.015   1.232   4.610
  137OSM   H17T14955   2.160   1.231   4.712
  137OSM   C18S14956   2.186   1.316   4.514
  137OSM   H18S14957   2.284   1.362   4.540
  137OSM   H18T14958   2.133   1.384   4.443
  137OSM   H18U14959   2.206   1.220   4.461
  137OSM    C1F14960   2.072   1.759   5.868
  137OSM     OF14961   2.106   1.658   5.809
  137OSM    C2F14962   2.045   1.889   5.796
  137OSM    H2F14963   2.150   1.887   5.759
  137OSM    H2G14964   2.029   1.967   5.874
  137OSM    C3F14965   1.973   1.917   5.657
  137OSM    H3F14966   1.876   1.959   5.693
  137OSM    H3G14967   1.938   1.820   5.617
  137OSM    C4F14968   2.022   2.032   5.552
  137OSM    H4F14969   2.047   2.122   5.613
  137OSM    H4G14970   1.922   2.056   5.510
  137OSM    C5F14971   2.108   2.053   5.411
  137OSM    H5F14972   2.142   2.158   5.420
  137OSM    H5G14973   2.030   2.052   5.332
  137OSM    C6F14974   2.233   1.982   5.343
  137OSM    H6F14975   2.215   1.873   5.332
  137OSM    H6G14976   2.332   1.989   5.394
  137OSM    C7F14977   2.280   2.006   5.197
  137OSM    H7F14978   2.344   2.097   5.195
  137OSM    H7G14979   2.197   2.027   5.127
  137OSM    C8F14980   2.366   1.884   5.145
  137OSM    H8F14981   2.453   1.879   5.214
  137OSM    H8G14982   2.403   1.911   5.044
  137OSM    C9F14983   2.313   1.742   5.136
  137OSM    H9F14984   2.215   1.733   5.086
  137OSM   C10F14985   2.374   1.625   5.166
  137OSM   H10F14986   2.316   1.532   5.157
  137OSM   C11F14987   2.514   1.602   5.215
  137OSM   H11F14988   2.525   1.501   5.261
  137OSM   H11G14989   2.544   1.677   5.292
  137OSM   C12F14990   2.607   1.613   5.093
  137OSM   H12F14991   2.713   1.605   5.126
  137OSM   H12G14992   2.592   1.713   5.047
  137OSM   C13F14993   2.586   1.507   4.984
  137OSM   H13F14994   2.478   1.489   4.964
  137OSM   H13G14995   2.629   1.411   5.020
  137OSM   C14F14996   2.654   1.546   4.851
  137OSM   H14F14997   2.666   1.452   4.794
  137OSM   H14G14998   2.755   1.588   4.873
  137OSM   C15F14999   2.577   1.638   4.756
  137OSM   H15F15000   2.643   1.660   4.669
  137OSM   H15G15001   2.551   1.734   4.805
  137OSM   C16F15002   2.449   1.570   4.703
  137OSM   H16F15003   2.374   1.584   4.783
  137OSM   H16G15004   2.467   1.462   4.690
  137OSM   C17F15005   2.394   1.626   4.572
  137OSM   H17F15006   2.401   1.737   4.574
  137OSM   H17G15007   2.286   1.600   4.566
  137OSM   C18F15008   2.463   1.571   4.446
  137OSM   H18F15009   2.571   1.597   4.446
  137OSM   H18G15010   2.416   1.612   4.355
  137OSM   H18H15011   2.455   1.460   4.443
  138OSM      N15012   5.866   2.187   6.449
  138OSM    C1515013   5.779   2.148   6.334
  138OSM   H15A15014   5.798   2.045   6.311
  138OSM   H15B15015   5.804   2.201   6.243
  138OSM   H15C15016   5.673   2.160   6.354
  138OSM    C1415017   5.834   2.328   6.487
  138OSM   H14A15018   5.729   2.337   6.510
  138OSM   H14B15019   5.858   2.394   6.406
  138OSM   H14C15020   5.891   2.358   6.574
  138OSM    C1315021   5.833   2.092   6.560
  138OSM   H13A15022   5.728   2.097   6.585
  138OSM   H13B15023   5.894   2.109   6.648
  138OSM   H13C15024   5.851   1.991   6.526
  138OSM    C1215025   6.013   2.174   6.406
  138OSM   H12A15026   6.075   2.231   6.473
  138OSM   H12B15027   6.023   2.217   6.307
  138OSM    C1115028   6.075   2.032   6.395
  138OSM   H11A15029   6.074   1.983   6.495
  138OSM   H11B15030   6.182   2.043   6.367
  138OSM      P15031   5.957   1.812   6.321
  138OSM    O1315032   6.066   1.717   6.349
  138OSM    O1415033   5.848   1.818   6.421
  138OSM    O1115034   5.885   1.770   6.187
  138OSM    O1215035   6.009   1.957   6.293
  138OSM    C1S15036   5.810   1.863   6.107
  138OSM    H1S15037   5.791   1.959   6.159
  138OSM    H1T15038   5.710   1.820   6.084
  138OSM     NF15039   5.818   2.012   5.909
  138OSM    HNF15040   5.777   1.997   5.819
  138OSM    C2S15041   5.879   1.896   5.971
  138OSM    H2S15042   5.985   1.919   5.991
  138OSM    C3S15043   5.869   1.771   5.881
  138OSM    H3S15044   5.762   1.750   5.859
  138OSM     O315045   5.921   1.655   5.944
  138OSM    HO315046   5.936   1.682   6.035
  138OSM    C4S15047   5.943   1.791   5.752
  138OSM    H4S15048   6.052   1.778   5.759
  138OSM    C5S15049   5.888   1.819   5.632
  138OSM    H5S15050   5.779   1.827   5.622
  138OSM    C6S15051   5.966   1.836   5.504
  138OSM    H6S15052   6.075   1.821   5.521
  138OSM    H6T15053   5.954   1.938   5.462
  138OSM    C7S15054   5.917   1.732   5.402
  138OSM    H7S15055   5.823   1.768   5.354
  138OSM    H7T15056   5.892   1.637   5.453
  138OSM    C8S15057   6.021   1.700   5.294
  138OSM    H8S15058   5.992   1.605   5.244
  138OSM    H8T15059   6.120   1.683   5.341
  138OSM    C9S15060   6.032   1.809   5.189
  138OSM    H9S15061   6.067   1.904   5.235
  138OSM    H9T15062   5.930   1.828   5.147
  138OSM   C10S15063   6.125   1.770   5.074
  138OSM   H10S15064   6.094   1.670   5.035
  138OSM   H10T15065   6.229   1.761   5.110
  138OSM   C11S15066   6.117   1.873   4.961
  138OSM   H11S15067   6.210   1.933   4.961
  138OSM   H11T15068   6.034   1.943   4.984
  138OSM   C12S15069   6.088   1.814   4.823
  138OSM   H12S15070   6.160   1.734   4.797
  138OSM   H12T15071   6.101   1.896   4.748
  138OSM   C13S15072   5.944   1.761   4.813
  138OSM   H13S15073   5.876   1.832   4.866
  138OSM   H13T15074   5.935   1.664   4.865
  138OSM   C14S15075   5.897   1.749   4.668
  138OSM   H14S15076   5.943   1.658   4.624
  138OSM   H14T15077   5.932   1.836   4.609
  138OSM   C15S15078   5.744   1.742   4.658
  138OSM   H15S15079   5.698   1.842   4.672
  138OSM   H15T15080   5.708   1.678   4.741
  138OSM   C16S15081   5.700   1.679   4.526
  138OSM   H16S15082   5.592   1.653   4.530
  138OSM   H16T15083   5.760   1.585   4.521
  138OSM   C17S15084   5.729   1.757   4.397
  138OSM   H17S15085   5.762   1.685   4.319
  138OSM   H17T15086   5.815   1.825   4.415
  138OSM   C18S15087   5.608   1.833   4.343
  138OSM   H18S15088   5.528   1.762   4.313
  138OSM   H18T15089   5.637   1.893   4.253
  138OSM   H18U15090   5.568   1.902   4.420
  138OSM    C1F15091   5.825   2.138   5.952
  138OSM     OF15092   5.871   2.170   6.060
  138OSM    C2F15093   5.774   2.241   5.857
  138OSM    H2F15094   5.832   2.335   5.871
  138OSM    H2G15095   5.668   2.263   5.880
  138OSM    C3F15096   5.786   2.194   5.710
  138OSM    H3F15097   5.720   2.106   5.693
  138OSM    H3G15098   5.890   2.164   5.686
  138OSM    C4F15099   5.744   2.304   5.613
  138OSM    H4F15100   5.811   2.391   5.624
  138OSM    H4G15101   5.642   2.339   5.641
  138OSM    C5F15102   5.743   2.260   5.466
  138OSM    H5F15103   5.848   2.258   5.430
  138OSM    H5G15104   5.690   2.342   5.413
  138OSM    C6F15105   5.678   2.123   5.432
  138OSM    H6F15106   5.603   2.100   5.510
  138OSM    H6G15107   5.756   2.045   5.435
  138OSM    C7F15108   5.602   2.111   5.296
  138OSM    H7F15109   5.515   2.181   5.295
  138OSM    H7G15110   5.559   2.009   5.290
  138OSM    C8F15111   5.680   2.136   5.166
  138OSM    H8F15112   5.608   2.140   5.081
  138OSM    H8G15113   5.747   2.049   5.148
  138OSM    C9F15114   5.753   2.267   5.175
  138OSM    H9F15115   5.690   2.352   5.206
  138OSM   C10F15116   5.882   2.289   5.151
  138OSM   H10F15117   5.923   2.390   5.162
  138OSM   C11F15118   5.980   2.185   5.104
  138OSM   H11F15119   5.940   2.082   5.109
  138OSM   H11G15120   6.075   2.186   5.161
  138OSM   C12F15121   6.009   2.222   4.958
  138OSM   H12F15122   6.077   2.148   4.912
  138OSM   H12G15123   6.065   2.318   4.959
  138OSM   C13F15124   5.884   2.241   4.869
  138OSM   H13F15125   5.913   2.302   4.781
  138OSM   H13G15126   5.802   2.300   4.914
  138OSM   C14F15127   5.829   2.109   4.816
  138OSM   H14F15128   5.747   2.073   4.882
  138OSM   H14G15129   5.910   2.032   4.817
  138OSM   C15F15130   5.782   2.126   4.672
  138OSM   H15F15131   5.726   2.223   4.669
  138OSM   H15G15132   5.712   2.044   4.645
  138OSM   C16F15133   5.899   2.130   4.574
  138OSM   H16F15134   5.972   2.053   4.607
  138OSM   H16G15135   5.950   2.228   4.579
  138OSM   C17F15136   5.862   2.099   4.429
  138OSM   H17F15137   5.832   2.191   4.376
  138OSM   H17G15138   5.774   2.031   4.430
  138OSM   C18F15139   5.976   2.031   4.352
  138OSM   H18F15140   6.060   2.101   4.339
  138OSM   H18G15141   5.941   1.998   4.252
  138OSM   H18H15142   6.012   1.941   4.406
  139OSM      N15143   5.974   5.363   6.406
  139OSM    C1515144   5.825   5.366   6.391
  139OSM   H15A15145   5.780   5.269   6.408
  139OSM   H15B15146   5.797   5.398   6.292
  139OSM   H15C15147   5.781   5.439   6.458
  139OSM    C1415148   6.021   5.502   6.372
  139OSM   H14A15149   5.998   5.527   6.269
  139OSM   H14B15150   6.128   5.509   6.379
  139OSM   H14C15151   5.978   5.579   6.434
  139OSM    C1315152   6.020   5.332   6.545
  139OSM   H13A15153   5.988   5.235   6.578
  139OSM   H13B15154   5.989   5.409   6.614
  139OSM   H13C15155   6.128   5.331   6.541
  139OSM    C1215156   6.037   5.265   6.308
  139OSM   H12A15157   6.052   5.319   6.215
  139OSM   H12B15158   5.969   5.185   6.283
  139OSM    C1115159   6.176   5.203   6.342
  139OSM   H11A15160   6.213   5.144   6.256
  139OSM   H11B15161   6.166   5.131   6.426
  139OSM      P15162   6.339   5.396   6.271
  139OSM    O1315163   6.311   5.535   6.315
  139OSM    O1415164   6.480   5.354   6.260
  139OSM    O1115165   6.255   5.363   6.139
  139OSM    O1215166   6.269   5.303   6.380
  139OSM    C1S15167   6.274   5.443   6.020
  139OSM    H1S15168   6.383   5.458   6.001
  139OSM    H1T15169   6.228   5.543   6.032
  139OSM     NF15170   6.254   5.445   5.770
  139OSM    HNF15171   6.186   5.503   5.726
  139OSM    C2S15172   6.215   5.375   5.891
  139OSM    H2S15173   6.256   5.272   5.887
  139OSM    C3S15174   6.060   5.362   5.899
  139OSM    H3S15175   6.014   5.463   5.901
  139OSM     O315176   6.022   5.294   6.017
  139OSM    HO315177   6.105   5.296   6.066
  139OSM    C4S15178   6.010   5.283   5.780
  139OSM    H4S15179   6.012   5.174   5.796
  139OSM    C5S15180   5.963   5.329   5.661
  139OSM    H5S15181   5.955   5.437   5.642
  139OSM    C6S15182   5.917   5.237   5.549
  139OSM    H6S15183   5.873   5.144   5.593
  139OSM    H6T15184   6.003   5.205   5.487
  139OSM    C7S15185   5.812   5.295   5.453
  139OSM    H7S15186   5.736   5.346   5.516
  139OSM    H7T15187   5.760   5.212   5.400
  139OSM    C8S15188   5.865   5.393   5.346
  139OSM    H8S15189   5.933   5.468   5.392
  139OSM    H8T15190   5.778   5.448   5.305
  139OSM    C9S15191   5.934   5.326   5.225
  139OSM    H9S15192   5.874   5.238   5.193
  139OSM    H9T15193   6.035   5.291   5.256
  139OSM   C10S15194   5.947   5.423   5.106
  139OSM   H10S15195   5.988   5.518   5.147
  139OSM   H10T15196   5.845   5.447   5.068
  139OSM   C11S15197   6.035   5.377   4.988
  139OSM   H11S15198   5.974   5.381   4.895
  139OSM   H11T15199   6.062   5.271   5.005
  139OSM   C12S15200   6.163   5.462   4.968
  139OSM   H12S15201   6.248   5.421   5.027
  139OSM   H12T15202   6.140   5.561   5.012
  139OSM   C13S15203   6.206   5.491   4.823
  139OSM   H13S15204   6.116   5.508   4.759
  139OSM   H13T15205   6.261   5.406   4.778
  139OSM   C14S15206   6.296   5.614   4.812
  139OSM   H14S15207   6.379   5.605   4.886
  139OSM   H14T15208   6.236   5.703   4.839
  139OSM   C15S15209   6.356   5.636   4.672
  139OSM   H15S15210   6.399   5.738   4.665
  139OSM   H15T15211   6.276   5.626   4.596
  139OSM   C16S15212   6.471   5.541   4.642
  139OSM   H16S15213   6.426   5.440   4.632
  139OSM   H16T15214   6.541   5.542   4.728
  139OSM   C17S15215   6.550   5.572   4.514
  139OSM   H17S15216   6.651   5.610   4.540
  139OSM   H17T15217   6.498   5.655   4.462
  139OSM   C18S15218   6.562   5.451   4.421
  139OSM   H18S15219   6.465   5.398   4.411
  139OSM   H18T15220   6.636   5.374   4.452
  139OSM   H18U15221   6.594   5.485   4.320
  139OSM    C1F15222   6.375   5.430   5.717
  139OSM     OF15223   6.466   5.383   5.782
  139OSM    C2F15224   6.390   5.462   5.572
  139OSM    H2F15225   6.483   5.521   5.558
  139OSM    H2G15226   6.303   5.523   5.539
  139OSM    C3F15227   6.397   5.332   5.488
  139OSM    H3F15228   6.500   5.291   5.493
  139OSM    H3G15229   6.375   5.356   5.382
  139OSM    C4F15230   6.300   5.222   5.536
  139OSM    H4F15231   6.199   5.267   5.550
  139OSM    H4G15232   6.332   5.183   5.635
  139OSM    C5F15233   6.289   5.105   5.439
  139OSM    H5F15234   6.390   5.075   5.407
  139OSM    H5G15235   6.234   5.143   5.351
  139OSM    C6F15236   6.216   4.985   5.501
  139OSM    H6F15237   6.108   5.007   5.503
  139OSM    H6G15238   6.250   4.972   5.606
  139OSM    C7F15239   6.242   4.851   5.429
  139OSM    H7F15240   6.185   4.772   5.481
  139OSM    H7G15241   6.348   4.821   5.443
  139OSM    C8F15242   6.216   4.848   5.277
  139OSM    H8F15243   6.198   4.742   5.248
  139OSM    H8G15244   6.312   4.876   5.228
  139OSM    C9F15245   6.102   4.932   5.225
  139OSM    H9F15246   6.001   4.902   5.257
  139OSM   C10F15247   6.114   5.040   5.145
  139OSM   H10F15248   6.023   5.091   5.111
  139OSM   C11F15249   6.244   5.095   5.092
  139OSM   H11F15250   6.329   5.066   5.157
  139OSM   H11G15251   6.244   5.206   5.094
  139OSM   C12F15252   6.275   5.045   4.950
  139OSM   H12F15253   6.250   4.937   4.938
  139OSM   H12G15254   6.386   5.052   4.947
  139OSM   C13F15255   6.219   5.130   4.835
  139OSM   H13F15256   6.274   5.226   4.841
  139OSM   H13G15257   6.111   5.151   4.853
  139OSM   C14F15258   6.235   5.072   4.693
  139OSM   H14F15259   6.225   4.961   4.700
  139OSM   H14G15260   6.338   5.096   4.658
  139OSM   C15F15261   6.136   5.115   4.584
  139OSM   H15F15262   6.039   5.064   4.603
  139OSM   H15G15263   6.175   5.076   4.488
  139OSM   C16F15264   6.111   5.265   4.573
  139OSM   H16F15265   6.206   5.317   4.548
  139OSM   H16G15266   6.076   5.304   4.671
  139OSM   C17F15267   6.004   5.299   4.468
  139OSM   H17F15268   5.998   5.410   4.459
  139OSM   H17G15269   5.905   5.264   4.505
  139OSM   C18F15270   6.029   5.238   4.330
  139OSM   H18F15271   5.959   5.281   4.254
  139OSM   H18G15272   6.015   5.128   4.332
  139OSM   H18H15273   6.133   5.258   4.297
  140OSM      N15274   1.428   1.507   6.428
  140OSM    C1515275   1.418   1.607   6.540
  140OSM   H15A15276   1.328   1.591   6.597
  140OSM   H15B15277   1.416   1.708   6.502
  140OSM   H15C15278   1.501   1.597   6.609
  140OSM    C1415279   1.314   1.530   6.334
  140OSM   H14A15280   1.313   1.632   6.297
  140OSM   H14B15281   1.220   1.511   6.384
  140OSM   H14C15282   1.323   1.463   6.251
  140OSM    C1315283   1.557   1.523   6.353
  140OSM   H13A15284   1.643   1.511   6.417
  140OSM   H13B15285   1.562   1.616   6.298
  140OSM   H13C15286   1.565   1.445   6.279
  140OSM    C1215287   1.419   1.365   6.485
  140OSM   H12A15288   1.328   1.356   6.542
  140OSM   H12B15289   1.499   1.348   6.555
  140OSM    C1115290   1.424   1.245   6.387
  140OSM   H11A15291   1.352   1.260   6.304
  140OSM   H11B15292   1.390   1.156   6.444
  140OSM      P15293   1.650   1.106   6.374
  140OSM    O1315294   1.731   1.145   6.492
  140OSM    O1415295   1.574   0.979   6.379
  140OSM    O1115296   1.748   1.096   6.251
  140OSM    O1215297   1.555   1.227   6.333
  140OSM    C1S15298   1.794   1.216   6.190
  140OSM    H1S15299   1.903   1.224   6.206
  140OSM    H1T15300   1.751   1.310   6.232
  140OSM     NF15301   1.627   1.231   6.007
  140OSM    HNF15302   1.581   1.147   5.977
  140OSM    C2S15303   1.769   1.219   6.037
  140OSM    H2S15304   1.821   1.310   6.001
  140OSM    C3S15305   1.835   1.097   5.968
  140OSM    H3S15306   1.789   1.002   6.002
  140OSM     O315307   1.976   1.092   5.994
  140OSM    HO315308   1.991   1.164   6.055
  140OSM    C4S15309   1.816   1.115   5.820
  140OSM    H4S15310   1.889   1.181   5.772
  140OSM    C5S15311   1.720   1.058   5.746
  140OSM    H5S15312   1.647   0.991   5.794
  140OSM    C6S15313   1.698   1.079   5.598
  140OSM    H6S15314   1.663   1.183   5.582
  140OSM    H6T15315   1.611   1.019   5.564
  140OSM    C7S15316   1.817   1.054   5.503
  140OSM    H7S15317   1.861   0.955   5.526
  140OSM    H7T15318   1.896   1.131   5.520
  140OSM    C8S15319   1.774   1.056   5.355
  140OSM    H8S15320   1.732   1.156   5.330
  140OSM    H8T15321   1.691   0.984   5.341
  140OSM    C9S15322   1.888   1.019   5.260
  140OSM    H9S15323   1.929   0.921   5.293
  140OSM    H9T15324   1.975   1.087   5.268
  140OSM   C10S15325   1.848   1.002   5.112
  140OSM   H10S15326   1.769   0.924   5.114
  140OSM   H10T15327   1.936   0.965   5.054
  140OSM   C11S15328   1.775   1.111   5.033
  140OSM   H11S15329   1.820   1.211   5.046
  140OSM   H11T15330   1.672   1.118   5.073
  140OSM   C12S15331   1.765   1.076   4.883
  140OSM   H12S15332   1.682   1.004   4.867
  140OSM   H12T15333   1.859   1.029   4.850
  140OSM   C13S15334   1.744   1.202   4.799
  140OSM   H13S15335   1.837   1.262   4.812
  140OSM   H13T15336   1.661   1.263   4.841
  140OSM   C14S15337   1.721   1.178   4.649
  140OSM   H14S15338   1.622   1.131   4.634
  140OSM   H14T15339   1.798   1.109   4.610
  140OSM   C15S15340   1.730   1.311   4.573
  140OSM   H15S15341   1.836   1.344   4.575
  140OSM   H15T15342   1.671   1.387   4.628
  140OSM   C16S15343   1.685   1.309   4.426
  140OSM   H16S15344   1.584   1.265   4.418
  140OSM   H16T15345   1.755   1.244   4.368
  140OSM   C17S15346   1.685   1.451   4.367
  140OSM   H17S15347   1.607   1.511   4.418
  140OSM   H17T15348   1.657   1.444   4.259
  140OSM   C18S15349   1.819   1.523   4.380
  140OSM   H18S15350   1.843   1.544   4.486
  140OSM   H18T15351   1.819   1.619   4.324
  140OSM   H18U15352   1.901   1.459   4.341
  140OSM    C1F15353   1.557   1.343   6.025
  140OSM     OF15354   1.605   1.441   6.079
  140OSM    C2F15355   1.415   1.346   5.978
  140OSM    H2F15356   1.396   1.447   5.935
  140OSM    H2G15357   1.351   1.334   6.067
  140OSM    C3F15358   1.379   1.238   5.873
  140OSM    H3F15359   1.269   1.241   5.855
  140OSM    H3G15360   1.401   1.137   5.913
  140OSM    C4F15361   1.448   1.256   5.737
  140OSM    H4F15362   1.432   1.162   5.679
  140OSM    H4G15363   1.557   1.271   5.750
  140OSM    C5F15364   1.394   1.372   5.654
  140OSM    H5F15365   1.441   1.468   5.685
  140OSM    H5G15366   1.284   1.381   5.673
  140OSM    C6F15367   1.413   1.350   5.503
  140OSM    H6F15368   1.375   1.249   5.475
  140OSM    H6G15369   1.520   1.354   5.476
  140OSM    C7F15370   1.334   1.454   5.424
  140OSM    H7F15371   1.381   1.554   5.438
  140OSM    H7G15372   1.231   1.456   5.467
  140OSM    C8F15373   1.316   1.426   5.275
  140OSM    H8F15374   1.251   1.503   5.229
  140OSM    H8G15375   1.258   1.331   5.264
  140OSM    C9F15376   1.449   1.424   5.207
  140OSM    H9F15377   1.502   1.520   5.202
  140OSM   C10F15378   1.505   1.315   5.152
  140OSM   H10F15379   1.602   1.325   5.101
  140OSM   C11F15380   1.442   1.177   5.149
  140OSM   H11F15381   1.352   1.167   5.214
  140OSM   H11G15382   1.513   1.102   5.190
  140OSM   C12F15383   1.402   1.140   5.005
  140OSM   H12F15384   1.369   1.034   5.008
  140OSM   H12G15385   1.489   1.145   4.936
  140OSM   C13F15386   1.285   1.225   4.951
  140OSM   H13F15387   1.224   1.258   5.037
  140OSM   H13G15388   1.222   1.160   4.887
  140OSM   C14F15389   1.323   1.348   4.867
  140OSM   H14F15390   1.398   1.410   4.920
  140OSM   H14G15391   1.232   1.410   4.853
  140OSM   C15F15392   1.377   1.309   4.728
  140OSM   H15F15393   1.302   1.246   4.676
  140OSM   H15G15394   1.468   1.248   4.742
  140OSM   C16F15395   1.411   1.429   4.639
  140OSM   H16F15396   1.460   1.389   4.547
  140OSM   H16G15397   1.483   1.496   4.690
  140OSM   C17F15398   1.290   1.508   4.592
  140OSM   H17F15399   1.253   1.568   4.678
  140OSM   H17G15400   1.210   1.436   4.565
  140OSM   C18F15401   1.319   1.598   4.472
  140OSM   H18F15402   1.229   1.655   4.442
  140OSM   H18G15403   1.352   1.537   4.385
  140OSM   H18H15404   1.400   1.671   4.496
  141OSM      N15405   0.118   3.579   6.433
  141OSM    C1515406   0.066   3.467   6.350
  141OSM   H15A15407  -0.028   3.428   6.388
  141OSM   H15B15408   0.139   3.387   6.348
  141OSM   H15C15409   0.050   3.498   6.248
  141OSM    C1415410   0.012   3.684   6.439
  141OSM   H14A15411  -0.015   3.719   6.340
  141OSM   H14B15412   0.041   3.769   6.499
  141OSM   H14C15413  -0.078   3.643   6.483
  141OSM    C1315414   0.142   3.525   6.571
  141OSM   H13A15415   0.052   3.482   6.611
  141OSM   H13B15416   0.177   3.602   6.638
  141OSM   H13C15417   0.216   3.448   6.567
  141OSM    C1215418   0.250   3.632   6.376
  141OSM   H12A15419   0.281   3.719   6.433
  141OSM   H12B15420   0.236   3.665   6.274
  141OSM    C1115421   0.371   3.535   6.370
  141OSM   H11A15422   0.394   3.495   6.471
  141OSM   H11B15423   0.460   3.595   6.339
  141OSM      P15424   0.385   3.284   6.292
  141OSM    O1315425   0.531   3.270   6.310
  141OSM    O1415426   0.296   3.228   6.397
  141OSM    O1115427   0.343   3.230   6.150
  141OSM    O1215428   0.347   3.436   6.272
  141OSM    C1S15429   0.206   3.243   6.107
  141OSM    H1S15430   0.151   3.323   6.161
  141OSM    H1T15431   0.153   3.148   6.126
  141OSM     NF15432   0.228   3.167   5.879
  141OSM    HNF15433   0.323   3.158   5.848
  141OSM    C2S15434   0.193   3.281   5.957
  141OSM    H2S15435   0.087   3.306   5.937
  141OSM    C3S15436   0.278   3.404   5.920
  141OSM    H3S15437   0.382   3.398   5.957
  141OSM     O315438   0.219   3.522   5.974
  141OSM    HO315439   0.260   3.528   6.061
  141OSM    C4S15440   0.279   3.418   5.768
  141OSM    H4S15441   0.190   3.466   5.725
  141OSM    C5S15442   0.378   3.373   5.689
  141OSM    H5S15443   0.465   3.325   5.737
  141OSM    C6S15444   0.389   3.379   5.538
  141OSM    H6S15445   0.390   3.276   5.497
  141OSM    H6T15446   0.488   3.423   5.514
  141OSM    C7S15447   0.281   3.451   5.455
  141OSM    H7S15448   0.261   3.551   5.499
  141OSM    H7T15449   0.185   3.395   5.463
  141OSM    C8S15450   0.312   3.467   5.303
  141OSM    H8S15451   0.270   3.564   5.268
  141OSM    H8T15452   0.255   3.391   5.248
  141OSM    C9S15453   0.460   3.455   5.256
  141OSM    H9S15454   0.509   3.371   5.310
  141OSM    H9T15455   0.516   3.548   5.279
  141OSM   C10S15456   0.476   3.426   5.106
  141OSM   H10S15457   0.421   3.333   5.080
  141OSM   H10T15458   0.583   3.409   5.083
  141OSM   C11S15459   0.426   3.542   5.018
  141OSM   H11S15460   0.491   3.630   5.034
  141OSM   H11T15461   0.324   3.568   5.053
  141OSM   C12S15462   0.417   3.511   4.867
  141OSM   H12S15463   0.508   3.457   4.832
  141OSM   H12T15464   0.416   3.609   4.815
  141OSM   C13S15465   0.288   3.435   4.831
  141OSM   H13S15466   0.213   3.457   4.909
  141OSM   H13T15467   0.309   3.326   4.835
  141OSM   C14S15468   0.223   3.474   4.697
  141OSM   H14S15469   0.285   3.438   4.612
  141OSM   H14T15470   0.220   3.585   4.692
  141OSM   C15S15471   0.076   3.427   4.683
  141OSM   H15S15472   0.018   3.467   4.769
  141OSM   H15T15473   0.080   3.317   4.695
  141OSM   C16S15474   0.004   3.466   4.552
  141OSM   H16S15475   0.082   3.495   4.478
  141OSM   H16T15476  -0.058   3.556   4.574
  141OSM   C17S15477  -0.089   3.368   4.478
  141OSM   H17S15478  -0.161   3.321   4.547
  141OSM   H17T15479  -0.031   3.286   4.431
  141OSM   C18S15480  -0.158   3.433   4.359
  141OSM   H18S15481  -0.227   3.363   4.309
  141OSM   H18T15482  -0.079   3.463   4.286
  141OSM   H18U15483  -0.213   3.525   4.388
  141OSM    C1F15484   0.143   3.069   5.860
  141OSM     OF15485   0.033   3.066   5.914
  141OSM    C2F15486   0.193   2.963   5.771
  141OSM    H2F15487   0.163   2.864   5.812
  141OSM    H2G15488   0.304   2.967   5.772
  141OSM    C3F15489   0.140   2.978   5.629
  141OSM    H3F15490   0.032   3.001   5.631
  141OSM    H3G15491   0.157   2.877   5.585
  141OSM    C4F15492   0.206   3.075   5.532
  141OSM    H4F15493   0.316   3.066   5.534
  141OSM    H4G15494   0.178   3.180   5.556
  141OSM    C5F15495   0.154   3.035   5.393
  141OSM    H5F15496   0.043   3.044   5.396
  141OSM    H5G15497   0.178   2.929   5.375
  141OSM    C6F15498   0.206   3.116   5.275
  141OSM    H6F15499   0.282   3.058   5.220
  141OSM    H6G15500   0.255   3.207   5.314
  141OSM    C7F15501   0.089   3.151   5.181
  141OSM    H7F15502   0.020   3.218   5.236
  141OSM    H7G15503   0.034   3.058   5.158
  141OSM    C8F15504   0.134   3.216   5.050
  141OSM    H8F15505   0.202   3.146   4.997
  141OSM    H8G15506   0.193   3.307   5.071
  141OSM    C9F15507   0.013   3.252   4.968
  141OSM    H9F15508  -0.037   3.345   4.996
  141OSM   C10F15509  -0.038   3.179   4.866
  141OSM   H10F15510  -0.127   3.216   4.813
  141OSM   C11F15511   0.015   3.049   4.814
  141OSM   H11F15512  -0.053   2.972   4.857
  141OSM   H11G15513   0.118   3.027   4.847
  141OSM   C12F15514   0.004   3.024   4.664
  141OSM   H12F15515  -0.099   3.048   4.628
  141OSM   H12G15516   0.015   2.914   4.653
  141OSM   C13F15517   0.105   3.091   4.570
  141OSM   H13F15518   0.071   3.195   4.551
  141OSM   H13G15519   0.101   3.041   4.471
  141OSM   C14F15520   0.251   3.111   4.612
  141OSM   H14F15521   0.285   3.015   4.657
  141OSM   H14G15522   0.259   3.187   4.693
  141OSM   C15F15523   0.325   3.160   4.486
  141OSM   H15F15524   0.278   3.258   4.465
  141OSM   H15G15525   0.301   3.091   4.403
  141OSM   C16F15526   0.476   3.184   4.483
  141OSM   H16F15527   0.531   3.088   4.493
  141OSM   H16G15528   0.504   3.250   4.568
  141OSM   C17F15529   0.522   3.253   4.351
  141OSM   H17F15530   0.619   3.306   4.365
  141OSM   H17G15531   0.451   3.336   4.328
  141OSM   C18F15532   0.537   3.162   4.229
  141OSM   H18F15533   0.440   3.116   4.200
  141OSM   H18G15534   0.608   3.079   4.248
  141OSM   H18H15535   0.574   3.220   4.141
  142OSM      N15536   6.363   1.260   6.548
  142OSM    C1515537   6.291   1.147   6.480
  142OSM   H15A15538   6.302   1.153   6.373
  142OSM   H15B15539   6.185   1.146   6.502
  142OSM   H15C15540   6.328   1.050   6.511
  142OSM    C1415541   6.349   1.246   6.696
  142OSM   H14A15542   6.392   1.153   6.731
  142OSM   H14B15543   6.245   1.245   6.726
  142OSM   H14C15544   6.399   1.327   6.749
  142OSM    C1315545   6.509   1.249   6.512
  142OSM   H13A15546   6.565   1.330   6.557
  142OSM   H13B15547   6.518   1.263   6.405
  142OSM   H13C15548   6.551   1.154   6.540
  142OSM    C1215549   6.312   1.395   6.500
  142OSM   H12A15550   6.372   1.472   6.545
  142OSM   H12B15551   6.210   1.409   6.534
  142OSM    C1115552   6.314   1.424   6.347
  142OSM   H11A15553   6.269   1.524   6.330
  142OSM   H11B15554   6.249   1.349   6.297
  142OSM      P15555   6.499   1.499   6.173
  142OSM    O1315556   6.511   1.641   6.214
  142OSM    O1415557   6.624   1.434   6.127
  142OSM    O1115558   6.383   1.479   6.066
  142OSM    O1215559   6.447   1.417   6.297
  142OSM    C1S15560   6.341   1.346   6.027
  142OSM    H1S15561   6.263   1.308   6.096
  142OSM    H1T15562   6.425   1.273   6.030
  142OSM     NF15563   6.379   1.388   5.790
  142OSM    HNF15564   6.377   1.485   5.767
  142OSM    C2S15565   6.279   1.341   5.884
  142OSM    H2S15566   6.253   1.236   5.859
  142OSM    C3S15567   6.147   1.423   5.882
  142OSM    H3S15568   6.167   1.526   5.919
  142OSM     O315569   6.046   1.369   5.967
  142OSM    HO315570   6.046   1.430   6.040
  142OSM    C4S15571   6.098   1.436   5.740
  142OSM    H4S15572   6.129   1.530   5.692
  142OSM    C5S15573   6.022   1.351   5.668
  142OSM    H5S15574   5.988   1.256   5.712
  142OSM    C6S15575   5.981   1.379   5.526
  142OSM    H6S15576   6.016   1.479   5.493
  142OSM    H6T15577   5.870   1.379   5.519
  142OSM    C7S15578   6.035   1.277   5.426
  142OSM    H7S15579   5.989   1.303   5.328
  142OSM    H7T15580   6.002   1.175   5.454
  142OSM    C8S15581   6.187   1.277   5.405
  142OSM    H8S15582   6.212   1.192   5.338
  142OSM    H8T15583   6.239   1.260   5.501
  142OSM    C9S15584   6.238   1.406   5.339
  142OSM    H9S15585   6.222   1.492   5.408
  142OSM    H9T15586   6.180   1.425   5.246
  142OSM   C10S15587   6.386   1.396   5.305
  142OSM   H10S15588   6.403   1.306   5.242
  142OSM   H10T15589   6.441   1.380   5.401
  142OSM   C11S15590   6.444   1.520   5.236
  142OSM   H11S15591   6.553   1.521   5.259
  142OSM   H11T15592   6.399   1.613   5.278
  142OSM   C12S15593   6.432   1.518   5.083
  142OSM   H12S15594   6.325   1.530   5.053
  142OSM   H12T15595   6.468   1.420   5.046
  142OSM   C13S15596   6.517   1.627   5.019
  142OSM   H13S15597   6.617   1.628   5.068
  142OSM   H13T15598   6.470   1.726   5.040
  142OSM   C14S15599   6.543   1.608   4.869
  142OSM   H14S15600   6.594   1.510   4.854
  142OSM   H14T15601   6.614   1.688   4.835
  142OSM   C15S15602   6.418   1.614   4.781
  142OSM   H15S15603   6.377   1.717   4.784
  142OSM   H15T15604   6.341   1.545   4.821
  142OSM   C16S15605   6.445   1.575   4.634
  142OSM   H16S15606   6.350   1.582   4.577
  142OSM   H16T15607   6.478   1.469   4.631
  142OSM   C17S15608   6.552   1.662   4.567
  142OSM   H17S15609   6.649   1.648   4.619
  142OSM   H17T15610   6.522   1.768   4.576
  142OSM   C18S15611   6.571   1.628   4.419
  142OSM   H18S15612   6.597   1.521   4.407
  142OSM   H18T15613   6.653   1.689   4.375
  142OSM   H18U15614   6.478   1.648   4.361
  142OSM    C1F15615   6.488   1.314   5.772
  142OSM     OF15616   6.488   1.194   5.796
  142OSM    C2F15617   6.609   1.389   5.726
  142OSM    H2F15618   6.622   1.477   5.792
  142OSM    H2G15619   6.591   1.424   5.622
  142OSM    C3F15620   6.738   1.305   5.731
  142OSM    H3F15621   6.752   1.264   5.834
  142OSM    H3G15622   6.823   1.374   5.711
  142OSM    C4F15623   6.745   1.190   5.629
  142OSM    H4F15624   6.678   1.107   5.663
  142OSM    H4G15625   6.848   1.148   5.627
  142OSM    C5F15626   6.705   1.229   5.487
  142OSM    H5F15627   6.740   1.332   5.462
  142OSM    H5G15628   6.594   1.228   5.481
  142OSM    C6F15629   6.762   1.131   5.384
  142OSM    H6F15630   6.773   1.034   5.436
  142OSM    H6G15631   6.863   1.163   5.352
  142OSM    C7F15632   6.672   1.111   5.261
  142OSM    H7F15633   6.571   1.083   5.298
  142OSM    H7G15634   6.709   1.026   5.200
  142OSM    C8F15635   6.659   1.236   5.173
  142OSM    H8F15636   6.636   1.323   5.238
  142OSM    H8G15637   6.570   1.221   5.108
  142OSM    C9F15638   6.781   1.269   5.090
  142OSM    H9F15639   6.861   1.322   5.142
  142OSM   C10F15640   6.796   1.236   4.960
  142OSM   H10F15641   6.889   1.263   4.908
  142OSM   C11F15642   6.694   1.161   4.880
  142OSM   H11F15643   6.595   1.211   4.881
  142OSM   H11G15644   6.679   1.061   4.927
  142OSM   C12F15645   6.735   1.139   4.733
  142OSM   H12F15646   6.842   1.109   4.730
  142OSM   H12G15647   6.725   1.232   4.674
  142OSM   C13F15648   6.655   1.025   4.668
  142OSM   H13F15649   6.628   0.954   4.749
  142OSM   H13G15650   6.718   0.971   4.595
  142OSM   C14F15651   6.527   1.067   4.598
  142OSM   H14F15652   6.483   1.155   4.651
  142OSM   H14G15653   6.454   0.984   4.606
  142OSM   C15F15654   6.549   1.101   4.450
  142OSM   H15F15655   6.593   1.014   4.397
  142OSM   H15G15656   6.623   1.184   4.444
  142OSM   C16F15657   6.420   1.144   4.381
  142OSM   H16F15658   6.444   1.187   4.282
  142OSM   H16G15659   6.377   1.226   4.442
  142OSM   C17F15660   6.315   1.032   4.366
  142OSM   H17F15661   6.218   1.067   4.408
  142OSM   H17G15662   6.343   0.942   4.426
  142OSM   C18F15663   6.284   0.993   4.223
  142OSM   H18F15664   6.337   0.899   4.196
  142OSM   H18G15665   6.317   1.075   4.156
  142OSM   H18H15666   6.175   0.978   4.206
  143OSM      N15667   6.946   5.189   6.524
  143OSM    C1515668   6.823   5.273   6.505
  143OSM   H15A15669   6.771   5.292   6.598
  143OSM   H15B15670   6.754   5.227   6.436
  143OSM   H15C15671   6.851   5.367   6.460
  143OSM    C1415672   7.036   5.261   6.620
  143OSM   H14A15673   6.993   5.263   6.719
  143OSM   H14B15674   7.051   5.361   6.585
  143OSM   H14C15675   7.133   5.214   6.625
  143OSM    C1315676   6.910   5.054   6.578
  143OSM   H13A15677   6.856   5.062   6.672
  143OSM   H13B15678   6.998   4.994   6.593
  143OSM   H13C15679   6.848   4.999   6.509
  143OSM    C1215680   7.020   5.176   6.392
  143OSM   H12A15681   6.946   5.145   6.319
  143OSM   H12B15682   7.092   5.095   6.397
  143OSM    C1115683   7.090   5.302   6.334
  143OSM   H11A15684   7.120   5.280   6.230
  143OSM   H11B15685   7.183   5.320   6.393
  143OSM      P15686   7.056   5.563   6.325
  143OSM    O1315687   6.954   5.648   6.391
  143OSM    O1415688   7.193   5.569   6.384
  143OSM    O1115689   7.059   5.587   6.168
  143OSM    O1215690   7.003   5.415   6.337
  143OSM    C1S15691   7.175   5.548   6.094
  143OSM    H1S15692   7.224   5.459   6.138
  143OSM    H1T15693   7.250   5.631   6.095
  143OSM     NF15694   7.257   5.436   5.892
  143OSM    HNF15695   7.322   5.490   5.838
  143OSM    C2S15696   7.145   5.513   5.944
  143OSM    H2S15697   7.055   5.449   5.941
  143OSM    C3S15698   7.119   5.639   5.858
  143OSM    H3S15699   7.205   5.709   5.869
  143OSM     O315700   7.001   5.709   5.893
  143OSM    HO315701   6.981   5.680   5.983
  143OSM    C4S15702   7.109   5.598   5.712
  143OSM    H4S15703   7.008   5.568   5.681
  143OSM    C5S15704   7.211   5.598   5.623
  143OSM    H5S15705   7.310   5.633   5.655
  143OSM    C6S15706   7.200   5.557   5.479
  143OSM    H6S15707   7.095   5.565   5.442
  143OSM    H6T15708   7.223   5.448   5.482
  143OSM    C7S15709   7.297   5.620   5.375
  143OSM    H7S15710   7.369   5.543   5.339
  143OSM    H7T15711   7.357   5.699   5.423
  143OSM    C8S15712   7.228   5.684   5.253
  143OSM    H8S15713   7.269   5.786   5.232
  143OSM    H8T15714   7.120   5.697   5.277
  143OSM    C9S15715   7.241   5.608   5.122
  143OSM    H9S15716   7.150   5.633   5.062
  143OSM    H9T15717   7.241   5.500   5.145
  143OSM   C10S15718   7.363   5.635   5.034
  143OSM   H10S15719   7.453   5.600   5.089
  143OSM   H10T15720   7.374   5.744   5.015
  143OSM   C11S15721   7.350   5.560   4.900
  143OSM   H11S15722   7.306   5.460   4.921
  143OSM   H11T15723   7.451   5.542   4.856
  143OSM   C12S15724   7.263   5.634   4.798
  143OSM   H12S15725   7.182   5.688   4.852
  143OSM   H12T15726   7.213   5.560   4.731
  143OSM   C13S15727   7.344   5.733   4.713
  143OSM   H13S15728   7.378   5.681   4.620
  143OSM   H13T15729   7.436   5.759   4.770
  143OSM   C14S15730   7.273   5.865   4.678
  143OSM   H14S15731   7.343   5.926   4.617
  143OSM   H14T15732   7.254   5.921   4.772
  143OSM   C15S15733   7.140   5.854   4.601
  143OSM   H15S15734   7.109   5.954   4.566
  143OSM   H15T15735   7.062   5.817   4.672
  143OSM   C16S15736   7.144   5.758   4.482
  143OSM   H16S15737   7.042   5.745   4.442
  143OSM   H16T15738   7.176   5.660   4.523
  143OSM   C17S15739   7.239   5.797   4.368
  143OSM   H17S15740   7.340   5.817   4.409
  143OSM   H17T15741   7.202   5.890   4.321
  143OSM   C18S15742   7.252   5.688   4.260
  143OSM   H18S15743   7.307   5.727   4.171
  143OSM   H18T15744   7.152   5.653   4.228
  143OSM   H18U15745   7.308   5.601   4.299
  143OSM    C1F15746   7.286   5.313   5.928
  143OSM     OF15747   7.209   5.243   5.991
  143OSM    C2F15748   7.425   5.270   5.897
  143OSM    H2F15749   7.473   5.242   5.993
  143OSM    H2G15750   7.478   5.359   5.855
  143OSM    C3F15751   7.441   5.154   5.798
  143OSM    H3F15752   7.381   5.067   5.832
  143OSM    H3G15753   7.547   5.119   5.805
  143OSM    C4F15754   7.407   5.178   5.651
  143OSM    H4F15755   7.460   5.268   5.611
  143OSM    H4G15756   7.298   5.198   5.640
  143OSM    C5F15757   7.447   5.052   5.573
  143OSM    H5F15758   7.410   4.966   5.634
  143OSM    H5G15759   7.557   5.045   5.565
  143OSM    C6F15760   7.385   5.032   5.435
  143OSM    H6F15761   7.276   5.054   5.441
  143OSM    H6G15762   7.396   4.924   5.411
  143OSM    C7F15763   7.453   5.110   5.323
  143OSM    H7F15764   7.515   5.038   5.265
  143OSM    H7G15765   7.519   5.184   5.373
  143OSM    C8F15766   7.362   5.182   5.225
  143OSM    H8F15767   7.311   5.108   5.159
  143OSM    H8G15768   7.423   5.247   5.158
  143OSM    C9F15769   7.267   5.264   5.306
  143OSM    H9F15770   7.304   5.289   5.407
  143OSM   C10F15771   7.144   5.299   5.270
  143OSM   H10F15772   7.079   5.356   5.339
  143OSM   C11F15773   7.083   5.263   5.140
  143OSM   H11F15774   7.006   5.187   5.162
  143OSM   H11G15775   7.157   5.216   5.071
  143OSM   C12F15776   7.019   5.379   5.064
  143OSM   H12F15777   7.100   5.438   5.015
  143OSM   H12G15778   6.961   5.446   5.131
  143OSM   C13F15779   6.933   5.335   4.947
  143OSM   H13F15780   6.940   5.416   4.871
  143OSM   H13G15781   6.827   5.331   4.980
  143OSM   C14F15782   6.974   5.202   4.884
  143OSM   H14F15783   6.891   5.167   4.820
  143OSM   H14G15784   6.986   5.120   4.958
  143OSM   C15F15785   7.100   5.211   4.799
  143OSM   H15F15786   7.188   5.181   4.860
  143OSM   H15G15787   7.118   5.315   4.764
  143OSM   C16F15788   7.085   5.120   4.679
  143OSM   H16F15789   7.027   5.173   4.602
  143OSM   H16G15790   7.025   5.032   4.712
  143OSM   C17F15791   7.218   5.070   4.625
  143OSM   H17F15792   7.240   4.975   4.679
  143OSM   H17G15793   7.298   5.142   4.653
  143OSM   C18F15794   7.222   5.047   4.474
  143OSM   H18F15795   7.301   4.972   4.450
  143OSM   H18G15796   7.247   5.139   4.419
  143OSM   H18H15797   7.125   5.008   4.436
  144OSM      N15798   0.307   4.593   6.395
  144OSM    C1515799   0.408   4.489   6.431
  144OSM   H15A15800   0.455   4.510   6.526
  144OSM   H15B15801   0.484   4.482   6.355
  144OSM   H15C15802   0.362   4.392   6.434
  144OSM    C1415803   0.375   4.726   6.377
  144OSM   H14A15804   0.447   4.725   6.296
  144OSM   H14B15805   0.422   4.758   6.468
  144OSM   H14C15806   0.300   4.800   6.353
  144OSM    C1315807   0.245   4.553   6.265
  144OSM   H13A15808   0.211   4.450   6.267
  144OSM   H13B15809   0.313   4.562   6.182
  144OSM   H13C15810   0.159   4.615   6.243
  144OSM    C1215811   0.198   4.604   6.501
  144OSM   H12A15812   0.233   4.564   6.595
  144OSM   H12B15813   0.116   4.541   6.471
  144OSM    C1115814   0.138   4.744   6.524
  144OSM   H11A15815   0.216   4.814   6.560
  144OSM   H11B15816   0.064   4.739   6.608
  144OSM      P15817  -0.067   4.748   6.372
  144OSM    O1315818  -0.080   4.606   6.412
  144OSM    O1415819  -0.156   4.848   6.434
  144OSM    O1115820  -0.072   4.755   6.216
  144OSM    O1215821   0.081   4.795   6.403
  144OSM    C1S15822   0.030   4.809   6.132
  144OSM    H1S15823   0.126   4.753   6.143
  144OSM    H1T15824   0.050   4.916   6.155
  144OSM     NF15825   0.092   4.795   5.889
  144OSM    HNF15826   0.104   4.874   5.829
  144OSM    C2S15827  -0.018   4.797   5.985
  144OSM    H2S15828  -0.075   4.702   5.974
  144OSM    C3S15829  -0.119   4.913   5.966
  144OSM    H3S15830  -0.063   5.008   5.983
  144OSM     O315831  -0.221   4.913   6.064
  144OSM    HO315832  -0.187   4.857   6.134
  144OSM    C4S15833  -0.178   4.909   5.827
  144OSM    H4S15834  -0.187   4.809   5.783
  144OSM    C5S15835  -0.222   5.016   5.758
  144OSM    H5S15836  -0.222   5.115   5.807
  144OSM    C6S15837  -0.282   5.015   5.620
  144OSM    H6S15838  -0.246   5.105   5.565
  144OSM    H6T15839  -0.392   5.025   5.628
  144OSM    C7S15840  -0.249   4.891   5.533
  144OSM    H7S15841  -0.295   4.801   5.579
  144OSM    H7T15842  -0.139   4.875   5.533
  144OSM    C8S15843  -0.302   4.906   5.390
  144OSM    H8S15844  -0.336   5.011   5.377
  144OSM    H8T15845  -0.393   4.843   5.379
  144OSM    C9S15846  -0.209   4.879   5.270
  144OSM    H9S15847  -0.157   4.975   5.248
  144OSM    H9T15848  -0.273   4.855   5.183
  144OSM   C10S15849  -0.106   4.767   5.276
  144OSM   H10S15850  -0.159   4.671   5.257
  144OSM   H10T15851  -0.063   4.760   5.378
  144OSM   C11S15852   0.009   4.788   5.175
  144OSM   H11S15853   0.091   4.715   5.193
  144OSM   H11T15854   0.053   4.890   5.190
  144OSM   C12S15855  -0.033   4.778   5.029
  144OSM   H12S15856  -0.099   4.865   5.008
  144OSM   H12T15857  -0.089   4.683   5.017
  144OSM   C13S15858   0.077   4.784   4.923
  144OSM   H13S15859   0.040   4.736   4.830
  144OSM   H13T15860   0.166   4.727   4.957
  144OSM   C14S15861   0.115   4.928   4.890
  144OSM   H14S15862   0.148   4.977   4.984
  144OSM   H14T15863   0.026   4.984   4.854
  144OSM   C15S15864   0.229   4.939   4.788
  144OSM   H15S15865   0.308   4.864   4.811
  144OSM   H15T15866   0.274   5.039   4.804
  144OSM   C16S15867   0.190   4.927   4.639
  144OSM   H16S15868   0.084   4.898   4.627
  144OSM   H16T15869   0.251   4.846   4.594
  144OSM   C17S15870   0.224   5.057   4.566
  144OSM   H17S15871   0.328   5.078   4.599
  144OSM   H17T15872   0.162   5.141   4.603
  144OSM   C18S15873   0.224   5.055   4.413
  144OSM   H18S15874   0.122   5.067   4.370
  144OSM   H18T15875   0.267   4.959   4.375
  144OSM   H18U15876   0.285   5.139   4.373
  144OSM    C1F15877   0.170   4.687   5.881
  144OSM     OF15878   0.156   4.594   5.960
  144OSM    C2F15879   0.277   4.678   5.775
  144OSM    H2F15880   0.284   4.572   5.744
  144OSM    H2G15881   0.373   4.706   5.824
  144OSM    C3F15882   0.256   4.766   5.650
  144OSM    H3F15883   0.262   4.872   5.680
  144OSM    H3G15884   0.155   4.747   5.607
  144OSM    C4F15885   0.362   4.741   5.541
  144OSM    H4F15886   0.408   4.641   5.557
  144OSM    H4G15887   0.441   4.818   5.547
  144OSM    C5F15888   0.308   4.745   5.398
  144OSM    H5F15889   0.257   4.842   5.380
  144OSM    H5G15890   0.234   4.663   5.384
  144OSM    C6F15891   0.421   4.729   5.294
  144OSM    H6F15892   0.474   4.633   5.310
  144OSM    H6G15893   0.494   4.812   5.307
  144OSM    C7F15894   0.366   4.734   5.151
  144OSM    H7F15895   0.304   4.825   5.140
  144OSM    H7G15896   0.299   4.646   5.136
  144OSM    C8F15897   0.473   4.737   5.040
  144OSM    H8F15898   0.541   4.823   5.059
  144OSM    H8G15899   0.421   4.759   4.945
  144OSM    C9F15900   0.553   4.611   5.023
  144OSM    H9F15901   0.652   4.611   5.071
  144OSM   C10F15902   0.511   4.500   4.960
  144OSM   H10F15903   0.580   4.415   4.951
  144OSM   C11F15904   0.377   4.481   4.895
  144OSM   H11F15905   0.305   4.561   4.922
  144OSM   H11G15906   0.335   4.387   4.937
  144OSM   C12F15907   0.375   4.466   4.743
  144OSM   H12F15908   0.284   4.407   4.718
  144OSM   H12G15909   0.463   4.408   4.708
  144OSM   C13F15910   0.361   4.594   4.659
  144OSM   H13F15911   0.458   4.648   4.658
  144OSM   H13G15912   0.284   4.660   4.705
  144OSM   C14F15913   0.316   4.554   4.518
  144OSM   H14F15914   0.208   4.530   4.519
  144OSM   H14G15915   0.371   4.461   4.493
  144OSM   C15F15916   0.346   4.649   4.402
  144OSM   H15F15917   0.453   4.681   4.405
  144OSM   H15G15918   0.282   4.740   4.409
  144OSM   C16F15919   0.320   4.577   4.269
  144OSM   H16F15920   0.217   4.536   4.273
  144OSM   H16G15921   0.390   4.491   4.259
  144OSM   C17F15922   0.331   4.666   4.145
  144OSM   H17F15923   0.292   4.766   4.171
  144OSM   H17G15924   0.266   4.623   4.066
  144OSM   C18F15925   0.472   4.678   4.088
  144OSM   H18F15926   0.543   4.714   4.166
  144OSM   H18G15927   0.474   4.749   4.003
  144OSM   H18H15928   0.507   4.579   4.051
  145OSM      N15929   0.680   0.189   6.488
  145OSM    C1515930   0.689   0.187   6.638
  145OSM   H15A15931   0.598   0.151   6.684
  145OSM   H15B15932   0.708   0.286   6.675
  145OSM   H15C15933   0.773   0.128   6.673
  145OSM    C1415934   0.595   0.306   6.449
  145OSM   H14A15935   0.492   0.288   6.473
  145OSM   H14B15936   0.604   0.320   6.342
  145OSM   H14C15937   0.629   0.396   6.499
  145OSM    C1315938   0.817   0.209   6.433
  145OSM   H13A15939   0.812   0.212   6.325
  145OSM   H13B15940   0.882   0.125   6.454
  145OSM   H13C15941   0.866   0.299   6.467
  145OSM    C1215942   0.617   0.063   6.428
  145OSM   H12A15943   0.519   0.047   6.471
  145OSM   H12B15944   0.677  -0.024   6.450
  145OSM    C1115945   0.598   0.060   6.273
  145OSM   H11A15946   0.540   0.148   6.240
  145OSM   H11B15947   0.537  -0.028   6.245
  145OSM      P15948   0.810  -0.074   6.208
  145OSM    O1315949   0.890  -0.070   6.333
  145OSM    O1415950   0.724  -0.192   6.187
  145OSM    O1115951   0.909  -0.059   6.086
  145OSM    O1215952   0.723   0.058   6.204
  145OSM    C1S15953   0.863  -0.016   5.958
  145OSM    H1S15954   0.950   0.023   5.902
  145OSM    H1T15955   0.791   0.069   5.966
  145OSM     NF15956   0.665  -0.151   5.898
  145OSM    HNF15957   0.645  -0.213   5.974
  145OSM    C2S15958   0.804  -0.129   5.866
  145OSM    H2S15959   0.812  -0.094   5.761
  145OSM    C3S15960   0.891  -0.255   5.878
  145OSM    H3S15961   0.883  -0.298   5.980
  145OSM     O315962   1.029  -0.224   5.858
  145OSM    HO315963   1.035  -0.129   5.873
  145OSM    C4S15964   0.844  -0.362   5.780
  145OSM    H4S15965   0.785  -0.442   5.827
  145OSM    C5S15966   0.870  -0.369   5.648
  145OSM    H5S15967   0.931  -0.289   5.603
  145OSM    C6S15968   0.826  -0.476   5.551
  145OSM    H6S15969   0.753  -0.546   5.597
  145OSM    H6T15970   0.914  -0.538   5.524
  145OSM    C7S15971   0.766  -0.421   5.420
  145OSM    H7S15972   0.812  -0.323   5.392
  145OSM    H7T15973   0.659  -0.404   5.443
  145OSM    C8S15974   0.776  -0.516   5.300
  145OSM    H8S15975   0.754  -0.618   5.338
  145OSM    H8T15976   0.880  -0.518   5.259
  145OSM    C9S15977   0.675  -0.489   5.186
  145OSM    H9S15978   0.579  -0.456   5.232
  145OSM    H9T15979   0.656  -0.586   5.136
  145OSM   C10S15980   0.711  -0.391   5.074
  145OSM   H10S15981   0.804  -0.424   5.023
  145OSM   H10T15982   0.729  -0.290   5.116
  145OSM   C11S15983   0.595  -0.386   4.972
  145OSM   H11S15984   0.503  -0.357   5.027
  145OSM   H11T15985   0.576  -0.489   4.934
  145OSM   C12S15986   0.614  -0.289   4.855
  145OSM   H12S15987   0.648  -0.191   4.893
  145OSM   H12T15988   0.515  -0.274   4.806
  145OSM   C13S15989   0.713  -0.337   4.748
  145OSM   H13S15990   0.813  -0.346   4.795
  145OSM   H13T15991   0.718  -0.260   4.669
  145OSM   C14S15992   0.676  -0.473   4.686
  145OSM   H14S15993   0.568  -0.474   4.660
  145OSM   H14T15994   0.693  -0.552   4.763
  145OSM   C15S15995   0.759  -0.507   4.562
  145OSM   H15S15996   0.744  -0.614   4.537
  145OSM   H15T15997   0.866  -0.492   4.588
  145OSM   C16S15998   0.722  -0.423   4.439
  145OSM   H16S15999   0.743  -0.315   4.459
  145OSM   H16T16000   0.613  -0.432   4.420
  145OSM   C17S16001   0.798  -0.466   4.312
  145OSM   H17S16002   0.767  -0.400   4.228
  145OSM   H17T16003   0.766  -0.569   4.286
  145OSM   C18S16004   0.950  -0.462   4.326
  145OSM   H18S16005   0.985  -0.359   4.348
  145OSM   H18T16006   0.998  -0.496   4.231
  145OSM   H18U16007   0.985  -0.529   4.407
  145OSM    C1F16008   0.581  -0.057   5.860
  145OSM     OF16009   0.623   0.038   5.797
  145OSM    C2F16010   0.437  -0.075   5.897
  145OSM    H2F16011   0.432  -0.127   5.995
  145OSM    H2G16012   0.392  -0.145   5.823
  145OSM    C3F16013   0.352   0.054   5.903
  145OSM    H3F16014   0.365   0.102   6.003
  145OSM    H3G16015   0.249   0.015   5.895
  145OSM    C4F16016   0.362   0.161   5.793
  145OSM    H4F16017   0.459   0.215   5.803
  145OSM    H4G16018   0.282   0.236   5.809
  145OSM    C5F16019   0.353   0.102   5.652
  145OSM    H5F16020   0.268   0.030   5.645
  145OSM    H5G16021   0.448   0.047   5.639
  145OSM    C6F16022   0.352   0.197   5.533
  145OSM    H6F16023   0.440   0.264   5.547
  145OSM    H6G16024   0.258   0.256   5.529
  145OSM    C7F16025   0.373   0.120   5.402
  145OSM    H7F16026   0.291   0.045   5.391
  145OSM    H7G16027   0.469   0.065   5.415
  145OSM    C8F16028   0.384   0.197   5.269
  145OSM    H8F16029   0.286   0.244   5.247
  145OSM    H8G16030   0.397   0.125   5.186
  145OSM    C9F16031   0.497   0.297   5.270
  145OSM    H9F16032   0.496   0.362   5.358
  145OSM   C10F16033   0.599   0.311   5.184
  145OSM   H10F16034   0.672   0.390   5.205
  145OSM   C11F16035   0.632   0.228   5.063
  145OSM   H11F16036   0.632   0.121   5.093
  145OSM   H11G16037   0.739   0.252   5.044
  145OSM   C12F16038   0.569   0.237   4.922
  145OSM   H12F16039   0.573   0.342   4.887
  145OSM   H12G16040   0.463   0.206   4.923
  145OSM   C13F16041   0.653   0.146   4.828
  145OSM   H13F16042   0.612   0.044   4.814
  145OSM   H13G16043   0.752   0.129   4.876
  145OSM   C14F16044   0.681   0.202   4.689
  145OSM   H14F16045   0.775   0.153   4.655
  145OSM   H14G16046   0.700   0.311   4.692
  145OSM   C15F16047   0.571   0.166   4.588
  145OSM   H15F16048   0.487   0.238   4.597
  145OSM   H15G16049   0.532   0.065   4.613
  145OSM   C16F16050   0.626   0.161   4.446
  145OSM   H16F16051   0.566   0.090   4.384
  145OSM   H16G16052   0.730   0.121   4.448
  145OSM   C17F16053   0.627   0.298   4.379
  145OSM   H17F16054   0.633   0.377   4.457
  145OSM   H17G16055   0.531   0.312   4.326
  145OSM   C18F16056   0.745   0.315   4.284
  145OSM   H18F16057   0.841   0.311   4.339
  145OSM   H18G16058   0.737   0.413   4.234
  145OSM   H18H16059   0.745   0.235   4.207
  146OSM      N16060   7.216   0.214   6.480
  146OSM    C1516061   7.195   0.327   6.576
  146OSM   H15A16062   7.132   0.295   6.658
  146OSM   H15B16063   7.143   0.409   6.528
  146OSM   H15C16064   7.288   0.366   6.614
  146OSM    C1416065   7.310   0.257   6.372
  146OSM   H14A16066   7.405   0.288   6.412
  146OSM   H14B16067   7.268   0.337   6.314
  146OSM   H14C16068   7.327   0.174   6.304
  146OSM    C1316069   7.275   0.097   6.552
  146OSM   H13A16070   7.216   0.066   6.637
  146OSM   H13B16071   7.379   0.111   6.579
  146OSM   H13C16072   7.274   0.012   6.485
  146OSM    C1216073   7.082   0.173   6.421
  146OSM   H12A16074   7.028   0.262   6.390
  146OSM   H12B16075   7.022   0.130   6.500
  146OSM    C1116076   7.080   0.073   6.303
  146OSM   H11A16077   7.124   0.120   6.212
  146OSM   H11B16078   6.974   0.053   6.277
  146OSM      P16079   7.267  -0.114   6.271
  146OSM    O1316080   7.370  -0.136   6.376
  146OSM    O1416081   7.222  -0.228   6.191
  146OSM    O1116082   7.319   0.003   6.177
  146OSM    O1216083   7.142  -0.049   6.340
  146OSM    C1S16084   7.382  -0.033   6.053
  146OSM    H1S16085   7.379  -0.142   6.030
  146OSM    H1T16086   7.489  -0.006   6.061
  146OSM     NF16087   7.359  -0.008   5.802
  146OSM    HNF16088   7.394   0.061   5.740
  146OSM    C2S16089   7.316   0.041   5.933
  146OSM    H2S16090   7.206   0.024   5.940
  146OSM    C3S16091   7.344   0.194   5.945
  146OSM    H3S16092   7.453   0.212   5.948
  146OSM     O316093   7.290   0.260   6.060
  146OSM    HO316094   7.255   0.186   6.110
  146OSM    C4S16095   7.285   0.256   5.822
  146OSM    H4S16096   7.175   0.263   5.823
  146OSM    C5S16097   7.353   0.294   5.712
  146OSM    H5S16098   7.462   0.282   5.704
  146OSM    C6S16099   7.283   0.350   5.592
  146OSM    H6S16100   7.342   0.431   5.543
  146OSM    H6T16101   7.185   0.392   5.624
  146OSM    C7S16102   7.242   0.244   5.490
  146OSM    H7S16103   7.167   0.295   5.425
  146OSM    H7T16104   7.189   0.159   5.538
  146OSM    C8S16105   7.357   0.193   5.404
  146OSM    H8S16106   7.426   0.130   5.464
  146OSM    H8T16107   7.414   0.280   5.365
  146OSM    C9S16108   7.308   0.113   5.283
  146OSM    H9S16109   7.256   0.021   5.316
  146OSM    H9T16110   7.395   0.083   5.222
  146OSM   C10S16111   7.213   0.199   5.197
  146OSM   H10S16112   7.257   0.300   5.189
  146OSM   H10T16113   7.113   0.208   5.244
  146OSM   C11S16114   7.196   0.143   5.057
  146OSM   H11S16115   7.134   0.051   5.060
  146OSM   H11T16116   7.297   0.114   5.019
  146OSM   C12S16117   7.137   0.246   4.961
  146OSM   H12S16118   7.178   0.347   4.984
  146OSM   H12T16119   7.026   0.251   4.973
  146OSM   C13S16120   7.175   0.210   4.819
  146OSM   H13S16121   7.286   0.208   4.812
  146OSM   H13T16122   7.140   0.288   4.747
  146OSM   C14S16123   7.119   0.075   4.775
  146OSM   H14S16124   7.082   0.014   4.860
  146OSM   H14T16125   7.205   0.020   4.731
  146OSM   C15S16126   7.007   0.089   4.672
  146OSM   H15S16127   7.036   0.164   4.595
  146OSM   H15T16128   6.915   0.125   4.724
  146OSM   C16S16129   6.971  -0.041   4.601
  146OSM   H16S16130   6.900  -0.020   4.519
  146OSM   H16T16131   6.919  -0.107   4.675
  146OSM   C17S16132   7.094  -0.113   4.545
  146OSM   H17S16133   7.058  -0.204   4.493
  146OSM   H17T16134   7.159  -0.148   4.628
  146OSM   C18S16135   7.177  -0.028   4.451
  146OSM   H18S16136   7.212   0.064   4.502
  146OSM   H18T16137   7.117   0.000   4.362
  146OSM   H18U16138   7.267  -0.085   4.416
  146OSM    C1F16139   7.341  -0.129   5.750
  146OSM     OF16140   7.322  -0.228   5.818
  146OSM    C2F16141   7.340  -0.134   5.599
  146OSM    H2F16142   7.315  -0.033   5.562
  146OSM    H2G16143   7.255  -0.200   5.569
  146OSM    C3F16144   7.470  -0.181   5.529
  146OSM    H3F16145   7.517  -0.095   5.477
  146OSM    H3G16146   7.438  -0.250   5.448
  146OSM    C4F16147   7.577  -0.255   5.613
  146OSM    H4F16148   7.557  -0.361   5.586
  146OSM    H4G16149   7.562  -0.243   5.722
  146OSM    C5F16150   7.728  -0.238   5.583
  146OSM    H5F16151   7.787  -0.299   5.655
  146OSM    H5G16152   7.760  -0.132   5.597
  146OSM    C6F16153   7.764  -0.280   5.442
  146OSM    H6F16154   7.665  -0.265   5.394
  146OSM    H6G16155   7.791  -0.388   5.437
  146OSM    C7F16156   7.853  -0.195   5.353
  146OSM    H7F16157   7.943  -0.252   5.320
  146OSM    H7G16158   7.892  -0.106   5.407
  146OSM    C8F16159   7.769  -0.166   5.228
  146OSM    H8F16160   7.678  -0.110   5.258
  146OSM    H8G16161   7.734  -0.263   5.188
  146OSM    C9F16162   7.836  -0.097   5.116
  146OSM    H9F16163   7.944  -0.078   5.125
  146OSM   C10F16164   7.768  -0.066   5.006
  146OSM   H10F16165   7.819  -0.011   4.926
  146OSM   C11F16166   7.623  -0.091   4.977
  146OSM   H11F16167   7.556  -0.039   5.049
  146OSM   H11G16168   7.600  -0.200   4.981
  146OSM   C12F16169   7.599  -0.039   4.835
  146OSM   H12F16170   7.680  -0.071   4.767
  146OSM   H12G16171   7.599   0.073   4.838
  146OSM   C13F16172   7.468  -0.088   4.773
  146OSM   H13F16173   7.384  -0.068   4.842
  146OSM   H13G16174   7.472  -0.198   4.761
  146OSM   C14F16175   7.442  -0.020   4.631
  146OSM   H14F16176   7.422   0.065   4.700
  146OSM   H14G16177   7.527  -0.086   4.601
  146OSM   C15F16178   7.530   0.091   4.558
  146OSM   H15F16179   7.633   0.090   4.600
  146OSM   H15G16180   7.490   0.193   4.575
  146OSM   C16F16181   7.538   0.069   4.406
  146OSM   H16F16182   7.514  -0.037   4.383
  146OSM   H16G16183   7.642   0.087   4.371
  146OSM   C17F16184   7.444   0.161   4.328
  146OSM   H17F16185   7.342   0.155   4.371
  146OSM   H17G16186   7.435   0.124   4.223
  146OSM   C18F16187   7.485   0.308   4.326
  146OSM   H18F16188   7.465   0.354   4.426
  146OSM   H18G16189   7.428   0.365   4.250
  146OSM   H18H16190   7.594   0.317   4.305
  147OSM      N16191   3.660   4.017   2.182
  147OSM    C1516192   3.620   3.893   2.108
  147OSM   H15A16193   3.673   3.806   2.146
  147OSM   H15B16194   3.637   3.903   2.002
  147OSM   H15C16195   3.514   3.878   2.122
  147OSM    C1416196   3.649   3.991   2.330
  147OSM   H14A16197   3.550   3.957   2.355
  147OSM   H14B16198   3.671   4.079   2.388
  147OSM   H14C16199   3.717   3.914   2.362
  147OSM    C1316200   3.801   4.057   2.150
  147OSM   H13A16201   3.815   4.070   2.044
  147OSM   H13B16202   3.871   3.983   2.186
  147OSM   H13C16203   3.824   4.152   2.196
  147OSM    C1216204   3.568   4.132   2.142
  147OSM   H12A16205   3.576   4.148   2.036
  147OSM   H12B16206   3.605   4.222   2.188
  147OSM    C1116207   3.418   4.121   2.175
  147OSM   H11A16208   3.374   4.220   2.154
  147OSM   H11B16209   3.405   4.100   2.283
  147OSM      P16210   3.196   4.018   2.091
  147OSM    O1316211   3.152   4.140   2.018
  147OSM    O1416212   3.152   3.886   2.042
  147OSM    O1116213   3.163   4.034   2.245
  147OSM    O1216214   3.355   4.019   2.095
  147OSM    C1S16215   3.169   3.921   2.335
  147OSM    H1S16216   3.238   3.842   2.298
  147OSM    H1T16217   3.069   3.875   2.344
  147OSM     NF16218   3.218   3.843   2.564
  147OSM    HNF16219   3.140   3.826   2.623
  147OSM    C2S16220   3.217   3.961   2.479
  147OSM    H2S16221   3.321   3.999   2.471
  147OSM    C3S16222   3.128   4.075   2.537
  147OSM    H3S16223   3.025   4.036   2.551
  147OSM     O316224   3.116   4.186   2.448
  147OSM    HO316225   3.144   4.148   2.365
  147OSM    C4S16226   3.183   4.127   2.667
  147OSM    H4S16227   3.267   4.198   2.657
  147OSM    C5S16228   3.136   4.097   2.789
  147OSM    H5S16229   3.051   4.027   2.798
  147OSM    C6S16230   3.186   4.149   2.921
  147OSM    H6S16231   3.098   4.183   2.979
  147OSM    H6T16232   3.251   4.238   2.909
  147OSM    C7S16233   3.261   4.046   3.009
  147OSM    H7S16234   3.369   4.049   2.987
  147OSM    H7T16235   3.226   3.943   2.987
  147OSM    C8S16236   3.236   4.074   3.159
  147OSM    H8S16237   3.126   4.079   3.175
  147OSM    H8T16238   3.277   4.174   3.186
  147OSM    C9S16239   3.290   3.965   3.252
  147OSM    H9S16240   3.278   3.865   3.204
  147OSM    H9T16241   3.228   3.963   3.345
  147OSM   C10S16242   3.436   3.986   3.295
  147OSM   H10S16243   3.499   4.004   3.205
  147OSM   H10T16244   3.471   3.892   3.343
  147OSM   C11S16245   3.449   4.102   3.394
  147OSM   H11S16246   3.383   4.083   3.481
  147OSM   H11T16247   3.414   4.196   3.346
  147OSM   C12S16248   3.592   4.126   3.444
  147OSM   H12S16249   3.591   4.208   3.519
  147OSM   H12T16250   3.653   4.162   3.358
  147OSM   C13S16251   3.661   4.003   3.505
  147OSM   H13S16252   3.761   4.033   3.543
  147OSM   H13T16253   3.676   3.926   3.426
  147OSM   C14S16254   3.589   3.938   3.621
  147OSM   H14S16255   3.491   3.902   3.581
  147OSM   H14T16256   3.570   4.013   3.701
  147OSM   C15S16257   3.667   3.819   3.678
  147OSM   H15S16258   3.774   3.846   3.685
  147OSM   H15T16259   3.659   3.733   3.607
  147OSM   C16S16260   3.619   3.776   3.817
  147OSM   H16S16261   3.510   3.753   3.815
  147OSM   H16T16262   3.633   3.861   3.887
  147OSM   C17S16263   3.695   3.654   3.869
  147OSM   H17S16264   3.804   3.673   3.860
  147OSM   H17T16265   3.672   3.567   3.805
  147OSM   C18S16266   3.662   3.621   4.015
  147OSM   H18S16267   3.720   3.532   4.048
  147OSM   H18T16268   3.554   3.599   4.026
  147OSM   H18U16269   3.688   3.706   4.081
  147OSM    C1F16270   3.308   3.745   2.550
  147OSM     OF16271   3.402   3.758   2.472
  147OSM    C2F16272   3.284   3.621   2.631
  147OSM    H2F16273   3.256   3.538   2.562
  147OSM    H2G16274   3.199   3.638   2.700
  147OSM    C3F16275   3.407   3.581   2.716
  147OSM    H3F16276   3.490   3.549   2.649
  147OSM    H3G16277   3.376   3.493   2.776
  147OSM    C4F16278   3.457   3.692   2.809
  147OSM    H4F16279   3.370   3.739   2.860
  147OSM    H4G16280   3.506   3.770   2.748
  147OSM    C5F16281   3.558   3.643   2.915
  147OSM    H5F16282   3.606   3.731   2.962
  147OSM    H5G16283   3.638   3.585   2.864
  147OSM    C6F16284   3.497   3.557   3.026
  147OSM    H6F16285   3.579   3.522   3.092
  147OSM    H6G16286   3.448   3.467   2.982
  147OSM    C7F16287   3.393   3.631   3.111
  147OSM    H7F16288   3.307   3.658   3.046
  147OSM    H7G16289   3.437   3.726   3.149
  147OSM    C8F16290   3.337   3.548   3.228
  147OSM    H8F16291   3.312   3.447   3.190
  147OSM    H8G16292   3.241   3.595   3.258
  147OSM    C9F16293   3.434   3.539   3.343
  147OSM    H9F16294   3.536   3.511   3.315
  147OSM   C10F16295   3.406   3.562   3.473
  147OSM   H10F16296   3.486   3.549   3.547
  147OSM   C11F16297   3.273   3.603   3.529
  147OSM   H11F16298   3.218   3.512   3.563
  147OSM   H11G16299   3.209   3.650   3.451
  147OSM   C12F16300   3.284   3.702   3.646
  147OSM   H12F16301   3.385   3.748   3.643
  147OSM   H12G16302   3.277   3.649   3.744
  147OSM   C13F16303   3.183   3.817   3.638
  147OSM   H13F16304   3.085   3.783   3.679
  147OSM   H13G16305   3.167   3.842   3.531
  147OSM   C14F16306   3.230   3.945   3.708
  147OSM   H14F16307   3.166   4.029   3.674
  147OSM   H14G16308   3.333   3.973   3.676
  147OSM   C15F16309   3.227   3.937   3.861
  147OSM   H15F16310   3.307   3.869   3.898
  147OSM   H15G16311   3.130   3.891   3.890
  147OSM   C16F16312   3.238   4.076   3.926
  147OSM   H16F16313   3.168   4.080   4.013
  147OSM   H16G16314   3.204   4.153   3.854
  147OSM   C17F16315   3.379   4.110   3.975
  147OSM   H17F16316   3.384   4.220   3.992
  147OSM   H17G16317   3.452   4.085   3.896
  147OSM   C18F16318   3.417   4.039   4.106
  147OSM   H18F16319   3.345   4.065   4.186
  147OSM   H18G16320   3.519   4.068   4.138
  147OSM   H18H16321   3.414   3.929   4.092
  148OSM      N16322   3.078   2.481   2.029
  148OSM    C1516323   2.999   2.362   1.985
  148OSM   H15A16324   3.055   2.304   1.912
  148OSM   H15B16325   2.907   2.393   1.939
  148OSM   H15C16326   2.978   2.298   2.069
  148OSM    C1416327   3.099   2.574   1.913
  148OSM   H14A16328   3.163   2.655   1.945
  148OSM   H14B16329   3.006   2.620   1.883
  148OSM   H14C16330   3.146   2.524   1.830
  148OSM    C1316331   2.998   2.554   2.132
  148OSM   H13A16332   3.045   2.649   2.152
  148OSM   H13B16333   2.997   2.502   2.226
  148OSM   H13C16334   2.897   2.575   2.099
  148OSM    C1216335   3.214   2.438   2.082
  148OSM   H12A16336   3.267   2.383   2.006
  148OSM   H12B16337   3.200   2.370   2.165
  148OSM    C1116338   3.309   2.549   2.135
  148OSM   H11A16339   3.318   2.633   2.063
  148OSM   H11B16340   3.410   2.504   2.147
  148OSM      P16341   3.229   2.738   2.305
  148OSM    O1316342   3.350   2.807   2.353
  148OSM    O1416343   3.152   2.802   2.196
  148OSM    O1116344   3.129   2.706   2.424
  148OSM    O1216345   3.264   2.590   2.263
  148OSM    C1S16346   3.140   2.582   2.498
  148OSM    H1S16347   3.241   2.537   2.492
  148OSM    H1T16348   3.068   2.509   2.454
  148OSM     NF16349   3.223   2.655   2.715
  148OSM    HNF16350   3.284   2.595   2.766
  148OSM    C2S16351   3.109   2.597   2.650
  148OSM    H2S16352   3.022   2.664   2.664
  148OSM    C3S16353   3.073   2.457   2.707
  148OSM    H3S16354   3.137   2.380   2.659
  148OSM     O316355   2.936   2.427   2.679
  148OSM    HO316356   2.904   2.501   2.628
  148OSM    C4S16357   3.093   2.452   2.858
  148OSM    H4S16358   3.009   2.495   2.915
  148OSM    C5S16359   3.201   2.401   2.923
  148OSM    H5S16360   3.282   2.356   2.864
  148OSM    C6S16361   3.223   2.397   3.073
  148OSM    H6S16362   3.318   2.449   3.097
  148OSM    H6T16363   3.235   2.292   3.107
  148OSM    C7S16364   3.112   2.462   3.156
  148OSM    H7S16365   3.017   2.406   3.140
  148OSM    H7T16366   3.096   2.566   3.119
  148OSM    C8S16367   3.136   2.471   3.308
  148OSM    H8S16368   3.227   2.530   3.331
  148OSM    H8T16369   3.150   2.370   3.352
  148OSM    C9S16370   3.015   2.541   3.369
  148OSM    H9S16371   2.930   2.469   3.362
  148OSM    H9T16372   2.990   2.627   3.303
  148OSM   C10S16373   3.021   2.598   3.512
  148OSM   H10S16374   2.916   2.615   3.542
  148OSM   H10T16375   3.068   2.699   3.509
  148OSM   C11S16376   3.087   2.515   3.622
  148OSM   H11S16377   3.195   2.540   3.633
  148OSM   H11T16378   3.084   2.406   3.597
  148OSM   C12S16379   3.016   2.541   3.756
  148OSM   H12S16380   3.054   2.471   3.834
  148OSM   H12T16381   2.907   2.521   3.743
  148OSM   C13S16382   3.035   2.685   3.804
  148OSM   H13S16383   3.034   2.756   3.718
  148OSM   H13T16384   3.136   2.691   3.850
  148OSM   C14S16385   2.929   2.735   3.903
  148OSM   H14S16386   2.834   2.749   3.848
  148OSM   H14T16387   2.960   2.834   3.943
  148OSM   C15S16388   2.903   2.640   4.021
  148OSM   H15S16389   2.876   2.539   3.984
  148OSM   H15T16390   2.815   2.680   4.075
  148OSM   C16S16391   3.019   2.631   4.121
  148OSM   H16S16392   3.052   2.733   4.148
  148OSM   H16T16393   3.107   2.581   4.074
  148OSM   C17S16394   2.976   2.555   4.247
  148OSM   H17S16395   2.878   2.594   4.282
  148OSM   H17T16396   3.048   2.576   4.329
  148OSM   C18S16397   2.969   2.404   4.229
  148OSM   H18S16398   2.946   2.354   4.326
  148OSM   H18T16399   3.067   2.366   4.192
  148OSM   H18U16400   2.891   2.377   4.155
  148OSM    C1F16401   3.251   2.784   2.709
  148OSM     OF16402   3.171   2.868   2.671
  148OSM    C2F16403   3.388   2.817   2.754
  148OSM    H2F16404   3.422   2.901   2.689
  148OSM    H2G16405   3.456   2.731   2.736
  148OSM    C3F16406   3.389   2.857   2.903
  148OSM    H3F16407   3.326   2.947   2.915
  148OSM    H3G16408   3.494   2.883   2.931
  148OSM    C4F16409   3.346   2.752   3.007
  148OSM    H4F16410   3.428   2.677   3.018
  148OSM    H4G16411   3.255   2.698   2.975
  148OSM    C5F16412   3.316   2.819   3.142
  148OSM    H5F16413   3.206   2.823   3.153
  148OSM    H5G16414   3.351   2.925   3.140
  148OSM    C6F16415   3.378   2.751   3.264
  148OSM    H6F16416   3.488   2.769   3.269
  148OSM    H6G16417   3.367   2.641   3.253
  148OSM    C7F16418   3.310   2.801   3.393
  148OSM    H7F16419   3.201   2.786   3.377
  148OSM    H7G16420   3.326   2.910   3.405
  148OSM    C8F16421   3.349   2.728   3.523
  148OSM    H8F16422   3.354   2.619   3.501
  148OSM    H8G16423   3.263   2.741   3.592
  148OSM    C9F16424   3.476   2.772   3.592
  148OSM    H9F16425   3.568   2.754   3.535
  148OSM   C10F16426   3.485   2.832   3.713
  148OSM   H10F16427   3.586   2.857   3.751
  148OSM   C11F16428   3.373   2.870   3.807
  148OSM   H11F16429   3.275   2.866   3.755
  148OSM   H11G16430   3.383   2.976   3.839
  148OSM   C12F16431   3.359   2.784   3.934
  148OSM   H12F16432   3.361   2.676   3.906
  148OSM   H12G16433   3.259   2.805   3.978
  148OSM   C13F16434   3.461   2.812   4.046
  148OSM   H13F16435   3.466   2.922   4.061
  148OSM   H13G16436   3.562   2.776   4.016
  148OSM   C14F16437   3.418   2.749   4.180
  148OSM   H14F16438   3.314   2.780   4.202
  148OSM   H14G16439   3.483   2.786   4.261
  148OSM   C15F16440   3.425   2.595   4.177
  148OSM   H15F16441   3.533   2.568   4.182
  148OSM   H15G16442   3.383   2.558   4.082
  148OSM   C16F16443   3.349   2.526   4.291
  148OSM   H16F16444   3.243   2.561   4.288
  148OSM   H16G16445   3.392   2.560   4.387
  148OSM   C17F16446   3.349   2.372   4.281
  148OSM   H17F16447   3.454   2.336   4.274
  148OSM   H17G16448   3.298   2.342   4.187
  148OSM   C18F16449   3.284   2.300   4.400
  148OSM   H18F16450   3.286   2.190   4.385
  148OSM   H18G16451   3.179   2.332   4.413
  148OSM   H18H16452   3.339   2.323   4.494
  149OSM      N16453   4.642   2.460   2.004
  149OSM    C1516454   4.790   2.465   1.978
  149OSM   H15A16455   4.838   2.396   2.045
  149OSM   H15B16456   4.832   2.562   1.998
  149OSM   H15C16457   4.815   2.435   1.877
  149OSM    C1416458   4.624   2.500   2.147
  149OSM   H14A16459   4.667   2.597   2.168
  149OSM   H14B16460   4.676   2.429   2.210
  149OSM   H14C16461   4.519   2.501   2.175
  149OSM    C1316462   4.568   2.554   1.914
  149OSM   H13A16463   4.463   2.556   1.938
  149OSM   H13B16464   4.579   2.524   1.811
  149OSM   H13C16465   4.607   2.654   1.923
  149OSM    C1216466   4.591   2.318   1.986
  149OSM   H12A16467   4.561   2.303   1.883
  149OSM   H12B16468   4.501   2.306   2.045
  149OSM    C1116469   4.688   2.203   2.023
  149OSM   H11A16470   4.758   2.186   1.938
  149OSM   H11B16471   4.627   2.111   2.034
  149OSM      P16472   4.808   2.119   2.236
  149OSM    O1316473   4.837   2.003   2.149
  149OSM    O1416474   4.916   2.166   2.324
  149OSM    O1116475   4.671   2.098   2.316
  149OSM    O1216476   4.764   2.235   2.139
  149OSM    C1S16477   4.602   2.212   2.371
  149OSM    H1S16478   4.496   2.206   2.341
  149OSM    H1T16479   4.642   2.309   2.334
  149OSM     NF16480   4.739   2.240   2.571
  149OSM    HNF16481   4.801   2.162   2.583
  149OSM    C2S16482   4.604   2.218   2.527
  149OSM    H2S16483   4.541   2.303   2.561
  149OSM    C3S16484   4.537   2.088   2.574
  149OSM    H3S16485   4.542   2.010   2.495
  149OSM     O316486   4.397   2.109   2.592
  149OSM    HO316487   4.356   2.069   2.514
  149OSM    C4S16488   4.590   2.027   2.702
  149OSM    H4S16489   4.654   1.942   2.676
  149OSM    C5S16490   4.579   2.052   2.834
  149OSM    H5S16491   4.515   2.133   2.871
  149OSM    C6S16492   4.637   1.953   2.934
  149OSM    H6S16493   4.687   1.868   2.881
  149OSM    H6T16494   4.548   1.907   2.982
  149OSM    C7S16495   4.727   1.982   3.055
  149OSM    H7S16496   4.830   2.004   3.019
  149OSM    H7T16497   4.732   1.890   3.117
  149OSM    C8S16498   4.678   2.097   3.141
  149OSM    H8S16499   4.698   2.185   3.076
  149OSM    H8T16500   4.740   2.105   3.232
  149OSM    C9S16501   4.529   2.108   3.176
  149OSM    H9S16502   4.464   2.111   3.086
  149OSM    H9T16503   4.519   2.206   3.226
  149OSM   C10S16504   4.479   2.000   3.272
  149OSM   H10S16505   4.567   1.949   3.317
  149OSM   H10T16506   4.422   1.923   3.216
  149OSM   C11S16507   4.394   2.059   3.384
  149OSM   H11S16508   4.296   2.005   3.388
  149OSM   H11T16509   4.372   2.167   3.368
  149OSM   C12S16510   4.463   2.039   3.517
  149OSM   H12S16511   4.565   2.084   3.511
  149OSM   H12T16512   4.476   1.929   3.530
  149OSM   C13S16513   4.391   2.097   3.638
  149OSM   H13S16514   4.296   2.042   3.655
  149OSM   H13T16515   4.366   2.204   3.621
  149OSM   C14S16516   4.480   2.086   3.761
  149OSM   H14S16517   4.422   2.108   3.853
  149OSM   H14T16518   4.561   2.161   3.754
  149OSM   C15S16519   4.550   1.950   3.771
  149OSM   H15S16520   4.626   1.938   3.691
  149OSM   H15T16521   4.476   1.868   3.758
  149OSM   C16S16522   4.621   1.936   3.904
  149OSM   H16S16523   4.635   1.829   3.931
  149OSM   H16T16524   4.560   1.982   3.985
  149OSM   C17S16525   4.756   2.004   3.894
  149OSM   H17S16526   4.745   2.108   3.856
  149OSM   H17T16527   4.819   1.950   3.821
  149OSM   C18S16528   4.822   2.007   4.029
  149OSM   H18S16529   4.859   1.904   4.050
  149OSM   H18T16530   4.750   2.034   4.109
  149OSM   H18U16531   4.906   2.079   4.030
  149OSM    C1F16532   4.782   2.366   2.576
  149OSM     OF16533   4.732   2.453   2.505
  149OSM    C2F16534   4.883   2.397   2.681
  149OSM    H2F16535   4.953   2.473   2.642
  149OSM    H2G16536   4.939   2.306   2.708
  149OSM    C3F16537   4.808   2.453   2.805
  149OSM    H3F16538   4.755   2.546   2.777
  149OSM    H3G16539   4.885   2.479   2.881
  149OSM    C4F16540   4.704   2.358   2.867
  149OSM    H4F16541   4.757   2.265   2.897
  149OSM    H4G16542   4.628   2.330   2.791
  149OSM    C5F16543   4.624   2.418   2.984
  149OSM    H5F16544   4.559   2.339   3.029
  149OSM    H5G16545   4.554   2.494   2.943
  149OSM    C6F16546   4.709   2.485   3.092
  149OSM    H6F16547   4.639   2.538   3.160
  149OSM    H6G16548   4.775   2.560   3.045
  149OSM    C7F16549   4.796   2.387   3.171
  149OSM    H7F16550   4.849   2.321   3.100
  149OSM    H7G16551   4.726   2.327   3.234
  149OSM    C8F16552   4.900   2.450   3.264
  149OSM    H8F16553   4.846   2.520   3.331
  149OSM    H8G16554   4.972   2.509   3.203
  149OSM    C9F16555   4.970   2.344   3.345
  149OSM    H9F16556   5.070   2.318   3.309
  149OSM   C10F16557   4.922   2.280   3.454
  149OSM   H10F16558   4.987   2.205   3.501
  149OSM   C11F16559   4.788   2.297   3.524
  149OSM   H11F16560   4.745   2.196   3.541
  149OSM   H11G16561   4.717   2.348   3.456
  149OSM   C12F16562   4.789   2.369   3.661
  149OSM   H12F16563   4.850   2.461   3.655
  149OSM   H12G16564   4.835   2.301   3.737
  149OSM   C13F16565   4.650   2.406   3.717
  149OSM   H13F16566   4.575   2.343   3.664
  149OSM   H13G16567   4.625   2.511   3.691
  149OSM   C14F16568   4.631   2.391   3.869
  149OSM   H14F16569   4.670   2.293   3.904
  149OSM   H14G16570   4.522   2.392   3.888
  149OSM   C15F16571   4.694   2.503   3.953
  149OSM   H15F16572   4.658   2.600   3.911
  149OSM   H15G16573   4.804   2.502   3.945
  149OSM   C16F16574   4.649   2.501   4.100
  149OSM   H16F16575   4.554   2.442   4.109
  149OSM   H16G16576   4.625   2.605   4.131
  149OSM   C17F16577   4.753   2.446   4.199
  149OSM   H17F16578   4.712   2.457   4.302
  149OSM   H17G16579   4.844   2.509   4.193
  149OSM   C18F16580   4.788   2.300   4.175
  149OSM   H18F16581   4.855   2.260   4.254
  149OSM   H18G16582   4.840   2.288   4.077
  149OSM   H18H16583   4.696   2.239   4.171
  150OSM      N16584   2.158   4.272   2.181
  150OSM    C1516585   2.177   4.221   2.041
  150OSM   H15A16586   2.218   4.121   2.043
  150OSM   H15B16587   2.244   4.284   1.986
  150OSM   H15C16588   2.081   4.219   1.991
  150OSM    C1416589   2.064   4.180   2.252
  150OSM   H14A16590   2.103   4.079   2.256
  150OSM   H14B16591   1.969   4.178   2.201
  150OSM   H14C16592   2.044   4.212   2.353
  150OSM    C1316593   2.292   4.269   2.249
  150OSM   H13A16594   2.283   4.293   2.354
  150OSM   H13B16595   2.361   4.338   2.204
  150OSM   H13C16596   2.337   4.172   2.242
  150OSM    C1216597   2.101   4.413   2.179
  150OSM   H12A16598   2.180   4.482   2.154
  150OSM   H12B16599   2.069   4.436   2.279
  150OSM    C1116600   1.980   4.441   2.084
  150OSM   H11A16601   2.014   4.435   1.978
  150OSM   H11B16602   1.947   4.546   2.102
  150OSM      P16603   1.723   4.380   2.083
  150OSM    O1316604   1.709   4.499   1.996
  150OSM    O1416605   1.661   4.253   2.039
  150OSM    O1116606   1.671   4.419   2.227
  150OSM    O1216607   1.876   4.348   2.105
  150OSM    C1S16608   1.758   4.436   2.340
  150OSM    H1S16609   1.793   4.541   2.343
  150OSM    H1T16610   1.848   4.371   2.334
  150OSM     NF16611   1.684   4.265   2.507
  150OSM    HNF16612   1.597   4.219   2.495
  150OSM    C2S16613   1.686   4.407   2.476
  150OSM    H2S16614   1.746   4.458   2.555
  150OSM    C3S16615   1.542   4.468   2.476
  150OSM    H3S16616   1.471   4.391   2.437
  150OSM     O316617   1.529   4.580   2.388
  150OSM    HO316618   1.586   4.553   2.316
  150OSM    C4S16619   1.496   4.511   2.613
  150OSM    H4S16620   1.413   4.583   2.604
  150OSM    C5S16621   1.532   4.479   2.739
  150OSM    H5S16622   1.610   4.405   2.761
  150OSM    C6S16623   1.462   4.545   2.856
  150OSM    H6S16624   1.352   4.537   2.842
  150OSM    H6T16625   1.484   4.654   2.857
  150OSM    C7S16626   1.489   4.493   2.999
  150OSM    H7S16627   1.474   4.383   3.002
  150OSM    H7T16628   1.415   4.538   3.068
  150OSM    C8S16629   1.626   4.533   3.051
  150OSM    H8S16630   1.621   4.644   3.056
  150OSM    H8T16631   1.704   4.505   2.976
  150OSM    C9S16632   1.670   4.483   3.189
  150OSM    H9S16633   1.693   4.374   3.188
  150OSM    H9T16634   1.589   4.501   3.263
  150OSM   C10S16635   1.796   4.558   3.230
  150OSM   H10S16636   1.769   4.665   3.220
  150OSM   H10T16637   1.879   4.534   3.161
  150OSM   C11S16638   1.844   4.549   3.374
  150OSM   H11S16639   1.757   4.571   3.440
  150OSM   H11T16640   1.919   4.628   3.390
  150OSM   C12S16641   1.906   4.416   3.417
  150OSM   H12S16642   1.992   4.392   3.351
  150OSM   H12T16643   1.831   4.335   3.407
  150OSM   C13S16644   1.952   4.428   3.562
  150OSM   H13S16645   2.030   4.506   3.571
  150OSM   H13T16646   1.998   4.331   3.592
  150OSM   C14S16647   1.834   4.463   3.655
  150OSM   H14S16648   1.746   4.404   3.623
  150OSM   H14T16649   1.808   4.570   3.642
  150OSM   C15S16650   1.860   4.439   3.803
  150OSM   H15S16651   1.895   4.335   3.819
  150OSM   H15T16652   1.762   4.450   3.855
  150OSM   C16S16653   1.959   4.538   3.864
  150OSM   H16S16654   1.930   4.641   3.836
  150OSM   H16T16655   2.060   4.520   3.821
  150OSM   C17S16656   1.962   4.527   4.017
  150OSM   H17S16657   2.004   4.428   4.045
  150OSM   H17T16658   1.858   4.529   4.056
  150OSM   C18S16659   2.041   4.639   4.083
  150OSM   H18S16660   2.046   4.622   4.193
  150OSM   H18T16661   1.993   4.737   4.064
  150OSM   H18U16662   2.145   4.642   4.043
  150OSM    C1F16663   1.795   4.194   2.530
  150OSM     OF16664   1.907   4.244   2.521
  150OSM    C2F16665   1.776   4.049   2.562
  150OSM    H2F16666   1.802   3.988   2.473
  150OSM    H2G16667   1.669   4.030   2.586
  150OSM    C3F16668   1.864   4.005   2.682
  150OSM    H3F16669   1.971   4.007   2.651
  150OSM    H3G16670   1.839   3.900   2.706
  150OSM    C4F16671   1.847   4.091   2.809
  150OSM    H4F16672   1.891   4.192   2.792
  150OSM    H4G16673   1.905   4.043   2.891
  150OSM    C5F16674   1.701   4.106   2.853
  150OSM    H5F16675   1.657   4.005   2.854
  150OSM    H5G16676   1.643   4.166   2.778
  150OSM    C6F16677   1.683   4.170   2.992
  150OSM    H6F16678   1.707   4.279   2.987
  150OSM    H6G16679   1.756   4.123   3.061
  150OSM    C7F16680   1.542   4.145   3.045
  150OSM    H7F16681   1.530   4.037   3.023
  150OSM    H7G16682   1.463   4.192   2.982
  150OSM    C8F16683   1.520   4.166   3.196
  150OSM    H8F16684   1.515   4.275   3.217
  150OSM    H8G16685   1.611   4.128   3.248
  150OSM    C9F16686   1.394   4.100   3.251
  150OSM    H9F16687   1.307   4.108   3.185
  150OSM   C10F16688   1.381   4.035   3.368
  150OSM   H10F16689   1.283   3.993   3.394
  150OSM   C11F16690   1.488   4.013   3.472
  150OSM   H11F16691   1.587   4.049   3.435
  150OSM   H11G16692   1.498   3.904   3.490
  150OSM   C12F16693   1.464   4.081   3.608
  150OSM   H12F16694   1.366   4.049   3.648
  150OSM   H12G16695   1.462   4.191   3.595
  150OSM   C13F16696   1.572   4.046   3.712
  150OSM   H13F16697   1.570   3.937   3.730
  150OSM   H13G16698   1.545   4.095   3.808
  150OSM   C14F16699   1.714   4.089   3.674
  150OSM   H14F16700   1.716   4.198   3.651
  150OSM   H14G16701   1.747   4.036   3.582
  150OSM   C15F16702   1.813   4.060   3.787
  150OSM   H15F16703   1.799   3.956   3.824
  150OSM   H15G16704   1.790   4.127   3.873
  150OSM   C16F16705   1.960   4.072   3.749
  150OSM   H16F16706   1.973   4.162   3.686
  150OSM   H16G16707   1.993   3.984   3.689
  150OSM   C17F16708   2.048   4.087   3.874
  150OSM   H17F16709   2.003   4.165   3.939
  150OSM   H17G16710   2.146   4.127   3.842
  150OSM   C18F16711   2.071   3.958   3.952
  150OSM   H18F16712   1.974   3.909   3.977
  150OSM   H18G16713   2.123   3.980   4.047
  150OSM   H18H16714   2.133   3.887   3.894
  151OSM      N16715   1.391   3.933   2.037
  151OSM    C1516716   1.536   3.901   2.054
  151OSM   H15A16717   1.594   3.932   1.968
  151OSM   H15B16718   1.548   3.796   2.073
  151OSM   H15C16719   1.576   3.954   2.139
  151OSM    C1416720   1.375   4.080   2.017
  151OSM   H14A16721   1.420   4.115   1.925
  151OSM   H14B16722   1.418   4.136   2.099
  151OSM   H14C16723   1.270   4.107   2.018
  151OSM    C1316724   1.334   3.861   1.919
  151OSM   H13A16725   1.228   3.881   1.910
  151OSM   H13B16726   1.346   3.755   1.935
  151OSM   H13C16727   1.383   3.890   1.827
  151OSM    C1216728   1.315   3.888   2.161
  151OSM   H12A16729   1.227   3.950   2.173
  151OSM   H12B16730   1.375   3.907   2.248
  151OSM    C1116731   1.268   3.740   2.163
  151OSM   H11A16732   1.173   3.733   2.105
  151OSM   H11B16733   1.243   3.716   2.268
  151OSM      P16734   1.391   3.510   2.169
  151OSM    O1316735   1.260   3.446   2.191
  151OSM    O1416736   1.486   3.435   2.084
  151OSM    O1116737   1.454   3.552   2.307
  151OSM    O1216738   1.365   3.651   2.104
  151OSM    C1S16739   1.400   3.494   2.427
  151OSM    H1S16740   1.417   3.385   2.429
  151OSM    H1T16741   1.291   3.513   2.436
  151OSM     NF16742   1.456   3.466   2.665
  151OSM    HNF16743   1.382   3.485   2.730
  151OSM    C2S16744   1.468   3.556   2.552
  151OSM    H2S16745   1.576   3.568   2.530
  151OSM    C3S16746   1.406   3.695   2.581
  151OSM    H3S16747   1.295   3.686   2.583
  151OSM     O316748   1.437   3.793   2.481
  151OSM    HO316749   1.471   3.740   2.408
  151OSM    C4S16750   1.454   3.742   2.716
  151OSM    H4S16751   1.563   3.758   2.721
  151OSM    C5S16752   1.378   3.762   2.825
  151OSM    H5S16753   1.269   3.748   2.817
  151OSM    C6S16754   1.426   3.807   2.961
  151OSM    H6S16755   1.359   3.766   3.039
  151OSM    H6T16756   1.404   3.916   2.965
  151OSM    C7S16757   1.574   3.771   2.998
  151OSM    H7S16758   1.639   3.804   2.914
  151OSM    H7T16759   1.584   3.661   3.002
  151OSM    C8S16760   1.635   3.833   3.127
  151OSM    H8S16761   1.573   3.917   3.165
  151OSM    H8T16762   1.737   3.871   3.103
  151OSM    C9S16763   1.646   3.740   3.247
  151OSM    H9S16764   1.682   3.642   3.209
  151OSM    H9T16765   1.543   3.728   3.287
  151OSM   C10S16766   1.734   3.786   3.365
  151OSM   H10S16767   1.713   3.892   3.389
  151OSM   H10T16768   1.841   3.779   3.336
  151OSM   C11S16769   1.703   3.697   3.487
  151OSM   H11S16770   1.722   3.590   3.461
  151OSM   H11T16771   1.595   3.709   3.509
  151OSM   C12S16772   1.773   3.728   3.618
  151OSM   H12S16773   1.753   3.835   3.643
  151OSM   H12T16774   1.883   3.717   3.609
  151OSM   C13S16775   1.720   3.642   3.734
  151OSM   H13S16776   1.757   3.537   3.722
  151OSM   H13T16777   1.609   3.639   3.731
  151OSM   C14S16778   1.763   3.701   3.867
  151OSM   H14S16779   1.708   3.796   3.882
  151OSM   H14T16780   1.872   3.722   3.863
  151OSM   C15S16781   1.734   3.618   3.991
  151OSM   H15S16782   1.779   3.517   3.981
  151OSM   H15T16783   1.624   3.604   4.003
  151OSM   C16S16784   1.791   3.690   4.114
  151OSM   H16S16785   1.729   3.780   4.134
  151OSM   H16T16786   1.895   3.726   4.094
  151OSM   C17S16787   1.793   3.600   4.236
  151OSM   H17S16788   1.884   3.535   4.233
  151OSM   H17T16789   1.706   3.531   4.226
  151OSM   C18S16790   1.787   3.676   4.367
  151OSM   H18S16791   1.888   3.718   4.389
  151OSM   H18T16792   1.763   3.608   4.452
  151OSM   H18U16793   1.713   3.758   4.364
  151OSM    C1F16794   1.536   3.363   2.691
  151OSM     OF16795   1.606   3.311   2.607
  151OSM    C2F16796   1.522   3.319   2.834
  151OSM    H2F16797   1.420   3.273   2.829
  151OSM    H2G16798   1.515   3.413   2.893
  151OSM    C3F16799   1.613   3.222   2.916
  151OSM    H3F16800   1.717   3.251   2.894
  151OSM    H3G16801   1.601   3.115   2.885
  151OSM    C4F16802   1.589   3.235   3.071
  151OSM    H4F16803   1.553   3.339   3.086
  151OSM    H4G16804   1.691   3.237   3.114
  151OSM    C5F16805   1.511   3.128   3.158
  151OSM    H5F16806   1.562   3.129   3.257
  151OSM    H5G16807   1.534   3.030   3.111
  151OSM    C6F16808   1.355   3.124   3.196
  151OSM    H6F16809   1.349   3.018   3.227
  151OSM    H6G16810   1.288   3.122   3.107
  151OSM    C7F16811   1.294   3.191   3.327
  151OSM    H7F16812   1.387   3.219   3.381
  151OSM    H7G16813   1.255   3.107   3.388
  151OSM    C8F16814   1.189   3.314   3.356
  151OSM    H8F16815   1.249   3.394   3.405
  151OSM    H8G16816   1.133   3.274   3.443
  151OSM    C9F16817   1.080   3.388   3.278
  151OSM    H9F16818   1.014   3.319   3.223
  151OSM   C10F16819   1.052   3.520   3.260
  151OSM   H10F16820   0.970   3.545   3.191
  151OSM   C11F16821   1.120   3.645   3.312
  151OSM   H11F16822   1.168   3.700   3.227
  151OSM   H11G16823   1.203   3.620   3.381
  151OSM   C12F16824   1.027   3.748   3.379
  151OSM   H12F16825   0.921   3.714   3.377
  151OSM   H12G16826   1.028   3.843   3.321
  151OSM   C13F16827   1.064   3.778   3.524
  151OSM   H13F16828   0.989   3.848   3.567
  151OSM   H13G16829   1.162   3.831   3.526
  151OSM   C14F16830   1.072   3.653   3.613
  151OSM   H14F16831   1.170   3.603   3.596
  151OSM   H14G16832   0.992   3.582   3.581
  151OSM   C15F16833   1.054   3.683   3.762
  151OSM   H15F16834   1.067   3.590   3.822
  151OSM   H15G16835   0.949   3.718   3.777
  151OSM   C16F16836   1.148   3.792   3.813
  151OSM   H16F16837   1.106   3.836   3.906
  151OSM   H16G16838   1.155   3.874   3.738
  151OSM   C17F16839   1.291   3.745   3.842
  151OSM   H17F16840   1.362   3.825   3.811
  151OSM   H17G16841   1.314   3.655   3.781
  151OSM   C18F16842   1.311   3.717   3.990
  151OSM   H18F16843   1.240   3.640   4.026
  151OSM   H18G16844   1.293   3.810   4.048
  151OSM   H18H16845   1.415   3.683   4.010
  152OSM      N16846   3.334   6.115   1.992
  152OSM    C1516847   3.362   6.200   1.872
  152OSM   H15A16848   3.414   6.290   1.904
  152OSM   H15B16849   3.270   6.233   1.826
  152OSM   H15C16850   3.421   6.148   1.798
  152OSM    C1416851   3.257   6.198   2.090
  152OSM   H14A16852   3.174   6.249   2.044
  152OSM   H14B16853   3.322   6.275   2.130
  152OSM   H14C16854   3.221   6.141   2.174
  152OSM    C1316855   3.248   5.998   1.950
  152OSM   H13A16856   3.297   5.936   1.876
  152OSM   H13B16857   3.156   6.033   1.906
  152OSM   H13C16858   3.221   5.936   2.034
  152OSM    C1216859   3.463   6.069   2.058
  152OSM   H12A16860   3.512   5.998   1.993
  152OSM   H12B16861   3.438   6.016   2.149
  152OSM    C1116862   3.569   6.177   2.097
  152OSM   H11A16863   3.600   6.232   2.006
  152OSM   H11B16864   3.658   6.121   2.134
  152OSM      P16865   3.616   6.333   2.301
  152OSM    O1316866   3.756   6.327   2.251
  152OSM    O1416867   3.568   6.468   2.340
  152OSM    O1116868   3.597   6.234   2.424
  152OSM    O1216869   3.519   6.269   2.193
  152OSM    C1S16870   3.463   6.207   2.470
  152OSM    H1S16871   3.406   6.153   2.390
  152OSM    H1T16872   3.407   6.300   2.493
  152OSM     NF16873   3.446   6.190   2.719
  152OSM    HNF16874   3.528   6.194   2.776
  152OSM    C2S16875   3.456   6.114   2.596
  152OSM    H2S16876   3.363   6.054   2.588
  152OSM    C3S16877   3.576   6.016   2.602
  152OSM    H3S16878   3.670   6.073   2.618
  152OSM     O316879   3.593   5.943   2.480
  152OSM    HO316880   3.568   6.008   2.413
  152OSM    C4S16881   3.556   5.920   2.717
  152OSM    H4S16882   3.489   5.836   2.694
  152OSM    C5S16883   3.614   5.925   2.839
  152OSM    H5S16884   3.688   6.004   2.862
  152OSM    C6S16885   3.588   5.825   2.948
  152OSM    H6S16886   3.666   5.746   2.942
  152OSM    H6T16887   3.493   5.771   2.930
  152OSM    C7S16888   3.584   5.876   3.094
  152OSM    H7S16889   3.566   5.788   3.159
  152OSM    H7T16890   3.498   5.944   3.111
  152OSM    C8S16891   3.711   5.947   3.145
  152OSM    H8S16892   3.700   6.057   3.138
  152OSM    H8T16893   3.795   5.918   3.078
  152OSM    C9S16894   3.751   5.906   3.288
  152OSM    H9S16895   3.858   5.932   3.302
  152OSM    H9T16896   3.747   5.795   3.301
  152OSM   C10S16897   3.668   5.961   3.404
  152OSM   H10S16898   3.563   5.928   3.390
  152OSM   H10T16899   3.669   6.072   3.404
  152OSM   C11S16900   3.722   5.907   3.537
  152OSM   H11S16901   3.822   5.951   3.555
  152OSM   H11T16902   3.736   5.797   3.530
  152OSM   C12S16903   3.633   5.936   3.658
  152OSM   H12S16904   3.594   6.040   3.652
  152OSM   H12T16905   3.695   5.929   3.750
  152OSM   C13S16906   3.518   5.835   3.671
  152OSM   H13S16907   3.562   5.733   3.667
  152OSM   H13T16908   3.448   5.846   3.586
  152OSM   C14S16909   3.441   5.849   3.803
  152OSM   H14S16910   3.513   5.844   3.888
  152OSM   H14T16911   3.372   5.762   3.813
  152OSM   C15S16912   3.358   5.978   3.812
  152OSM   H15S16913   3.291   5.982   3.724
  152OSM   H15T16914   3.425   6.066   3.807
  152OSM   C16S16915   3.273   5.985   3.940
  152OSM   H16S16916   3.215   5.891   3.951
  152OSM   H16T16917   3.200   6.068   3.928
  152OSM   C17S16918   3.355   6.011   4.067
  152OSM   H17S16919   3.415   6.104   4.052
  152OSM   H17T16920   3.426   5.927   4.083
  152OSM   C18S16921   3.267   6.027   4.192
  152OSM   H18S16922   3.211   5.934   4.212
  152OSM   H18T16923   3.194   6.110   4.178
  152OSM   H18U16924   3.330   6.051   4.281
  152OSM    C1F16925   3.337   6.254   2.758
  152OSM     OF16926   3.238   6.261   2.686
  152OSM    C2F16927   3.343   6.316   2.894
  152OSM    H2F16928   3.362   6.425   2.880
  152OSM    H2G16929   3.431   6.276   2.949
  152OSM    C3F16930   3.215   6.296   2.979
  152OSM    H3F16931   3.132   6.350   2.928
  152OSM    H3G16932   3.229   6.345   3.077
  152OSM    C4F16933   3.172   6.151   3.003
  152OSM    H4F16934   3.149   6.105   2.904
  152OSM    H4G16935   3.079   6.148   3.063
  152OSM    C5F16936   3.279   6.063   3.071
  152OSM    H5F16937   3.380   6.089   3.033
  152OSM    H5G16938   3.259   5.958   3.041
  152OSM    C6F16939   3.277   6.066   3.225
  152OSM    H6F16940   3.321   5.971   3.262
  152OSM    H6G16941   3.172   6.070   3.260
  152OSM    C7F16942   3.360   6.179   3.289
  152OSM    H7F16943   3.324   6.278   3.252
  152OSM    H7G16944   3.465   6.169   3.256
  152OSM    C8F16945   3.355   6.179   3.443
  152OSM    H8F16946   3.427   6.256   3.478
  152OSM    H8G16947   3.392   6.082   3.480
  152OSM    C9F16948   3.215   6.205   3.494
  152OSM    H9F16949   3.144   6.124   3.473
  152OSM   C10F16950   3.172   6.313   3.561
  152OSM   H10F16951   3.067   6.317   3.594
  152OSM   C11F16952   3.255   6.433   3.601
  152OSM   H11F16953   3.189   6.516   3.634
  152OSM   H11G16954   3.313   6.471   3.515
  152OSM   C12F16955   3.353   6.400   3.716
  152OSM   H12F16956   3.408   6.492   3.744
  152OSM   H12G16957   3.429   6.328   3.679
  152OSM   C13F16958   3.288   6.338   3.841
  152OSM   H13F16959   3.369   6.290   3.898
  152OSM   H13G16960   3.218   6.256   3.814
  152OSM   C14F16961   3.217   6.439   3.933
  152OSM   H14F16962   3.107   6.429   3.917
  152OSM   H14G16963   3.245   6.542   3.906
  152OSM   C15F16964   3.249   6.413   4.081
  152OSM   H15F16965   3.269   6.305   4.096
  152OSM   H15G16966   3.159   6.438   4.142
  152OSM   C16F16967   3.367   6.493   4.139
  152OSM   H16F16968   3.395   6.450   4.237
  152OSM   H16G16969   3.331   6.596   4.164
  152OSM   C17F16970   3.493   6.507   4.051
  152OSM   H17F16971   3.552   6.593   4.088
  152OSM   H17G16972   3.464   6.532   3.947
  152OSM   C18F16973   3.584   6.385   4.049
  152OSM   H18F16974   3.630   6.373   4.150
  152OSM   H18G16975   3.665   6.399   3.975
  152OSM   H18H16976   3.529   6.292   4.025
  153OSM      N16977   2.007   5.815   2.205
  153OSM    C1516978   1.940   5.792   2.072
  153OSM   H15A16979   2.017   5.784   1.997
  153OSM   H15B16980   1.873   5.873   2.046
  153OSM   H15C16981   1.886   5.699   2.072
  153OSM    C1416982   2.078   5.947   2.197
  153OSM   H14A16983   2.012   6.027   2.167
  153OSM   H14B16984   2.157   5.940   2.124
  153OSM   H14C16985   2.125   5.973   2.290
  153OSM    C1316986   1.903   5.818   2.311
  153OSM   H13A16987   1.830   5.897   2.293
  153OSM   H13B16988   1.946   5.834   2.409
  153OSM   H13C16989   1.847   5.726   2.312
  153OSM    C1216990   2.107   5.703   2.231
  153OSM   H12A16991   2.060   5.628   2.294
  153OSM   H12B16992   2.191   5.744   2.285
  153OSM    C1116993   2.167   5.627   2.110
  153OSM   H11A16994   2.087   5.570   2.058
  153OSM   H11B16995   2.240   5.552   2.145
  153OSM      P16996   2.369   5.776   2.042
  153OSM    O1316997   2.466   5.664   2.053
  153OSM    O1416998   2.390   5.881   1.940
  153OSM    O1116999   2.351   5.845   2.185
  153OSM    O1217000   2.226   5.717   2.016
  153OSM    C1S17001   2.453   5.835   2.284
  153OSM    H1S17002   2.543   5.892   2.252
  153OSM    H1T17003   2.486   5.729   2.298
  153OSM     NF17004   2.303   5.811   2.485
  153OSM    HNF17005   2.225   5.863   2.520
  153OSM    C2S17006   2.408   5.890   2.423
  153OSM    H2S17007   2.497   5.885   2.491
  153OSM    C3S17008   2.365   6.040   2.412
  153OSM    H3S17009   2.279   6.048   2.343
  153OSM     O317010   2.468   6.124   2.362
  153OSM    HO317011   2.533   6.066   2.323
  153OSM    C4S17012   2.317   6.090   2.548
  153OSM    H4S17013   2.221   6.143   2.543
  153OSM    C5S17014   2.381   6.081   2.666
  153OSM    H5S17015   2.482   6.036   2.670
  153OSM    C6S17016   2.330   6.131   2.799
  153OSM    H6S17017   2.231   6.181   2.788
  153OSM    H6T17018   2.398   6.207   2.843
  153OSM    C7S17019   2.314   6.016   2.900
  153OSM    H7S17020   2.250   5.937   2.856
  153OSM    H7T17021   2.262   6.054   2.990
  153OSM    C8S17022   2.447   5.953   2.946
  153OSM    H8S17023   2.496   6.020   3.020
  153OSM    H8T17024   2.517   5.944   2.860
  153OSM    C9S17025   2.430   5.812   3.006
  153OSM    H9S17026   2.530   5.772   3.035
  153OSM    H9T17027   2.390   5.746   2.926
  153OSM   C10S17028   2.336   5.804   3.127
  153OSM   H10S17029   2.318   5.697   3.150
  153OSM   H10T17030   2.237   5.849   3.102
  153OSM   C11S17031   2.394   5.870   3.252
  153OSM   H11S17032   2.414   5.977   3.233
  153OSM   H11T17033   2.490   5.820   3.277
  153OSM   C12S17034   2.300   5.857   3.373
  153OSM   H12S17035   2.265   5.752   3.381
  153OSM   H12T17036   2.210   5.921   3.357
  153OSM   C13S17037   2.370   5.895   3.504
  153OSM   H13S17038   2.408   5.999   3.499
  153OSM   H13T17039   2.457   5.828   3.517
  153OSM   C14S17040   2.279   5.880   3.627
  153OSM   H14S17041   2.344   5.870   3.716
  153OSM   H14T17042   2.220   5.786   3.618
  153OSM   C15S17043   2.185   5.999   3.648
  153OSM   H15S17044   2.125   6.016   3.557
  153OSM   H15T17045   2.246   6.091   3.664
  153OSM   C16S17046   2.090   5.981   3.768
  153OSM   H16S17047   2.018   5.900   3.743
  153OSM   H16T17048   2.030   6.074   3.780
  153OSM   C17S17049   2.159   5.946   3.900
  153OSM   H17S17050   2.206   5.846   3.889
  153OSM   H17T17051   2.082   5.937   3.980
  153OSM   C18S17052   2.268   6.043   3.948
  153OSM   H18S17053   2.317   6.005   4.040
  153OSM   H18T17054   2.225   6.143   3.970
  153OSM   H18U17055   2.347   6.056   3.870
  153OSM    C1F17056   2.313   5.683   2.520
  153OSM     OF17057   2.411   5.615   2.492
  153OSM    C2F17058   2.196   5.629   2.596
  153OSM    H2F17059   2.137   5.561   2.531
  153OSM    H2G17060   2.130   5.715   2.624
  153OSM    C3F17061   2.236   5.556   2.725
  153OSM    H3F17062   2.318   5.610   2.777
  153OSM    H3G17063   2.275   5.455   2.700
  153OSM    C4F17064   2.118   5.544   2.821
  153OSM    H4F17065   2.036   5.488   2.772
  153OSM    H4G17066   2.079   5.646   2.846
  153OSM    C5F17067   2.155   5.474   2.952
  153OSM    H5F17068   2.222   5.537   3.013
  153OSM    H5G17069   2.213   5.383   2.925
  153OSM    C6F17070   2.031   5.434   3.034
  153OSM    H6F17071   2.063   5.360   3.111
  153OSM    H6G17072   1.957   5.384   2.969
  153OSM    C7F17073   1.966   5.553   3.106
  153OSM    H7F17074   1.931   5.626   3.030
  153OSM    H7G17075   2.045   5.603   3.166
  153OSM    C8F17076   1.847   5.514   3.197
  153OSM    H8F17077   1.766   5.474   3.133
  153OSM    H8G17078   1.809   5.608   3.242
  153OSM    C9F17079   1.880   5.416   3.306
  153OSM    H9F17080   1.850   5.312   3.286
  153OSM   C10F17081   1.943   5.444   3.422
  153OSM   H10F17082   1.959   5.364   3.495
  153OSM   C11F17083   1.992   5.581   3.464
  153OSM   H11F17084   2.011   5.645   3.375
  153OSM   H11G17085   2.089   5.572   3.517
  153OSM   C12F17086   1.892   5.656   3.553
  153OSM   H12F17087   1.793   5.659   3.502
  153OSM   H12G17088   1.926   5.761   3.563
  153OSM   C13F17089   1.873   5.597   3.694
  153OSM   H13F17090   1.831   5.494   3.687
  153OSM   H13G17091   1.797   5.660   3.745
  153OSM   C14F17092   2.000   5.596   3.780
  153OSM   H14F17093   2.063   5.684   3.754
  153OSM   H14G17094   2.060   5.505   3.757
  153OSM   C15F17095   1.964   5.603   3.928
  153OSM   H15F17096   1.896   5.518   3.953
  153OSM   H15G17097   1.908   5.697   3.943
  153OSM   C16F17098   2.082   5.602   4.027
  153OSM   H16F17099   2.045   5.641   4.124
  153OSM   H16G17100   2.162   5.672   3.993
  153OSM   C17F17101   2.142   5.463   4.052
  153OSM   H17F17102   2.201   5.433   3.963
  153OSM   H17G17103   2.059   5.390   4.064
  153OSM   C18F17104   2.230   5.460   4.177
  153OSM   H18F17105   2.312   5.534   4.169
  153OSM   H18G17106   2.275   5.359   4.191
  153OSM   H18H17107   2.169   5.484   4.267
  154OSM      N17108   1.129   4.640   2.101
  154OSM    C1517109   1.252   4.619   2.185
  154OSM   H15A17110   1.343   4.620   2.126
  154OSM   H15B17111   1.248   4.521   2.229
  154OSM   H15C17112   1.260   4.689   2.267
  154OSM    C1417113   1.010   4.627   2.192
  154OSM   H14A17114   1.010   4.526   2.230
  154OSM   H14B17115   0.918   4.642   2.139
  154OSM   H14C17116   1.014   4.696   2.275
  154OSM    C1317117   1.125   4.774   2.036
  154OSM   H13A17118   1.206   4.788   1.966
  154OSM   H13B17119   1.128   4.854   2.109
  154OSM   H13C17120   1.034   4.787   1.981
  154OSM    C1217121   1.119   4.531   1.996
  154OSM   H12A17122   1.182   4.557   1.912
  154OSM   H12B17123   1.017   4.528   1.960
  154OSM    C1117124   1.158   4.388   2.041
  154OSM   H11A17125   1.269   4.386   2.045
  154OSM   H11B17126   1.126   4.316   1.963
  154OSM      P17127   1.165   4.233   2.246
  154OSM    O1317128   1.114   4.107   2.189
  154OSM    O1417129   1.311   4.253   2.240
  154OSM    O1117130   1.121   4.253   2.395
  154OSM    O1217131   1.098   4.354   2.167
  154OSM    C1S17132   0.991   4.284   2.442
  154OSM    H1S17133   0.927   4.193   2.438
  154OSM    H1T17134   0.944   4.365   2.382
  154OSM     NF17135   0.875   4.350   2.654
  154OSM    HNF17136   0.848   4.445   2.671
  154OSM    C2S17137   1.003   4.330   2.591
  154OSM    H2S17138   1.056   4.248   2.644
  154OSM    C3S17139   1.085   4.460   2.605
  154OSM    H3S17140   1.023   4.544   2.568
  154OSM     O317141   1.205   4.466   2.530
  154OSM    HO317142   1.205   4.386   2.477
  154OSM    C4S17143   1.114   4.480   2.752
  154OSM    H4S17144   1.179   4.402   2.795
  154OSM    C5S17145   1.068   4.580   2.831
  154OSM    H5S17146   1.005   4.658   2.785
  154OSM    C6S17147   1.096   4.600   2.978
  154OSM    H6S17148   1.005   4.640   3.027
  154OSM    H6T17149   1.175   4.678   2.989
  154OSM    C7S17150   1.141   4.479   3.063
  154OSM    H7S17151   1.226   4.427   3.013
  154OSM    H7T17152   1.058   4.405   3.071
  154OSM    C8S17153   1.185   4.520   3.204
  154OSM    H8S17154   1.100   4.562   3.261
  154OSM    H8T17155   1.261   4.601   3.197
  154OSM    C9S17156   1.247   4.402   3.281
  154OSM    H9S17157   1.327   4.361   3.216
  154OSM    H9T17158   1.173   4.321   3.295
  154OSM   C10S17159   1.311   4.439   3.417
  154OSM   H10S17160   1.388   4.517   3.400
  154OSM   H10T17161   1.364   4.349   3.456
  154OSM   C11S17162   1.212   4.488   3.523
  154OSM   H11S17163   1.162   4.579   3.486
  154OSM   H11T17164   1.268   4.516   3.615
  154OSM   C12S17165   1.104   4.385   3.561
  154OSM   H12S17166   1.056   4.344   3.470
  154OSM   H12T17167   1.024   4.433   3.620
  154OSM   C13S17168   1.155   4.269   3.646
  154OSM   H13S17169   1.198   4.308   3.741
  154OSM   H13T17170   1.236   4.215   3.592
  154OSM   C14S17171   1.041   4.172   3.675
  154OSM   H14S17172   1.039   4.097   3.593
  154OSM   H14T17173   0.945   4.228   3.672
  154OSM   C15S17174   1.048   4.099   3.809
  154OSM   H15S17175   1.152   4.068   3.832
  154OSM   H15T17176   0.988   4.006   3.797
  154OSM   C16S17177   0.983   4.172   3.927
  154OSM   H16S17178   0.939   4.096   3.995
  154OSM   H16T17179   0.902   4.237   3.889
  154OSM   C17S17180   1.079   4.257   4.010
  154OSM   H17S17181   1.020   4.308   4.088
  154OSM   H17T17182   1.122   4.334   3.943
  154OSM   C18S17183   1.192   4.178   4.077
  154OSM   H18S17184   1.252   4.245   4.143
  154OSM   H18T17185   1.261   4.136   4.000
  154OSM   H18U17186   1.151   4.095   4.138
  154OSM    C1F17187   0.802   4.252   2.704
  154OSM     OF17188   0.821   4.135   2.674
  154OSM    C2F17189   0.695   4.297   2.796
  154OSM    H2F17190   0.599   4.272   2.747
  154OSM    H2G17191   0.697   4.408   2.809
  154OSM    C3F17192   0.704   4.230   2.935
  154OSM    H3F17193   0.730   4.122   2.925
  154OSM    H3G17194   0.603   4.233   2.980
  154OSM    C4F17195   0.800   4.297   3.032
  154OSM    H4F17196   0.788   4.407   3.024
  154OSM    H4G17197   0.904   4.271   3.006
  154OSM    C5F17198   0.769   4.255   3.177
  154OSM    H5F17199   0.782   4.145   3.184
  154OSM    H5G17200   0.662   4.276   3.200
  154OSM    C6F17201   0.856   4.322   3.283
  154OSM    H6F17202   0.961   4.291   3.265
  154OSM    H6G17203   0.828   4.284   3.384
  154OSM    C7F17204   0.852   4.476   3.287
  154OSM    H7F17205   0.886   4.516   3.189
  154OSM    H7G17206   0.925   4.511   3.364
  154OSM    C8F17207   0.716   4.540   3.320
  154OSM    H8F17208   0.643   4.508   3.242
  154OSM    H8G17209   0.725   4.650   3.308
  154OSM    C9F17210   0.667   4.503   3.458
  154OSM    H9F17211   0.615   4.406   3.464
  154OSM   C10F17212   0.684   4.575   3.570
  154OSM   H10F17213   0.643   4.536   3.664
  154OSM   C11F17214   0.756   4.707   3.581
  154OSM   H11F17215   0.704   4.774   3.653
  154OSM   H11G17216   0.761   4.760   3.483
  154OSM   C12F17217   0.898   4.692   3.634
  154OSM   H12F17218   0.952   4.787   3.619
  154OSM   H12G17219   0.951   4.615   3.575
  154OSM   C13F17220   0.898   4.659   3.784
  154OSM   H13F17221   0.839   4.567   3.803
  154OSM   H13G17222   0.851   4.742   3.839
  154OSM   C14F17223   1.040   4.637   3.836
  154OSM   H14F17224   1.102   4.727   3.812
  154OSM   H14G17225   1.086   4.551   3.782
  154OSM   C15F17226   1.046   4.609   3.986
  154OSM   H15F17227   0.984   4.519   4.008
  154OSM   H15G17228   1.003   4.693   4.043
  154OSM   C16F17229   1.192   4.583   4.025
  154OSM   H16F17230   1.252   4.675   4.007
  154OSM   H16G17231   1.234   4.506   3.957
  154OSM   C17F17232   1.213   4.538   4.169
  154OSM   H17F17233   1.148   4.450   4.191
  154OSM   H17G17234   1.183   4.619   4.239
  154OSM   C18F17235   1.360   4.499   4.191
  154OSM   H18F17236   1.392   4.428   4.112
  154OSM   H18G17237   1.374   4.450   4.289
  154OSM   H18H17238   1.425   4.589   4.184
  155OSM      N17239   2.178   1.346   1.948
  155OSM    C1517240   2.316   1.404   1.949
  155OSM   H15A17241   2.390   1.325   1.954
  155OSM   H15B17242   2.329   1.466   2.036
  155OSM   H15C17243   2.336   1.463   1.861
  155OSM    C1417244   2.078   1.457   1.937
  155OSM   H14A17245   2.082   1.514   2.028
  155OSM   H14B17246   1.977   1.419   1.929
  155OSM   H14C17247   2.100   1.523   1.855
  155OSM    C1317248   2.167   1.253   1.830
  155OSM   H13A17249   2.242   1.176   1.839
  155OSM   H13B17250   2.186   1.306   1.738
  155OSM   H13C17251   2.070   1.207   1.825
  155OSM    C1217252   2.158   1.269   2.078
  155OSM   H12A17253   2.223   1.183   2.078
  155OSM   H12B17254   2.056   1.234   2.085
  155OSM    C1117255   2.182   1.348   2.209
  155OSM   H11A17256   2.287   1.385   2.215
  155OSM   H11B17257   2.172   1.277   2.294
  155OSM      P17258   1.945   1.434   2.271
  155OSM    O1317259   1.855   1.536   2.211
  155OSM    O1417260   1.906   1.294   2.237
  155OSM    O1117261   1.955   1.453   2.427
  155OSM    O1217262   2.092   1.458   2.220
  155OSM    C1S17263   2.077   1.462   2.504
  155OSM    H1S17264   2.128   1.559   2.482
  155OSM    H1T17265   2.148   1.380   2.480
  155OSM     NF17266   2.167   1.477   2.748
  155OSM    HNF17267   2.204   1.400   2.800
  155OSM    C2S17268   2.049   1.452   2.659
  155OSM    H2S17269   1.973   1.529   2.681
  155OSM    C3S17270   1.986   1.309   2.683
  155OSM    H3S17271   2.068   1.236   2.691
  155OSM     O317272   1.899   1.257   2.581
  155OSM    HO317273   1.905   1.323   2.512
  155OSM    C4S17274   1.906   1.308   2.808
  155OSM    H4S17275   1.864   1.406   2.836
  155OSM    C5S17276   1.876   1.199   2.880
  155OSM    H5S17277   1.905   1.100   2.843
  155OSM    C6S17278   1.795   1.197   3.006
  155OSM    H6S17279   1.827   1.115   3.073
  155OSM    H6T17280   1.689   1.177   2.978
  155OSM    C7S17281   1.802   1.328   3.085
  155OSM    H7S17282   1.736   1.326   3.174
  155OSM    H7T17283   1.768   1.413   3.022
  155OSM    C8S17284   1.939   1.364   3.138
  155OSM    H8S17285   1.913   1.462   3.183
  155OSM    H8T17286   2.010   1.381   3.054
  155OSM    C9S17287   2.005   1.274   3.245
  155OSM    H9S17288   2.115   1.289   3.238
  155OSM    H9T17289   1.985   1.167   3.221
  155OSM   C10S17290   1.962   1.308   3.389
  155OSM   H10S17291   1.852   1.294   3.395
  155OSM   H10T17292   1.982   1.416   3.408
  155OSM   C11S17293   2.029   1.224   3.500
  155OSM   H11S17294   2.024   1.118   3.468
  155OSM   H11T17295   1.969   1.232   3.593
  155OSM   C12S17296   2.175   1.260   3.535
  155OSM   H12S17297   2.232   1.289   3.444
  155OSM   H12T17298   2.223   1.168   3.575
  155OSM   C13S17299   2.191   1.366   3.647
  155OSM   H13S17300   2.130   1.335   3.734
  155OSM   H13T17301   2.153   1.464   3.610
  155OSM   C14S17302   2.337   1.384   3.694
  155OSM   H14S17303   2.395   1.427   3.610
  155OSM   H14T17304   2.380   1.284   3.715
  155OSM   C15S17305   2.357   1.472   3.819
  155OSM   H15S17306   2.466   1.485   3.832
  155OSM   H15T17307   2.319   1.418   3.909
  155OSM   C16S17308   2.291   1.611   3.813
  155OSM   H16S17309   2.184   1.605   3.844
  155OSM   H16T17310   2.290   1.643   3.707
  155OSM   C17S17311   2.363   1.721   3.893
  155OSM   H17S17312   2.345   1.817   3.840
  155OSM   H17T17313   2.472   1.701   3.891
  155OSM   C18S17314   2.321   1.741   4.039
  155OSM   H18S17315   2.211   1.757   4.045
  155OSM   H18T17316   2.372   1.829   4.082
  155OSM   H18U17317   2.349   1.652   4.099
  155OSM    C1F17318   2.230   1.598   2.754
  155OSM     OF17319   2.195   1.683   2.674
  155OSM    C2F17320   2.348   1.629   2.851
  155OSM    H2F17321   2.399   1.717   2.807
  155OSM    H2G17322   2.414   1.540   2.845
  155OSM    C3F17323   2.323   1.669   3.004
  155OSM    H3F17324   2.334   1.573   3.059
  155OSM    H3G17325   2.216   1.694   2.993
  155OSM    C4F17326   2.395   1.785   3.091
  155OSM    H4F17327   2.456   1.843   3.019
  155OSM    H4G17328   2.474   1.736   3.152
  155OSM    C5F17329   2.330   1.897   3.190
  155OSM    H5F17330   2.282   1.978   3.132
  155OSM    H5G17331   2.422   1.944   3.231
  155OSM    C6F17332   2.239   1.880   3.320
  155OSM    H6F17333   2.291   1.839   3.409
  155OSM    H6G17334   2.162   1.808   3.286
  155OSM    C7F17335   2.125   1.975   3.371
  155OSM    H7F17336   2.080   2.030   3.286
  155OSM    H7G17337   2.161   2.051   3.443
  155OSM    C8F17338   2.006   1.905   3.446
  155OSM    H8F17339   1.960   1.830   3.379
  155OSM    H8G17340   1.929   1.983   3.460
  155OSM    C9F17341   2.036   1.847   3.583
  155OSM    H9F17342   2.101   1.910   3.645
  155OSM   C10F17343   1.992   1.730   3.633
  155OSM   H10F17344   2.022   1.703   3.736
  155OSM   C11F17345   1.904   1.626   3.567
  155OSM   H11F17346   1.952   1.526   3.579
  155OSM   H11G17347   1.895   1.644   3.458
  155OSM   C12F17348   1.762   1.613   3.624
  155OSM   H12F17349   1.706   1.539   3.564
  155OSM   H12G17350   1.710   1.711   3.611
  155OSM   C13F17351   1.754   1.569   3.772
  155OSM   H13F17352   1.648   1.575   3.805
  155OSM   H13G17353   1.812   1.639   3.835
  155OSM   C14F17354   1.801   1.425   3.795
  155OSM   H14F17355   1.908   1.414   3.766
  155OSM   H14G17356   1.742   1.359   3.728
  155OSM   C15F17357   1.780   1.378   3.939
  155OSM   H15F17358   1.797   1.268   3.945
  155OSM   H15G17359   1.674   1.399   3.966
  155OSM   C16F17360   1.866   1.447   4.046
  155OSM   H16F17361   1.844   1.397   4.143
  155OSM   H16G17362   1.836   1.554   4.055
  155OSM   C17F17363   2.016   1.438   4.022
  155OSM   H17F17364   2.039   1.491   3.926
  155OSM   H17G17365   2.045   1.332   4.009
  155OSM   C18F17366   2.098   1.500   4.134
  155OSM   H18F17367   2.071   1.607   4.148
  155OSM   H18G17368   2.207   1.493   4.111
  155OSM   H18H17369   2.081   1.447   4.230
  156OSM      N17370   5.730   6.573   2.145
  156OSM    C1517371   5.846   6.663   2.175
  156OSM   H15A17372   5.846   6.751   2.113
  156OSM   H15B17373   5.941   6.615   2.156
  156OSM   H15C17374   5.849   6.693   2.278
  156OSM    C1417375   5.599   6.640   2.171
  156OSM   H14A17376   5.522   6.565   2.165
  156OSM   H14B17377   5.577   6.713   2.094
  156OSM   H14C17378   5.596   6.686   2.268
  156OSM    C1317379   5.733   6.533   2.000
  156OSM   H13A17380   5.829   6.493   1.973
  156OSM   H13B17381   5.705   6.616   1.938
  156OSM   H13C17382   5.659   6.456   1.985
  156OSM    C1217383   5.740   6.446   2.227
  156OSM   H12A17384   5.718   6.470   2.330
  156OSM   H12B17385   5.843   6.414   2.225
  156OSM    C1117386   5.650   6.326   2.183
  156OSM   H11A17387   5.655   6.251   2.264
  156OSM   H11B17388   5.696   6.281   2.093
  156OSM      P17389   5.408   6.245   2.136
  156OSM    O1317390   5.284   6.295   2.073
  156OSM    O1417391   5.473   6.128   2.073
  156OSM    O1117392   5.379   6.210   2.288
  156OSM    O1217393   5.515   6.363   2.152
  156OSM    C1S17394   5.350   6.317   2.379
  156OSM    H1S17395   5.241   6.339   2.377
  156OSM    H1T17396   5.404   6.411   2.356
  156OSM     NF17397   5.371   6.394   2.613
  156OSM    HNF17398   5.453   6.433   2.654
  156OSM    C2S17399   5.390   6.280   2.525
  156OSM    H2S17400   5.324   6.198   2.558
  156OSM    C3S17401   5.537   6.229   2.531
  156OSM    H3S17402   5.604   6.305   2.486
  156OSM     O317403   5.557   6.107   2.460
  156OSM    HO317404   5.485   6.106   2.396
  156OSM    C4S17405   5.580   6.207   2.673
  156OSM    H4S17406   5.685   6.231   2.692
  156OSM    C5S17407   5.505   6.160   2.775
  156OSM    H5S17408   5.400   6.130   2.759
  156OSM    C6S17409   5.556   6.140   2.914
  156OSM    H6S17410   5.667   6.130   2.912
  156OSM    H6T17411   5.514   6.044   2.951
  156OSM    C7S17412   5.527   6.243   3.023
  156OSM    H7S17413   5.418   6.265   3.028
  156OSM    H7T17414   5.581   6.338   3.003
  156OSM    C8S17415   5.573   6.184   3.157
  156OSM    H8S17416   5.679   6.153   3.151
  156OSM    H8T17417   5.513   6.093   3.176
  156OSM    C9S17418   5.554   6.279   3.275
  156OSM    H9S17419   5.452   6.323   3.266
  156OSM    H9T17420   5.626   6.364   3.269
  156OSM   C10S17421   5.565   6.208   3.410
  156OSM   H10S17422   5.661   6.233   3.459
  156OSM   H10T17423   5.562   6.098   3.397
  156OSM   C11S17424   5.447   6.249   3.498
  156OSM   H11S17425   5.351   6.219   3.450
  156OSM   H11T17426   5.448   6.360   3.502
  156OSM   C12S17427   5.450   6.200   3.642
  156OSM   H12S17428   5.551   6.224   3.682
  156OSM   H12T17429   5.435   6.090   3.647
  156OSM   C13S17430   5.343   6.275   3.723
  156OSM   H13S17431   5.243   6.254   3.680
  156OSM   H13T17432   5.362   6.384   3.711
  156OSM   C14S17433   5.340   6.246   3.874
  156OSM   H14S17434   5.277   6.157   3.895
  156OSM   H14T17435   5.289   6.331   3.926
  156OSM   C15S17436   5.478   6.227   3.936
  156OSM   H15S17437   5.537   6.150   3.881
  156OSM   H15T17438   5.464   6.186   4.039
  156OSM   C16S17439   5.553   6.360   3.942
  156OSM   H16S17440   5.503   6.422   4.019
  156OSM   H16T17441   5.545   6.413   3.845
  156OSM   C17S17442   5.701   6.347   3.977
  156OSM   H17S17443   5.717   6.270   4.055
  156OSM   H17T17444   5.730   6.446   4.020
  156OSM   C18S17445   5.792   6.320   3.857
  156OSM   H18S17446   5.777   6.217   3.818
  156OSM   H18T17447   5.898   6.332   3.888
  156OSM   H18U17448   5.772   6.392   3.775
  156OSM    C1F17449   5.252   6.440   2.650
  156OSM     OF17450   5.149   6.402   2.597
  156OSM    C2F17451   5.256   6.539   2.761
  156OSM    H2F17452   5.267   6.641   2.719
  156OSM    H2G17453   5.344   6.518   2.826
  156OSM    C3F17454   5.129   6.532   2.847
  156OSM    H3F17455   5.118   6.432   2.894
  156OSM    H3G17456   5.042   6.548   2.780
  156OSM    C4F17457   5.126   6.641   2.954
  156OSM    H4F17458   5.023   6.654   2.992
  156OSM    H4G17459   5.157   6.738   2.909
  156OSM    C5F17460   5.214   6.608   3.074
  156OSM    H5F17461   5.319   6.591   3.040
  156OSM    H5G17462   5.179   6.515   3.123
  156OSM    C6F17463   5.212   6.723   3.173
  156OSM    H6F17464   5.115   6.727   3.227
  156OSM    H6G17465   5.222   6.818   3.116
  156OSM    C7F17466   5.328   6.714   3.272
  156OSM    H7F17467   5.332   6.812   3.324
  156OSM    H7G17468   5.423   6.701   3.216
  156OSM    C8F17469   5.311   6.606   3.378
  156OSM    H8F17470   5.305   6.506   3.330
  156OSM    H8G17471   5.215   6.623   3.431
  156OSM    C9F17472   5.430   6.614   3.471
  156OSM    H9F17473   5.527   6.597   3.423
  156OSM   C10F17474   5.425   6.639   3.602
  156OSM   H10F17475   5.518   6.640   3.660
  156OSM   C11F17476   5.298   6.664   3.681
  156OSM   H11F17477   5.224   6.584   3.661
  156OSM   H11G17478   5.253   6.761   3.650
  156OSM   C12F17479   5.325   6.669   3.832
  156OSM   H12F17480   5.369   6.573   3.867
  156OSM   H12G17481   5.228   6.682   3.884
  156OSM   C13F17482   5.416   6.786   3.871
  156OSM   H13F17483   5.379   6.879   3.823
  156OSM   H13G17484   5.519   6.768   3.833
  156OSM   C14F17485   5.424   6.808   4.022
  156OSM   H14F17486   5.322   6.822   4.065
  156OSM   H14G17487   5.480   6.903   4.038
  156OSM   C15F17488   5.496   6.694   4.094
  156OSM   H15F17489   5.587   6.667   4.037
  156OSM   H15G17490   5.429   6.605   4.097
  156OSM   C16F17491   5.537   6.728   4.238
  156OSM   H16F17492   5.596   6.643   4.277
  156OSM   H16G17493   5.447   6.739   4.301
  156OSM   C17F17494   5.617   6.858   4.253
  156OSM   H17F17495   5.658   6.890   4.155
  156OSM   H17G17496   5.706   6.837   4.317
  156OSM   C18F17497   5.532   6.968   4.317
  156OSM   H18F17498   5.448   6.996   4.249
  156OSM   H18G17499   5.593   7.059   4.337
  156OSM   H18H17500   5.489   6.934   4.413
  157OSM      N17501   5.127   0.479   2.050
  157OSM    C1517502   5.087   0.340   2.092
  157OSM   H15A17503   5.136   0.266   2.030
  157OSM   H15B17504   4.981   0.327   2.079
  157OSM   H15C17505   5.114   0.321   2.195
  157OSM    C1417506   5.274   0.497   2.068
  157OSM   H14A17507   5.301   0.594   2.030
  157OSM   H14B17508   5.329   0.419   2.017
  157OSM   H14C17509   5.299   0.498   2.173
  157OSM    C1317510   5.092   0.494   1.905
  157OSM   H13A17511   4.986   0.482   1.892
  157OSM   H13B17512   5.141   0.418   1.846
  157OSM   H13C17513   5.122   0.592   1.870
  157OSM    C1217514   5.051   0.581   2.134
  157OSM   H12A17515   5.085   0.572   2.236
  157OSM   H12B17516   4.947   0.554   2.129
  157OSM    C1117517   5.064   0.732   2.096
  157OSM   H11A17518   4.996   0.792   2.160
  157OSM   H11B17519   5.028   0.746   1.992
  157OSM      P17520   5.268   0.807   2.243
  157OSM    O1317521   5.309   0.677   2.300
  157OSM    O1417522   5.376   0.906   2.226
  157OSM    O1117523   5.155   0.873   2.332
  157OSM    O1217524   5.198   0.780   2.104
  157OSM    C1S17525   5.094   0.801   2.440
  157OSM    H1S17526   5.079   0.694   2.413
  157OSM    H1T17527   4.992   0.843   2.458
  157OSM     NF17528   5.108   0.734   2.678
  157OSM    HNF17529   5.091   0.776   2.767
  157OSM    C2S17530   5.173   0.813   2.574
  157OSM    H2S17531   5.275   0.772   2.560
  157OSM    C3S17532   5.184   0.964   2.611
  157OSM    H3S17533   5.083   1.010   2.603
  157OSM     O317534   5.270   1.039   2.525
  157OSM    HO317535   5.285   0.981   2.450
  157OSM    C4S17536   5.229   0.982   2.754
  157OSM    H4S17537   5.154   1.031   2.818
  157OSM    C5S17538   5.348   0.952   2.810
  157OSM    H5S17539   5.428   0.907   2.749
  157OSM    C6S17540   5.380   0.978   2.954
  157OSM    H6S17541   5.336   1.074   2.987
  157OSM    H6T17542   5.490   0.989   2.966
  157OSM    C7S17543   5.332   0.871   3.054
  157OSM    H7S17544   5.377   0.772   3.029
  157OSM    H7T17545   5.222   0.861   3.050
  157OSM    C8S17546   5.373   0.910   3.197
  157OSM    H8S17547   5.331   1.010   3.219
  157OSM    H8T17548   5.484   0.919   3.202
  157OSM    C9S17549   5.326   0.813   3.305
  157OSM    H9S17550   5.372   0.712   3.289
  157OSM    H9T17551   5.216   0.802   3.298
  157OSM   C10S17552   5.363   0.865   3.444
  157OSM   H10S17553   5.325   0.969   3.452
  157OSM   H10T17554   5.474   0.870   3.456
  157OSM   C11S17555   5.303   0.785   3.560
  157OSM   H11S17556   5.197   0.761   3.537
  157OSM   H11T17557   5.303   0.850   3.650
  157OSM   C12S17558   5.379   0.656   3.593
  157OSM   H12S17559   5.478   0.683   3.635
  157OSM   H12T17560   5.398   0.598   3.500
  157OSM   C13S17561   5.304   0.566   3.693
  157OSM   H13S17562   5.371   0.484   3.727
  157OSM   H13T17563   5.216   0.518   3.646
  157OSM   C14S17564   5.249   0.641   3.814
  157OSM   H14S17565   5.182   0.570   3.867
  157OSM   H14T17566   5.184   0.727   3.785
  157OSM   C15S17567   5.363   0.690   3.904
  157OSM   H15S17568   5.416   0.773   3.853
  157OSM   H15T17569   5.436   0.608   3.920
  157OSM   C16S17570   5.313   0.740   4.040
  157OSM   H16S17571   5.217   0.794   4.027
  157OSM   H16T17572   5.388   0.812   4.079
  157OSM   C17S17573   5.298   0.630   4.145
  157OSM   H17S17574   5.259   0.681   4.235
  157OSM   H17T17575   5.399   0.589   4.169
  157OSM   C18S17576   5.205   0.513   4.109
  157OSM   H18S17577   5.182   0.449   4.197
  157OSM   H18T17578   5.252   0.448   4.032
  157OSM   H18U17579   5.108   0.550   4.070
  157OSM    C1F17580   5.089   0.602   2.667
  157OSM     OF17581   5.139   0.538   2.575
  157OSM    C2F17582   5.002   0.536   2.769
  157OSM    H2F17583   5.041   0.434   2.788
  157OSM    H2G17584   4.901   0.527   2.723
  157OSM    C3F17585   4.987   0.611   2.903
  157OSM    H3F17586   4.968   0.720   2.889
  157OSM    H3G17587   5.081   0.599   2.961
  157OSM    C4F17588   4.869   0.555   2.984
  157OSM    H4F17589   4.874   0.444   2.981
  157OSM    H4G17590   4.773   0.585   2.936
  157OSM    C5F17591   4.871   0.599   3.130
  157OSM    H5F17592   4.966   0.560   3.174
  157OSM    H5G17593   4.788   0.549   3.185
  157OSM    C6F17594   4.864   0.750   3.157
  157OSM    H6F17595   4.760   0.787   3.141
  157OSM    H6G17596   4.932   0.805   3.088
  157OSM    C7F17597   4.909   0.779   3.301
  157OSM    H7F17598   5.012   0.737   3.310
  157OSM    H7G17599   4.841   0.723   3.369
  157OSM    C8F17600   4.910   0.925   3.348
  157OSM    H8F17601   4.804   0.955   3.357
  157OSM    H8G17602   4.957   0.989   3.271
  157OSM    C9F17603   4.984   0.937   3.480
  157OSM    H9F17604   5.092   0.951   3.469
  157OSM   C10F17605   4.933   0.932   3.605
  157OSM   H10F17606   5.001   0.940   3.691
  157OSM   C11F17607   4.788   0.913   3.643
  157OSM   H11F17608   4.727   0.910   3.550
  157OSM   H11G17609   4.752   1.000   3.702
  157OSM   C12F17610   4.753   0.784   3.721
  157OSM   H12F17611   4.791   0.695   3.666
  157OSM   H12G17612   4.643   0.776   3.725
  157OSM   C13F17613   4.806   0.780   3.865
  157OSM   H13F17614   4.788   0.877   3.916
  157OSM   H13G17615   4.916   0.765   3.860
  157OSM   C14F17616   4.740   0.668   3.947
  157OSM   H14F17617   4.714   0.585   3.878
  157OSM   H14G17618   4.646   0.704   3.992
  157OSM   C15F17619   4.833   0.611   4.055
  157OSM   H15F17620   4.933   0.658   4.044
  157OSM   H15G17621   4.845   0.502   4.039
  157OSM   C16F17622   4.786   0.632   4.198
  157OSM   H16F17623   4.695   0.571   4.218
  157OSM   H16G17624   4.758   0.739   4.213
  157OSM   C17F17625   4.896   0.595   4.298
  157OSM   H17F17626   4.985   0.657   4.276
  157OSM   H17G17627   4.926   0.489   4.281
  157OSM   C18F17628   4.854   0.614   4.444
  157OSM   H18F17629   4.859   0.516   4.497
  157OSM   H18G17630   4.751   0.653   4.451
  157OSM   H18H17631   4.922   0.685   4.496
  158OSM      N17632   1.714   6.565   2.052
  158OSM    C1517633   1.794   6.692   2.050
  158OSM   H15A17634   1.730   6.778   2.039
  158OSM   H15B17635   1.866   6.693   1.970
  158OSM   H15C17636   1.848   6.699   2.143
  158OSM    C1417637   1.626   6.570   2.173
  158OSM   H14A17638   1.557   6.654   2.170
  158OSM   H14B17639   1.688   6.586   2.260
  158OSM   H14C17640   1.571   6.478   2.188
  158OSM    C1317641   1.630   6.560   1.929
  158OSM   H13A17642   1.572   6.651   1.920
  158OSM   H13B17643   1.562   6.476   1.930
  158OSM   H13C17644   1.691   6.555   1.840
  158OSM    C1217645   1.808   6.445   2.063
  158OSM   H12A17646   1.887   6.457   1.990
  158OSM   H12B17647   1.754   6.355   2.038
  158OSM    C1117648   1.876   6.422   2.200
  158OSM   H11A17649   1.943   6.334   2.194
  158OSM   H11B17650   1.799   6.397   2.276
  158OSM      P17651   2.097   6.562   2.211
  158OSM    O1317652   2.175   6.466   2.289
  158OSM    O1417653   2.112   6.562   2.064
  158OSM    O1117654   2.122   6.707   2.272
  158OSM    O1217655   1.945   6.539   2.243
  158OSM    C1S17656   2.024   6.766   2.359
  158OSM    H1S17657   1.927   6.774   2.306
  158OSM    H1T17658   2.053   6.870   2.381
  158OSM     NF17659   1.894   6.754   2.570
  158OSM    HNF17660   1.915   6.804   2.653
  158OSM    C2S17661   2.005   6.693   2.497
  158OSM    H2S17662   1.978   6.586   2.480
  158OSM    C3S17663   2.139   6.696   2.577
  158OSM    H3S17664   2.176   6.801   2.578
  158OSM     O317665   2.242   6.613   2.524
  158OSM    HO317666   2.210   6.574   2.443
  158OSM    C4S17667   2.122   6.651   2.719
  158OSM    H4S17668   2.073   6.553   2.731
  158OSM    C5S17669   2.167   6.717   2.828
  158OSM    H5S17670   2.224   6.810   2.815
  158OSM    C6S17671   2.151   6.668   2.970
  158OSM    H6S17672   2.252   6.650   3.012
  158OSM    H6T17673   2.098   6.571   2.973
  158OSM    C7S17674   2.078   6.767   3.063
  158OSM    H7S17675   1.982   6.796   3.016
  158OSM    H7T17676   2.138   6.859   3.077
  158OSM    C8S17677   2.048   6.703   3.199
  158OSM    H8S17678   1.997   6.606   3.183
  158OSM    H8T17679   1.977   6.768   3.256
  158OSM    C9S17680   2.171   6.679   3.287
  158OSM    H9S17681   2.214   6.776   3.320
  158OSM    H9T17682   2.250   6.626   3.228
  158OSM   C10S17683   2.136   6.592   3.408
  158OSM   H10S17684   2.094   6.496   3.371
  158OSM   H10T17685   2.057   6.643   3.467
  158OSM   C11S17686   2.256   6.561   3.498
  158OSM   H11S17687   2.279   6.650   3.560
  158OSM   H11T17688   2.344   6.540   3.433
  158OSM   C12S17689   2.234   6.439   3.589
  158OSM   H12S17690   2.325   6.423   3.651
  158OSM   H12T17691   2.221   6.350   3.524
  158OSM   C13S17692   2.111   6.451   3.681
  158OSM   H13S17693   2.076   6.349   3.708
  158OSM   H13T17694   2.027   6.501   3.627
  158OSM   C14S17695   2.141   6.528   3.810
  158OSM   H14S17696   2.048   6.571   3.853
  158OSM   H14T17697   2.205   6.615   3.781
  158OSM   C15S17698   2.211   6.442   3.916
  158OSM   H15S17699   2.292   6.499   3.966
  158OSM   H15T17700   2.261   6.356   3.866
  158OSM   C16S17701   2.115   6.391   4.024
  158OSM   H16S17702   2.076   6.478   4.082
  158OSM   H16T17703   2.173   6.327   4.094
  158OSM   C17S17704   1.998   6.311   3.969
  158OSM   H17S17705   2.038   6.242   3.892
  158OSM   H17T17706   1.927   6.379   3.918
  158OSM   C18S17707   1.924   6.228   4.074
  158OSM   H18S17708   1.994   6.160   4.126
  158OSM   H18T17709   1.845   6.167   4.027
  158OSM   H18U17710   1.877   6.295   4.150
  158OSM    C1F17711   1.767   6.737   2.530
  158OSM     OF17712   1.739   6.693   2.420
  158OSM    C2F17713   1.659   6.772   2.625
  158OSM    H2F17714   1.590   6.844   2.576
  158OSM    H2G17715   1.700   6.819   2.717
  158OSM    C3F17716   1.581   6.643   2.660
  158OSM    H3F17717   1.537   6.600   2.567
  158OSM    H3G17718   1.496   6.669   2.727
  158OSM    C4F17719   1.664   6.534   2.730
  158OSM    H4F17720   1.742   6.495   2.661
  158OSM    H4G17721   1.597   6.449   2.755
  158OSM    C5F17722   1.732   6.582   2.859
  158OSM    H5F17723   1.805   6.662   2.835
  158OSM    H5G17724   1.789   6.498   2.904
  158OSM    C6F17725   1.633   6.635   2.963
  158OSM    H6F17726   1.564   6.554   2.994
  158OSM    H6G17727   1.571   6.717   2.921
  158OSM    C7F17728   1.706   6.692   3.085
  158OSM    H7F17729   1.768   6.777   3.049
  158OSM    H7G17730   1.776   6.615   3.126
  158OSM    C8F17731   1.612   6.743   3.195
  158OSM    H8F17732   1.536   6.809   3.150
  158OSM    H8G17733   1.672   6.808   3.262
  158OSM    C9F17734   1.548   6.631   3.272
  158OSM    H9F17735   1.454   6.593   3.229
  158OSM   C10F17736   1.595   6.573   3.384
  158OSM   H10F17737   1.536   6.495   3.433
  158OSM   C11F17738   1.724   6.608   3.455
  158OSM   H11F17739   1.769   6.701   3.415
  158OSM   H11G17740   1.799   6.528   3.435
  158OSM   C12F17741   1.712   6.622   3.608
  158OSM   H12F17742   1.807   6.665   3.646
  158OSM   H12G17743   1.703   6.520   3.653
  158OSM   C13F17744   1.595   6.706   3.662
  158OSM   H13F17745   1.500   6.650   3.647
  158OSM   H13G17746   1.587   6.802   3.605
  158OSM   C14F17747   1.615   6.736   3.811
  158OSM   H14F17748   1.675   6.829   3.821
  158OSM   H14G17749   1.676   6.655   3.857
  158OSM   C15F17750   1.487   6.752   3.894
  158OSM   H15F17751   1.441   6.652   3.907
  158OSM   H15G17752   1.414   6.815   3.838
  158OSM   C16F17753   1.511   6.816   4.032
  158OSM   H16F17754   1.415   6.816   4.089
  158OSM   H16G17755   1.540   6.922   4.017
  158OSM   C17F17756   1.619   6.746   4.115
  158OSM   H17F17757   1.715   6.747   4.059
  158OSM   H17G17758   1.591   6.640   4.130
  158OSM   C18F17759   1.644   6.812   4.251
  158OSM   H18F17760   1.553   6.805   4.315
  158OSM   H18G17761   1.669   6.920   4.238
  158OSM   H18H17762   1.728   6.763   4.304
  159OSM      N17763   3.667   0.310   1.965
  159OSM    C1517764   3.588   0.338   1.841
  159OSM   H15A17765   3.649   0.389   1.768
  159OSM   H15B17766   3.504   0.402   1.865
  159OSM   H15C17767   3.549   0.247   1.797
  159OSM    C1417768   3.715   0.439   2.024
  159OSM   H14A17769   3.634   0.508   2.045
  159OSM   H14B17770   3.784   0.489   1.958
  159OSM   H14C17771   3.766   0.421   2.117
  159OSM    C1317772   3.576   0.248   2.067
  159OSM   H13A17773   3.533   0.155   2.033
  159OSM   H13B17774   3.495   0.315   2.092
  159OSM   H13C17775   3.634   0.229   2.157
  159OSM    C1217776   3.786   0.220   1.933
  159OSM   H12A17777   3.837   0.261   1.847
  159OSM   H12B17778   3.749   0.123   1.905
  159OSM    C1117779   3.892   0.200   2.044
  159OSM   H11A17780   3.938   0.298   2.069
  159OSM   H11B17781   3.972   0.134   2.005
  159OSM      P17782   3.918   0.122   2.289
  159OSM    O1317783   4.016   0.015   2.265
  159OSM    O1417784   3.967   0.253   2.337
  159OSM    O1117785   3.802   0.071   2.383
  159OSM    O1217786   3.831   0.141   2.158
  159OSM    C1S17787   3.704   0.162   2.437
  159OSM    H1S17788   3.604   0.135   2.397
  159OSM    H1T17789   3.721   0.269   2.410
  159OSM     NF17790   3.784   0.253   2.650
  159OSM    HNF17791   3.882   0.238   2.644
  159OSM    C2S17792   3.698   0.151   2.592
  159OSM    H2S17793   3.593   0.168   2.623
  159OSM    C3S17794   3.736   0.008   2.636
  159OSM    H3S17795   3.842  -0.011   2.607
  159OSM     O317796   3.657  -0.093   2.572
  159OSM    HO317797   3.619  -0.043   2.499
  159OSM    C4S17798   3.728   0.001   2.786
  159OSM    H4S17799   3.642   0.055   2.829
  159OSM    C5S17800   3.815  -0.062   2.868
  159OSM    H5S17801   3.897  -0.119   2.823
  159OSM    C6S17802   3.810  -0.070   3.019
  159OSM    H6S17803   3.908  -0.042   3.062
  159OSM    H6T17804   3.793  -0.176   3.046
  159OSM    C7S17805   3.703   0.013   3.093
  159OSM    H7S17806   3.608   0.015   3.034
  159OSM    H7T17807   3.735   0.119   3.102
  159OSM    C8S17808   3.668  -0.047   3.230
  159OSM    H8S17809   3.666  -0.158   3.222
  159OSM    H8T17810   3.565  -0.016   3.257
  159OSM    C9S17811   3.764  -0.008   3.342
  159OSM    H9S17812   3.851   0.045   3.297
  159OSM    H9T17813   3.803  -0.099   3.392
  159OSM   C10S17814   3.699   0.082   3.447
  159OSM   H10S17815   3.779   0.119   3.515
  159OSM   H10T17816   3.628   0.024   3.511
  159OSM   C11S17817   3.625   0.202   3.386
  159OSM   H11S17818   3.515   0.184   3.381
  159OSM   H11T17819   3.661   0.218   3.282
  159OSM   C12S17820   3.654   0.331   3.460
  159OSM   H12S17821   3.619   0.417   3.400
  159OSM   H12T17822   3.764   0.340   3.474
  159OSM   C13S17823   3.590   0.339   3.598
  159OSM   H13S17824   3.614   0.250   3.660
  159OSM   H13T17825   3.480   0.342   3.581
  159OSM   C14S17826   3.635   0.467   3.668
  159OSM   H14S17827   3.543   0.524   3.694
  159OSM   H14T17828   3.692   0.531   3.598
  159OSM   C15S17829   3.719   0.443   3.794
  159OSM   H15S17830   3.811   0.388   3.767
  159OSM   H15T17831   3.662   0.380   3.866
  159OSM   C16S17832   3.757   0.575   3.862
  159OSM   H16S17833   3.832   0.626   3.797
  159OSM   H16T17834   3.806   0.555   3.960
  159OSM   C17S17835   3.640   0.672   3.878
  159OSM   H17S17836   3.556   0.616   3.924
  159OSM   H17T17837   3.607   0.706   3.777
  159OSM   C18S17838   3.672   0.796   3.959
  159OSM   H18S17839   3.579   0.850   3.986
  159OSM   H18T17840   3.737   0.865   3.901
  159OSM   H18U17841   3.726   0.769   4.053
  159OSM    C1F17842   3.735   0.375   2.669
  159OSM     OF17843   3.615   0.395   2.663
  159OSM    C2F17844   3.834   0.484   2.692
  159OSM    H2F17845   3.788   0.582   2.670
  159OSM    H2G17846   3.919   0.471   2.622
  159OSM    C3F17847   3.883   0.486   2.837
  159OSM    H3F17848   3.947   0.576   2.847
  159OSM    H3G17849   3.945   0.397   2.860
  159OSM    C4F17850   3.772   0.497   2.943
  159OSM    H4F17851   3.747   0.395   2.980
  159OSM    H4G17852   3.679   0.540   2.900
  159OSM    C5F17853   3.819   0.585   3.058
  159OSM    H5F17854   3.803   0.692   3.033
  159OSM    H5G17855   3.929   0.573   3.066
  159OSM    C6F17856   3.760   0.551   3.196
  159OSM    H6F17857   3.689   0.466   3.188
  159OSM    H6G17858   3.704   0.638   3.235
  159OSM    C7F17859   3.874   0.515   3.292
  159OSM    H7F17860   3.839   0.517   3.398
  159OSM    H7G17861   3.948   0.597   3.284
  159OSM    C8F17862   3.939   0.378   3.259
  159OSM    H8F17863   3.937   0.362   3.149
  159OSM    H8G17864   3.878   0.296   3.303
  159OSM    C9F17865   4.082   0.376   3.305
  159OSM    H9F17866   4.145   0.447   3.251
  159OSM   C10F17867   4.138   0.299   3.400
  159OSM   H10F17868   4.244   0.314   3.424
  159OSM   C11F17869   4.069   0.194   3.482
  159OSM   H11F17870   4.141   0.112   3.501
  159OSM   H11G17871   3.987   0.148   3.423
  159OSM   C12F17872   4.006   0.240   3.616
  159OSM   H12F17873   3.949   0.153   3.654
  159OSM   H12G17874   3.933   0.321   3.595
  159OSM   C13F17875   4.103   0.287   3.726
  159OSM   H13F17876   4.081   0.394   3.749
  159OSM   H13G17877   4.207   0.282   3.688
  159OSM   C14F17878   4.094   0.208   3.858
  159OSM   H14F17879   4.165   0.249   3.932
  159OSM   H14G17880   4.127   0.104   3.835
  159OSM   C15F17881   3.955   0.195   3.922
  159OSM   H15F17882   3.876   0.189   3.844
  159OSM   H15G17883   3.933   0.285   3.984
  159OSM   C16F17884   3.946   0.067   4.005
  159OSM   H16F17885   4.016   0.072   4.092
  159OSM   H16G17886   3.979  -0.018   3.942
  159OSM   C17F17887   3.805   0.036   4.054
  159OSM   H17F17888   3.801  -0.071   4.083
  159OSM   H17G17889   3.732   0.049   3.971
  159OSM   C18F17890   3.765   0.121   4.173
  159OSM   H18F17891   3.855   0.150   4.232
  159OSM   H18G17892   3.696   0.066   4.241
  159OSM   H18H17893   3.714   0.214   4.139
  160OSM      N17894   1.633   0.957   2.233
  160OSM    C1517895   1.747   0.949   2.330
  160OSM   H15A17896   1.783   0.848   2.345
  160OSM   H15B17897   1.721   0.992   2.426
  160OSM   H15C17898   1.830   1.008   2.295
  160OSM    C1417899   1.603   1.103   2.218
  160OSM   H14A17900   1.568   1.147   2.310
  160OSM   H14B17901   1.526   1.119   2.143
  160OSM   H14C17902   1.691   1.159   2.191
  160OSM    C1317903   1.674   0.901   2.101
  160OSM   H13A17904   1.760   0.952   2.060
  160OSM   H13B17905   1.591   0.910   2.031
  160OSM   H13C17906   1.695   0.795   2.107
  160OSM    C1217907   1.508   0.882   2.280
  160OSM   H12A17908   1.486   0.913   2.381
  160OSM   H12B17909   1.529   0.776   2.281
  160OSM    C1117910   1.378   0.896   2.196
  160OSM   H11A17911   1.349   1.004   2.192
  160OSM   H11B17912   1.295   0.846   2.250
  160OSM      P17913   1.367   0.693   2.030
  160OSM    O1317914   1.226   0.657   2.055
  160OSM    O1417915   1.427   0.656   1.900
  160OSM    O1117916   1.455   0.626   2.143
  160OSM    O1217917   1.391   0.847   2.062
  160OSM    C1S17918   1.428   0.491   2.179
  160OSM    H1S17919   1.443   0.423   2.092
  160OSM    H1T17920   1.323   0.479   2.215
  160OSM     NF17921   1.485   0.516   2.415
  160OSM    HNF17922   1.549   0.584   2.452
  160OSM    C2S17923   1.524   0.449   2.292
  160OSM    H2S17924   1.516   0.339   2.308
  160OSM    C3S17925   1.671   0.481   2.249
  160OSM    H3S17926   1.678   0.586   2.213
  160OSM     O317927   1.726   0.401   2.145
  160OSM    HO317928   1.651   0.367   2.096
  160OSM    C4S17929   1.754   0.468   2.373
  160OSM    H4S17930   1.770   0.366   2.411
  160OSM    C5S17931   1.802   0.575   2.437
  160OSM    H5S17932   1.782   0.676   2.397
  160OSM    C6S17933   1.881   0.575   2.564
  160OSM    H6S17934   1.986   0.609   2.549
  160OSM    H6T17935   1.884   0.474   2.611
  160OSM    C7S17936   1.807   0.672   2.658
  160OSM    H7S17937   1.698   0.649   2.665
  160OSM    H7T17938   1.818   0.776   2.621
  160OSM    C8S17939   1.863   0.664   2.799
  160OSM    H8S17940   1.974   0.668   2.791
  160OSM    H8T17941   1.836   0.565   2.842
  160OSM    C9S17942   1.819   0.776   2.896
  160OSM    H9S17943   1.764   0.856   2.842
  160OSM    H9T17944   1.912   0.822   2.935
  160OSM   C10S17945   1.737   0.726   3.017
  160OSM   H10S17946   1.759   0.619   3.036
  160OSM   H10T17947   1.629   0.734   2.994
  160OSM   C11S17948   1.772   0.805   3.144
  160OSM   H11S17949   1.756   0.913   3.124
  160OSM   H11T17950   1.879   0.790   3.168
  160OSM   C12S17951   1.688   0.765   3.267
  160OSM   H12S17952   1.709   0.660   3.295
  160OSM   H12T17953   1.580   0.771   3.239
  160OSM   C13S17954   1.712   0.858   3.387
  160OSM   H13S17955   1.700   0.963   3.354
  160OSM   H13T17956   1.816   0.846   3.424
  160OSM   C14S17957   1.614   0.831   3.502
  160OSM   H14S17958   1.627   0.727   3.538
  160OSM   H14T17959   1.512   0.840   3.460
  160OSM   C15S17960   1.623   0.930   3.620
  160OSM   H15S17961   1.524   0.978   3.634
  160OSM   H15T17962   1.695   1.011   3.593
  160OSM   C16S17963   1.667   0.870   3.755
  160OSM   H16S17964   1.676   0.952   3.828
  160OSM   H16T17965   1.767   0.824   3.744
  160OSM   C17S17966   1.571   0.765   3.813
  160OSM   H17S17967   1.566   0.677   3.746
  160OSM   H17T17968   1.469   0.809   3.818
  160OSM   C18S17969   1.610   0.715   3.953
  160OSM   H18S17970   1.535   0.643   3.991
  160OSM   H18T17971   1.617   0.800   4.024
  160OSM   H18U17972   1.709   0.664   3.949
  160OSM    C1F17973   1.379   0.482   2.486
  160OSM     OF17974   1.313   0.383   2.457
  160OSM    C2F17975   1.346   0.569   2.603
  160OSM    H2F17976   1.238   0.596   2.600
  160OSM    H2G17977   1.407   0.662   2.600
  160OSM    C3F17978   1.375   0.492   2.733
  160OSM    H3F17979   1.481   0.457   2.734
  160OSM    H3G17980   1.310   0.402   2.736
  160OSM    C4F17981   1.352   0.575   2.860
  160OSM    H4F17982   1.245   0.602   2.867
  160OSM    H4G17983   1.411   0.669   2.854
  160OSM    C5F17984   1.394   0.499   2.986
  160OSM    H5F17985   1.370   0.562   3.074
  160OSM    H5G17986   1.504   0.484   2.985
  160OSM    C6F17987   1.326   0.361   3.000
  160OSM    H6F17988   1.361   0.295   2.919
  160OSM    H6G17989   1.216   0.373   2.990
  160OSM    C7F17990   1.358   0.294   3.134
  160OSM    H7F17991   1.467   0.303   3.151
  160OSM    H7G17992   1.333   0.186   3.128
  160OSM    C8F17993   1.278   0.356   3.250
  160OSM    H8F17994   1.182   0.301   3.258
  160OSM    H8G17995   1.251   0.460   3.222
  160OSM    C9F17996   1.354   0.352   3.380
  160OSM    H9F17997   1.386   0.251   3.411
  160OSM   C10F17998   1.383   0.457   3.459
  160OSM   H10F17999   1.438   0.439   3.552
  160OSM   C11F18000   1.343   0.601   3.437
  160OSM   H11F18001   1.252   0.608   3.374
  160OSM   H11G18002   1.423   0.656   3.382
  160OSM   C12F18003   1.313   0.674   3.570
  160OSM   H12F18004   1.407   0.714   3.613
  160OSM   H12G18005   1.273   0.602   3.644
  160OSM   C13F18006   1.212   0.789   3.558
  160OSM   H13F18007   1.119   0.754   3.509
  160OSM   H13G18008   1.256   0.865   3.490
  160OSM   C14F18009   1.174   0.852   3.693
  160OSM   H14F18010   1.100   0.933   3.675
  160OSM   H14G18011   1.265   0.899   3.737
  160OSM   C15F18012   1.114   0.753   3.794
  160OSM   H15F18013   1.190   0.677   3.821
  160OSM   H15G18014   1.029   0.701   3.744
  160OSM   C16F18015   1.059   0.815   3.924
  160OSM   H16F18016   1.027   0.734   3.994
  160OSM   H16G18017   0.969   0.874   3.898
  160OSM   C17F18018   1.157   0.907   3.997
  160OSM   H17F18019   1.105   0.959   4.080
  160OSM   H17G18020   1.188   0.985   3.924
  160OSM   C18F18021   1.281   0.837   4.054
  160OSM   H18F18022   1.295   0.736   4.008
  160OSM   H18G18023   1.271   0.825   4.164
  160OSM   H18H18024   1.374   0.895   4.035
  161OSM      N18025   6.421   5.992   2.155
  161OSM    C1518026   6.300   5.991   2.244
  161OSM   H15A18027   6.217   5.940   2.196
  161OSM   H15B18028   6.269   6.094   2.258
  161OSM   H15C18029   6.321   5.946   2.340
  161OSM    C1418030   6.529   6.065   2.228
  161OSM   H14A18031   6.622   6.065   2.173
  161OSM   H14B18032   6.548   6.023   2.325
  161OSM   H14C18033   6.499   6.168   2.244
  161OSM    C1318034   6.464   5.851   2.130
  161OSM   H13A18035   6.385   5.793   2.086
  161OSM   H13B18036   6.491   5.803   2.223
  161OSM   H13C18037   6.551   5.847   2.067
  161OSM    C1218038   6.386   6.064   2.027
  161OSM   H12A18039   6.292   6.026   1.990
  161OSM   H12B18040   6.460   6.045   1.951
  161OSM    C1118041   6.370   6.218   2.038
  161OSM   H11A18042   6.337   6.255   1.938
  161OSM   H11B18043   6.469   6.265   2.058
  161OSM      P18044   6.223   6.402   2.145
  161OSM    O1318045   6.312   6.481   2.057
  161OSM    O1418046   6.078   6.395   2.113
  161OSM    O1118047   6.241   6.440   2.298
  161OSM    O1218048   6.276   6.253   2.140
  161OSM    C1S18049   6.261   6.337   2.396
  161OSM    H1S18050   6.369   6.311   2.400
  161OSM    H1T18051   6.204   6.245   2.373
  161OSM     NF18052   6.243   6.269   2.629
  161OSM    HNF18053   6.165   6.214   2.658
  161OSM    C2S18054   6.217   6.380   2.539
  161OSM    H2S18055   6.278   6.467   2.570
  161OSM    C3S18056   6.067   6.422   2.540
  161OSM    H3S18057   6.007   6.340   2.496
  161OSM     O318058   6.036   6.539   2.466
  161OSM    HO318059   6.109   6.547   2.403
  161OSM    C4S18060   6.023   6.442   2.684
  161OSM    H4S18061   6.065   6.531   2.733
  161OSM    C5S18062   5.940   6.359   2.751
  161OSM    H5S18063   5.902   6.271   2.698
  161OSM    C6S18064   5.893   6.371   2.894
  161OSM    H6S18065   5.908   6.273   2.944
  161OSM    H6T18066   5.783   6.389   2.895
  161OSM    C7S18067   5.958   6.478   2.984
  161OSM    H7S18068   5.948   6.577   2.936
  161OSM    H7T18069   6.067   6.457   2.995
  161OSM    C8S18070   5.893   6.487   3.124
  161OSM    H8S18071   5.785   6.506   3.110
  161OSM    H8T18072   5.935   6.574   3.178
  161OSM    C9S18073   5.909   6.361   3.212
  161OSM    H9S18074   5.875   6.272   3.155
  161OSM    H9T18075   5.844   6.371   3.301
  161OSM   C10S18076   6.052   6.337   3.262
  161OSM   H10S18077   6.075   6.410   3.342
  161OSM   H10T18078   6.125   6.353   3.180
  161OSM   C11S18079   6.071   6.194   3.315
  161OSM   H11S18080   6.044   6.123   3.233
  161OSM   H11T18081   6.000   6.174   3.399
  161OSM   C12S18082   6.215   6.166   3.357
  161OSM   H12S18083   6.278   6.194   3.270
  161OSM   H12T18084   6.229   6.057   3.374
  161OSM   C13S18085   6.263   6.241   3.482
  161OSM   H13S18086   6.251   6.351   3.468
  161OSM   H13T18087   6.372   6.222   3.497
  161OSM   C14S18088   6.187   6.195   3.606
  161OSM   H14S18089   6.203   6.086   3.619
  161OSM   H14T18090   6.078   6.212   3.591
  161OSM   C15S18091   6.226   6.266   3.736
  161OSM   H15S18092   6.204   6.374   3.727
  161OSM   H15T18093   6.335   6.254   3.755
  161OSM   C16S18094   6.145   6.207   3.853
  161OSM   H16S18095   6.185   6.106   3.877
  161OSM   H16T18096   6.041   6.193   3.818
  161OSM   C17S18097   6.146   6.294   3.978
  161OSM   H17S18098   6.070   6.258   4.051
  161OSM   H17T18099   6.116   6.397   3.949
  161OSM   C18S18100   6.280   6.296   4.048
  161OSM   H18S18101   6.298   6.201   4.102
  161OSM   H18T18102   6.284   6.379   4.122
  161OSM   H18U18103   6.363   6.309   3.974
  161OSM    C1F18104   6.364   6.238   2.673
  161OSM     OF18105   6.460   6.311   2.650
  161OSM    C2F18106   6.373   6.113   2.754
  161OSM    H2F18107   6.427   6.035   2.696
  161OSM    H2G18108   6.270   6.075   2.773
  161OSM    C3F18109   6.442   6.135   2.890
  161OSM    H3F18110   6.442   6.242   2.920
  161OSM    H3G18111   6.548   6.104   2.877
  161OSM    C4F18112   6.378   6.054   3.003
  161OSM    H4F18113   6.348   5.955   2.963
  161OSM    H4G18114   6.286   6.105   3.038
  161OSM    C5F18115   6.472   6.028   3.121
  161OSM    H5F18116   6.553   5.961   3.086
  161OSM    H5G18117   6.417   5.976   3.201
  161OSM    C6F18118   6.536   6.151   3.187
  161OSM    H6F18119   6.460   6.229   3.212
  161OSM    H6G18120   6.606   6.201   3.116
  161OSM    C7F18121   6.609   6.106   3.313
  161OSM    H7F18122   6.658   6.010   3.287
  161OSM    H7G18123   6.537   6.080   3.394
  161OSM    C8F18124   6.720   6.201   3.360
  161OSM    H8F18125   6.757   6.261   3.274
  161OSM    H8G18126   6.807   6.140   3.394
  161OSM    C9F18127   6.671   6.289   3.470
  161OSM    H9F18128   6.608   6.373   3.438
  161OSM   C10F18129   6.693   6.276   3.601
  161OSM   H10F18130   6.650   6.351   3.669
  161OSM   C11F18131   6.771   6.167   3.668
  161OSM   H11F18132   6.856   6.209   3.726
  161OSM   H11G18133   6.812   6.092   3.597
  161OSM   C12F18134   6.676   6.096   3.764
  161OSM   H12F18135   6.732   6.010   3.807
  161OSM   H12G18136   6.592   6.053   3.707
  161OSM   C13F18137   6.627   6.186   3.878
  161OSM   H13F18138   6.544   6.250   3.841
  161OSM   H13G18139   6.709   6.255   3.910
  161OSM   C14F18140   6.580   6.106   4.000
  161OSM   H14F18141   6.547   6.175   4.081
  161OSM   H14G18142   6.666   6.049   4.040
  161OSM   C15F18143   6.466   6.011   3.962
  161OSM   H15F18144   6.461   6.000   3.851
  161OSM   H15G18145   6.367   6.053   3.990
  161OSM   C16F18146   6.478   5.871   4.018
  161OSM   H16F18147   6.452   5.871   4.126
  161OSM   H16G18148   6.583   5.834   4.009
  161OSM   C17F18149   6.386   5.778   3.939
  161OSM   H17F18150   6.408   5.674   3.971
  161OSM   H17G18151   6.412   5.783   3.831
  161OSM   C18F18152   6.237   5.810   3.957
  161OSM   H18F18153   6.174   5.727   3.918
  161OSM   H18G18154   6.210   5.902   3.900
  161OSM   H18H18155   6.213   5.826   4.064
  162OSM      N18156   0.030   5.129   2.075
  162OSM    C1518157   0.148   5.039   2.090
  162OSM   H15A18158   0.175   4.992   1.996
  162OSM   H15B18159   0.131   4.961   2.162
  162OSM   H15C18160   0.233   5.096   2.124
  162OSM    C1418161  -0.091   5.057   2.024
  162OSM   H14A18162  -0.176   5.124   2.019
  162OSM   H14B18163  -0.121   4.977   2.090
  162OSM   H14C18164  -0.075   5.016   1.926
  162OSM    C1318165  -0.008   5.188   2.208
  162OSM   H13A18166   0.070   5.253   2.244
  162OSM   H13B18167  -0.029   5.113   2.282
  162OSM   H13C18168  -0.097   5.249   2.199
  162OSM    C1218169   0.072   5.238   1.978
  162OSM   H12A18170  -0.004   5.314   1.977
  162OSM   H12B18171   0.075   5.196   1.878
  162OSM    C1118172   0.208   5.308   2.005
  162OSM   H11A18173   0.230   5.380   1.922
  162OSM   H11B18174   0.292   5.235   2.002
  162OSM      P18175   0.120   5.504   2.148
  162OSM    O1318176   0.200   5.627   2.155
  162OSM    O1418177   0.006   5.501   2.053
  162OSM    O1118178   0.059   5.481   2.292
  162OSM    O1218179   0.210   5.375   2.131
  162OSM    C1S18180   0.141   5.447   2.404
  162OSM    H1S18181   0.239   5.500   2.401
  162OSM    H1T18182   0.161   5.338   2.406
  162OSM     NF18183   0.158   5.458   2.650
  162OSM    HNF18184   0.132   5.382   2.710
  162OSM    C2S18185   0.070   5.485   2.537
  162OSM    H2S18186   0.049   5.594   2.534
  162OSM    C3S18187  -0.065   5.410   2.551
  162OSM    H3S18188  -0.045   5.301   2.561
  162OSM     O318189  -0.149   5.423   2.437
  162OSM    HO318190  -0.089   5.455   2.368
  162OSM    C4S18191  -0.140   5.463   2.671
  162OSM    H4S18192  -0.224   5.529   2.644
  162OSM    C5S18193  -0.121   5.434   2.801
  162OSM    H5S18194  -0.044   5.360   2.829
  162OSM    C6S18195  -0.200   5.491   2.916
  162OSM    H6S18196  -0.296   5.436   2.931
  162OSM    H6T18197  -0.230   5.597   2.898
  162OSM    C7S18198  -0.121   5.483   3.047
  162OSM    H7S18199  -0.180   5.537   3.125
  162OSM    H7T18200  -0.023   5.535   3.039
  162OSM    C8S18201  -0.101   5.339   3.095
  162OSM    H8S18202  -0.024   5.286   3.034
  162OSM    H8T18203  -0.196   5.283   3.080
  162OSM    C9S18204  -0.067   5.331   3.243
  162OSM    H9S18205  -0.111   5.236   3.281
  162OSM    H9T18206  -0.118   5.412   3.299
  162OSM   C10S18207   0.083   5.335   3.272
  162OSM   H10S18208   0.107   5.436   3.310
  162OSM   H10T18209   0.141   5.321   3.178
  162OSM   C11S18210   0.126   5.228   3.372
  162OSM   H11S18211   0.132   5.132   3.316
  162OSM   H11T18212   0.051   5.216   3.453
  162OSM   C12S18213   0.263   5.247   3.435
  162OSM   H12S18214   0.329   5.311   3.372
  162OSM   H12T18215   0.306   5.145   3.439
  162OSM   C13S18216   0.259   5.298   3.580
  162OSM   H13S18217   0.197   5.228   3.640
  162OSM   H13T18218   0.209   5.397   3.582
  162OSM   C14S18219   0.399   5.309   3.646
  162OSM   H14S18220   0.382   5.329   3.754
  162OSM   H14T18221   0.457   5.392   3.602
  162OSM   C15S18222   0.472   5.177   3.622
  162OSM   H15S18223   0.500   5.169   3.515
  162OSM   H15T18224   0.389   5.103   3.634
  162OSM   C16S18225   0.586   5.125   3.709
  162OSM   H16S18226   0.684   5.160   3.668
  162OSM   H16T18227   0.592   5.015   3.701
  162OSM   C17S18228   0.576   5.160   3.855
  162OSM   H17S18229   0.509   5.087   3.906
  162OSM   H17T18230   0.532   5.260   3.870
  162OSM   C18S18231   0.716   5.160   3.914
  162OSM   H18S18232   0.755   5.056   3.923
  162OSM   H18T18233   0.713   5.210   4.013
  162OSM   H18U18234   0.785   5.218   3.850
  162OSM    C1F18235   0.267   5.530   2.674
  162OSM     OF18236   0.291   5.629   2.607
  162OSM    C2F18237   0.357   5.479   2.782
  162OSM    H2F18238   0.448   5.439   2.734
  162OSM    H2G18239   0.306   5.395   2.835
  162OSM    C3F18240   0.399   5.585   2.887
  162OSM    H3F18241   0.310   5.626   2.940
  162OSM    H3G18242   0.452   5.668   2.835
  162OSM    C4F18243   0.496   5.521   2.985
  162OSM    H4F18244   0.583   5.490   2.924
  162OSM    H4G18245   0.450   5.431   3.031
  162OSM    C5F18246   0.554   5.609   3.096
  162OSM    H5F18247   0.567   5.714   3.061
  162OSM    H5G18248   0.659   5.575   3.113
  162OSM    C6F18249   0.479   5.605   3.230
  162OSM    H6F18250   0.434   5.505   3.245
  162OSM    H6G18251   0.395   5.677   3.223
  162OSM    C7F18252   0.574   5.632   3.348
  162OSM    H7F18253   0.666   5.678   3.307
  162OSM    H7G18254   0.605   5.533   3.388
  162OSM    C8F18255   0.526   5.725   3.463
  162OSM    H8F18256   0.472   5.810   3.417
  162OSM    H8G18257   0.618   5.768   3.508
  162OSM    C9F18258   0.442   5.672   3.576
  162OSM    H9F18259   0.494   5.661   3.672
  162OSM   C10F18260   0.313   5.638   3.566
  162OSM   H10F18261   0.262   5.600   3.656
  162OSM   C11F18262   0.232   5.646   3.440
  162OSM   H11F18263   0.248   5.551   3.384
  162OSM   H11G18264   0.267   5.729   3.376
  162OSM   C12F18265   0.081   5.670   3.457
  162OSM   H12F18266   0.032   5.669   3.357
  162OSM   H12G18267   0.068   5.773   3.497
  162OSM   C13F18268   0.007   5.570   3.547
  162OSM   H13F18269   0.074   5.529   3.626
  162OSM   H13G18270  -0.030   5.484   3.488
  162OSM   C14F18271  -0.106   5.636   3.624
  162OSM   H14F18272  -0.175   5.558   3.662
  162OSM   H14G18273  -0.164   5.699   3.553
  162OSM   C15F18274  -0.055   5.723   3.740
  162OSM   H15F18275  -0.140   5.782   3.781
  162OSM   H15G18276   0.017   5.798   3.701
  162OSM   C16F18277   0.015   5.649   3.857
  162OSM   H16F18278   0.010   5.715   3.946
  162OSM   H16G18279   0.122   5.637   3.831
  162OSM   C17F18280  -0.039   5.510   3.897
  162OSM   H17F18281   0.024   5.474   3.981
  162OSM   H17G18282  -0.023   5.439   3.813
  162OSM   C18F18283  -0.185   5.504   3.941
  162OSM   H18F18284  -0.205   5.579   4.021
  162OSM   H18G18285  -0.209   5.403   3.982
  162OSM   H18H18286  -0.254   5.524   3.857
  163OSM      N18287   6.144   7.214   2.096
  163OSM    C1518288   6.191   7.237   1.955
  163OSM   H15A18289   6.264   7.316   1.951
  163OSM   H15B18290   6.109   7.259   1.888
  163OSM   H15C18291   6.240   7.148   1.919
  163OSM    C1418292   6.268   7.187   2.175
  163OSM   H14A18293   6.249   7.179   2.281
  163OSM   H14B18294   6.341   7.264   2.158
  163OSM   H14C18295   6.309   7.092   2.143
  163OSM    C1318296   6.079   7.336   2.151
  163OSM   H13A18297   6.147   7.421   2.147
  163OSM   H13B18298   6.054   7.324   2.255
  163OSM   H13C18299   5.988   7.362   2.099
  163OSM    C1218300   6.049   7.095   2.101
  163OSM   H12A18301   5.950   7.127   2.075
  163OSM   H12B18302   6.047   7.059   2.202
  163OSM    C1118303   6.084   6.974   2.010
  163OSM   H11A18304   6.078   7.004   1.904
  163OSM   H11B18305   6.005   6.896   2.023
  163OSM      P18306   6.230   6.823   2.160
  163OSM    O1318307   6.135   6.713   2.144
  163OSM    O1418308   6.375   6.803   2.184
  163OSM    O1118309   6.171   6.914   2.275
  163OSM    O1218310   6.214   6.923   2.038
  163OSM    C1S18311   6.237   6.919   2.401
  163OSM    H1S18312   6.339   6.961   2.390
  163OSM    H1T18313   6.245   6.819   2.448
  163OSM     NF18314   6.230   7.053   2.607
  163OSM    HNF18315   6.202   7.020   2.698
  163OSM    C2S18316   6.152   7.010   2.492
  163OSM    H2S18317   6.125   7.102   2.436
  163OSM    C3S18318   6.021   6.935   2.529
  163OSM    H3S18319   6.046   6.836   2.574
  163OSM     O318320   5.938   6.912   2.415
  163OSM    HO318321   6.002   6.898   2.345
  163OSM    C4S18322   5.950   7.021   2.626
  163OSM    H4S18323   5.897   7.107   2.583
  163OSM    C5S18324   5.948   7.001   2.759
  163OSM    H5S18325   6.000   6.916   2.805
  163OSM    C6S18326   5.876   7.095   2.849
  163OSM    H6S18327   5.808   7.042   2.918
  163OSM    H6T18328   5.819   7.171   2.791
  163OSM    C7S18329   5.974   7.178   2.931
  163OSM    H7S18330   6.053   7.224   2.868
  163OSM    H7T18331   6.024   7.112   3.005
  163OSM    C8S18332   5.900   7.289   3.004
  163OSM    H8S18333   5.801   7.253   3.038
  163OSM    H8T18334   5.878   7.374   2.935
  163OSM    C9S18335   5.980   7.332   3.125
  163OSM    H9S18336   5.956   7.437   3.154
  163OSM    H9T18337   6.089   7.327   3.105
  163OSM   C10S18338   5.940   7.243   3.240
  163OSM   H10S18339   5.952   7.136   3.215
  163OSM   H10T18340   5.832   7.261   3.260
  163OSM   C11S18341   6.016   7.276   3.365
  163OSM   H11S18342   6.018   7.386   3.381
  163OSM   H11T18343   6.121   7.243   3.352
  163OSM   C12S18344   5.948   7.209   3.483
  163OSM   H12S18345   5.955   7.099   3.471
  163OSM   H12T18346   5.841   7.236   3.485
  163OSM   C13S18347   6.014   7.250   3.614
  163OSM   H13S18348   5.977   7.180   3.692
  163OSM   H13T18349   5.985   7.353   3.642
  163OSM   C14S18350   6.165   7.244   3.603
  163OSM   H14S18351   6.206   7.326   3.540
  163OSM   H14T18352   6.192   7.147   3.555
  163OSM   C15S18353   6.227   7.251   3.741
  163OSM   H15S18354   6.152   7.206   3.809
  163OSM   H15T18355   6.240   7.358   3.770
  163OSM   C16S18356   6.356   7.170   3.746
  163OSM   H16S18357   6.439   7.227   3.699
  163OSM   H16T18358   6.341   7.079   3.685
  163OSM   C17S18359   6.397   7.123   3.886
  163OSM   H17S18360   6.479   7.186   3.925
  163OSM   H17T18361   6.435   7.020   3.870
  163OSM   C18S18362   6.288   7.111   3.992
  163OSM   H18S18363   6.252   7.211   4.022
  163OSM   H18T18364   6.328   7.058   4.082
  163OSM   H18U18365   6.202   7.052   3.954
  163OSM    C1F18366   6.334   7.135   2.599
  163OSM     OF18367   6.365   7.186   2.491
  163OSM    C2F18368   6.405   7.165   2.727
  163OSM    H2F18369   6.333   7.210   2.799
  163OSM    H2G18370   6.482   7.242   2.705
  163OSM    C3F18371   6.475   7.042   2.791
  163OSM    H3F18372   6.542   7.080   2.871
  163OSM    H3G18373   6.539   6.995   2.714
  163OSM    C4F18374   6.385   6.933   2.853
  163OSM    H4F18375   6.450   6.856   2.899
  163OSM    H4G18376   6.328   6.880   2.773
  163OSM    C5F18377   6.288   6.980   2.962
  163OSM    H5F18378   6.230   6.891   2.997
  163OSM    H5G18379   6.215   7.052   2.920
  163OSM    C6F18380   6.357   7.044   3.084
  163OSM    H6F18381   6.381   7.149   3.056
  163OSM    H6G18382   6.453   6.993   3.105
  163OSM    C7F18383   6.272   7.045   3.212
  163OSM    H7F18384   6.164   7.054   3.187
  163OSM    H7G18385   6.300   7.135   3.270
  163OSM    C8F18386   6.294   6.924   3.307
  163OSM    H8F18387   6.235   6.943   3.399
  163OSM    H8G18388   6.400   6.924   3.338
  163OSM    C9F18389   6.259   6.790   3.247
  163OSM    H9F18390   6.321   6.761   3.160
  163OSM   C10F18391   6.163   6.705   3.288
  163OSM   H10F18392   6.152   6.608   3.236
  163OSM   C11F18393   6.070   6.728   3.403
  163OSM   H11F18394   5.977   6.667   3.392
  163OSM   H11G18395   6.037   6.834   3.405
  163OSM   C12F18396   6.133   6.696   3.540
  163OSM   H12F18397   6.233   6.743   3.547
  163OSM   H12G18398   6.147   6.586   3.551
  163OSM   C13F18399   6.045   6.749   3.654
  163OSM   H13F18400   5.944   6.703   3.646
  163OSM   H13G18401   6.033   6.859   3.641
  163OSM   C14F18402   6.100   6.722   3.795
  163OSM   H14F18403   6.105   6.613   3.812
  163OSM   H14G18404   6.026   6.767   3.865
  163OSM   C15F18405   6.238   6.786   3.822
  163OSM   H15F18406   6.230   6.893   3.796
  163OSM   H15G18407   6.313   6.740   3.755
  163OSM   C16F18408   6.286   6.776   3.969
  163OSM   H16F18409   6.208   6.823   4.032
  163OSM   H16G18410   6.377   6.837   3.983
  163OSM   C17F18411   6.313   6.635   4.023
  163OSM   H17F18412   6.228   6.569   3.996
  163OSM   H17G18413   6.315   6.642   4.134
  163OSM   C18F18414   6.444   6.568   3.981
  163OSM   H18F18415   6.440   6.534   3.875
  163OSM   H18G18416   6.467   6.480   4.045
  163OSM   H18H18417   6.530   6.637   3.995
  164OSM      N18418   1.002   0.385   2.212
  164OSM    C1518419   0.970   0.501   2.122
  164OSM   H15A18420   0.923   0.464   2.032
  164OSM   H15B18421   1.059   0.555   2.094
  164OSM   H15C18422   0.902   0.570   2.170
  164OSM    C1418423   1.098   0.294   2.141
  164OSM   H14A18424   1.188   0.348   2.116
  164OSM   H14B18425   1.051   0.256   2.052
  164OSM   H14C18426   1.124   0.209   2.202
  164OSM    C1318427   1.068   0.437   2.335
  164OSM   H13A18428   1.149   0.503   2.309
  164OSM   H13B18429   1.113   0.358   2.394
  164OSM   H13C18430   0.998   0.491   2.398
  164OSM    C1218431   0.877   0.309   2.252
  164OSM   H12A18432   0.835   0.354   2.341
  164OSM   H12B18433   0.904   0.208   2.277
  164OSM    C1118434   0.761   0.298   2.151
  164OSM   H11A18435   0.718   0.400   2.138
  164OSM   H11B18436   0.680   0.237   2.194
  164OSM      P18437   0.832   0.092   2.011
  164OSM    O1318438   0.702   0.021   1.999
  164OSM    O1418439   0.932   0.069   1.905
  164OSM    O1118440   0.903   0.051   2.147
  164OSM    O1218441   0.806   0.247   2.025
  164OSM    C1S18442   0.851  -0.064   2.215
  164OSM    H1S18443   0.876  -0.156   2.159
  164OSM    H1T18444   0.741  -0.059   2.224
  164OSM     NF18445   0.893   0.046   2.438
  164OSM    HNF18446   0.977   0.075   2.484
  164OSM    C2S18447   0.899  -0.078   2.363
  164OSM    H2S18448   0.828  -0.149   2.411
  164OSM    C3S18449   1.040  -0.140   2.369
  164OSM    H3S18450   1.114  -0.074   2.319
  164OSM     O318451   1.046  -0.268   2.306
  164OSM    HO318452   0.957  -0.284   2.274
  164OSM    C4S18453   1.078  -0.155   2.514
  164OSM    H4S18454   1.176  -0.115   2.542
  164OSM    C5S18455   1.001  -0.215   2.608
  164OSM    H5S18456   0.905  -0.260   2.579
  164OSM    C6S18457   1.035  -0.230   2.752
  164OSM    H6S18458   1.120  -0.302   2.758
  164OSM    H6T18459   0.951  -0.278   2.806
  164OSM    C7S18460   1.077  -0.105   2.832
  164OSM    H7S18461   1.160  -0.050   2.783
  164OSM    H7T18462   1.115  -0.142   2.929
  164OSM    C8S18463   0.958  -0.012   2.860
  164OSM    H8S18464   0.867  -0.075   2.870
  164OSM    H8T18465   0.943   0.054   2.772
  164OSM    C9S18466   0.974   0.071   2.988
  164OSM    H9S18467   0.884   0.137   2.995
  164OSM    H9T18468   1.063   0.137   2.981
  164OSM   C10S18469   0.981  -0.013   3.117
  164OSM   H10S18470   1.086  -0.041   3.137
  164OSM   H10T18471   0.923  -0.107   3.103
  164OSM   C11S18472   0.922   0.062   3.237
  164OSM   H11S18473   0.814   0.079   3.221
  164OSM   H11T18474   0.971   0.161   3.246
  164OSM   C12S18475   0.941  -0.015   3.369
  164OSM   H12S18476   1.050  -0.022   3.388
  164OSM   H12T18477   0.901  -0.118   3.361
  164OSM   C13S18478   0.873   0.056   3.488
  164OSM   H13S18479   0.767   0.025   3.494
  164OSM   H13T18480   0.874   0.165   3.468
  164OSM   C14S18481   0.944   0.033   3.622
  164OSM   H14S18482   0.976   0.133   3.661
  164OSM   H14T18483   1.037  -0.026   3.607
  164OSM   C15S18484   0.858  -0.030   3.731
  164OSM   H15S18485   0.924  -0.040   3.820
  164OSM   H15T18486   0.822  -0.130   3.701
  164OSM   C16S18487   0.742   0.060   3.774
  164OSM   H16S18488   0.671   0.072   3.689
  164OSM   H16T18489   0.786   0.160   3.794
  164OSM   C17S18490   0.666   0.010   3.898
  164OSM   H17S18491   0.621  -0.089   3.877
  164OSM   H17T18492   0.582   0.080   3.918
  164OSM   C18S18493   0.751  -0.003   4.025
  164OSM   H18S18494   0.687  -0.024   4.113
  164OSM   H18T18495   0.808   0.091   4.045
  164OSM   H18U18496   0.824  -0.086   4.014
  164OSM    C1F18497   0.779   0.106   2.469
  164OSM     OF18498   0.676   0.081   2.408
  164OSM    C2F18499   0.787   0.195   2.588
  164OSM    H2F18500   0.893   0.208   2.618
  164OSM    H2G18501   0.735   0.142   2.671
  164OSM    C3F18502   0.725   0.335   2.572
  164OSM    H3F18503   0.615   0.325   2.560
  164OSM    H3G18504   0.762   0.388   2.482
  164OSM    C4F18505   0.756   0.426   2.693
  164OSM    H4F18506   0.696   0.518   2.677
  164OSM    H4G18507   0.864   0.452   2.694
  164OSM    C5F18508   0.717   0.362   2.826
  164OSM    H5F18509   0.772   0.266   2.842
  164OSM    H5G18510   0.608   0.339   2.820
  164OSM    C6F18511   0.732   0.445   2.954
  164OSM    H6F18512   0.673   0.391   3.031
  164OSM    H6G18513   0.684   0.545   2.943
  164OSM    C7F18514   0.877   0.459   3.002
  164OSM    H7F18515   0.935   0.517   2.928
  164OSM    H7G18516   0.923   0.358   3.010
  164OSM    C8F18517   0.887   0.528   3.139
  164OSM    H8F18518   0.850   0.633   3.127
  164OSM    H8G18519   0.995   0.537   3.164
  164OSM    C9F18520   0.807   0.457   3.246
  164OSM    H9F18521   0.699   0.450   3.225
  164OSM   C10F18522   0.849   0.410   3.364
  164OSM   H10F18523   0.776   0.365   3.433
  164OSM   C11F18524   0.989   0.418   3.417
  164OSM   H11F18525   1.056   0.469   3.345
  164OSM   H11G18526   1.032   0.316   3.432
  164OSM   C12F18527   0.997   0.498   3.546
  164OSM   H12F18528   0.916   0.574   3.553
  164OSM   H12G18529   1.092   0.555   3.541
  164OSM   C13F18530   1.005   0.417   3.676
  164OSM   H13F18531   0.917   0.350   3.686
  164OSM   H13G18532   1.002   0.492   3.757
  164OSM   C14F18533   1.137   0.340   3.692
  164OSM   H14F18534   1.220   0.404   3.655
  164OSM   H14G18535   1.137   0.250   3.625
  164OSM   C15F18536   1.176   0.300   3.836
  164OSM   H15F18537   1.248   0.375   3.876
  164OSM   H15G18538   1.230   0.203   3.830
  164OSM   C16F18539   1.060   0.287   3.936
  164OSM   H16F18540   1.089   0.212   4.013
  164OSM   H16G18541   0.970   0.247   3.886
  164OSM   C17F18542   1.030   0.418   4.009
  164OSM   H17F18543   1.095   0.499   3.971
  164OSM   H17G18544   1.055   0.404   4.117
  164OSM   C18F18545   0.885   0.464   3.998
  164OSM   H18F18546   0.853   0.479   3.893
  164OSM   H18G18547   0.868   0.560   4.052
  164OSM   H18H18548   0.819   0.386   4.041
  165SAPS     N18549   4.872   4.361   6.334
  165SAPS   HN118550   4.808   4.441   6.350
  165SAPS   HN218551   4.840   4.305   6.252
  165SAPS   HN318552   4.886   4.302   6.418
  165SAPS   C1218553   5.001   4.424   6.294
  165SAPS  H12A18554   5.056   4.447   6.384
  165SAPS   C1318555   5.090   4.331   6.208
  165SAPS  O13A18556   5.054   4.211   6.194
  165SAPS  O13B18557   5.207   4.371   6.185
  165SAPS   C1118558   4.964   4.557   6.223
  165SAPS  H11A18559   4.925   4.533   6.121
  165SAPS  H11B18560   5.055   4.618   6.211
  165SAPS     P18561   4.846   4.780   6.304
  165SAPS   O1318562   4.704   4.812   6.329
  165SAPS   O1418563   4.944   4.830   6.404
  165SAPS   O1218564   4.862   4.623   6.299
  165SAPS   O1118565   4.889   4.826   6.160
  165SAPS    C118566   4.825   4.933   6.090
  165SAPS    HA18567   4.730   4.967   6.137
  165SAPS    HB18568   4.894   5.020   6.088
  165SAPS    C218569   4.792   4.898   5.942
  165SAPS    HS18570   4.702   4.833   5.938
  165SAPS   O2118571   4.908   4.838   5.883
  165SAPS   C2118572   4.907   4.707   5.882
  165SAPS   O2218573   4.823   4.635   5.933
  165SAPS   C2218574   5.032   4.658   5.811
  165SAPS   H2R18575   5.093   4.744   5.776
  165SAPS   H2S18576   5.090   4.600   5.887
  165SAPS    C318577   4.761   5.028   5.862
  165SAPS    HX18578   4.856   5.082   5.842
  165SAPS    HY18579   4.700   5.091   5.930
  165SAPS   O3118580   4.684   5.011   5.741
  165SAPS   C3118581   4.749   4.971   5.632
  165SAPS   O3218582   4.857   4.914   5.630
  165SAPS   C3218583   4.674   5.022   5.509
  165SAPS   H2X18584   4.612   5.108   5.540
  165SAPS   H2Y18585   4.605   4.941   5.476
  165SAPS   C2318586   4.997   4.568   5.691
  165SAPS   H3R18587   4.981   4.632   5.602
  165SAPS   H3S18588   4.897   4.519   5.703
  165SAPS   C2418589   5.102   4.458   5.672
  165SAPS   H4R18590   5.065   4.376   5.606
  165SAPS   H4S18591   5.132   4.412   5.768
  165SAPS   C2518592   5.214   4.528   5.604
  165SAPS   H5R18593   5.300   4.556   5.666
  165SAPS   C2618594   5.209   4.562   5.474
  165SAPS   H6R18595   5.286   4.630   5.435
  165SAPS   C2718596   5.096   4.534   5.377
  165SAPS   H7R18597   5.053   4.633   5.348
  165SAPS   H7S18598   5.012   4.478   5.423
  165SAPS   C2818599   5.145   4.456   5.258
  165SAPS   H8R18600   5.171   4.351   5.279
  165SAPS   C2918601   5.159   4.501   5.131
  165SAPS   H9R18602   5.199   4.431   5.056
  165SAPS  C21018603   5.129   4.638   5.078
  165SAPS  H10R18604   5.082   4.701   5.156
  165SAPS  H10S18605   5.055   4.629   4.996
  165SAPS  C21118606   5.251   4.709   5.025
  165SAPS  H11R18607   5.341   4.648   5.008
  165SAPS  C21218608   5.254   4.840   4.998
  165SAPS  H12R18609   5.348   4.885   4.962
  165SAPS  C21318610   5.138   4.934   5.015
  165SAPS  H13R18611   5.150   4.989   5.111
  165SAPS  H13S18612   5.041   4.879   5.024
  165SAPS  C21418613   5.131   5.034   4.903
  165SAPS  H14R18614   5.223   5.041   4.844
  165SAPS  C21518615   5.024   5.099   4.857
  165SAPS  H15R18616   5.037   5.170   4.773
  165SAPS  C21618617   4.882   5.087   4.905
  165SAPS  H16R18618   4.848   5.179   4.956
  165SAPS  H16S18619   4.871   5.003   4.978
  165SAPS  C21718620   4.793   5.058   4.783
  165SAPS  H17R18621   4.769   5.152   4.729
  165SAPS  H17S18622   4.698   5.019   4.826
  165SAPS  C21818623   4.847   4.954   4.682
  165SAPS  H18R18624   4.762   4.891   4.647
  165SAPS  H18S18625   4.919   4.886   4.733
  165SAPS  C21918626   4.912   5.009   4.555
  165SAPS  H19R18627   4.996   5.076   4.581
  165SAPS  H19S18628   4.837   5.070   4.499
  165SAPS  C22018629   4.964   4.896   4.465
  165SAPS  H20R18630   5.011   4.938   4.373
  165SAPS  H20S18631   4.881   4.829   4.434
  165SAPS  H20T18632   5.039   4.835   4.519
  165SAPS   C3318633   4.767   5.069   5.393
  165SAPS   H3X18634   4.838   5.146   5.429
  165SAPS   H3Y18635   4.703   5.117   5.316
  165SAPS   C3418636   4.844   4.957   5.324
  165SAPS   H4X18637   4.923   4.915   5.390
  165SAPS   H4Y18638   4.896   4.998   5.234
  165SAPS   C3518639   4.750   4.845   5.282
  165SAPS   H5X18640   4.661   4.891   5.233
  165SAPS   H5Y18641   4.716   4.789   5.371
  165SAPS   C3618642   4.813   4.747   5.184
  165SAPS   H6X18643   4.882   4.682   5.241
  165SAPS   H6Y18644   4.871   4.799   5.105
  165SAPS   C3718645   4.705   4.661   5.122
  165SAPS   H7X18646   4.625   4.645   5.197
  165SAPS   H7Y18647   4.753   4.562   5.101
  165SAPS   C3818648   4.643   4.714   4.992
  165SAPS   H8X18649   4.606   4.817   5.012
  165SAPS   H8Y18650   4.554   4.653   4.966
  165SAPS   C3918651   4.738   4.719   4.872
  165SAPS   H9X18652   4.822   4.788   4.895
  165SAPS   H9Y18653   4.679   4.762   4.788
  165SAPS  C31018654   4.799   4.587   4.820
  165SAPS  H10X18655   4.718   4.512   4.808
  165SAPS  H10Y18656   4.872   4.546   4.893
  165SAPS  C31118657   4.868   4.607   4.683
  165SAPS  H11X18658   4.962   4.664   4.698
  165SAPS  H11Y18659   4.801   4.670   4.621
  165SAPS  C31218660   4.896   4.481   4.598
  165SAPS  H12X18661   4.933   4.516   4.499
  165SAPS  H12Y18662   4.800   4.428   4.580
  165SAPS  C31318663   4.999   4.381   4.653
  165SAPS  H13X18664   5.024   4.309   4.573
  165SAPS  H13Y18665   4.949   4.323   4.734
  165SAPS  C31418666   5.132   4.439   4.704
  165SAPS  H14X18667   5.188   4.359   4.756
  165SAPS  H14Y18668   5.112   4.519   4.779
  165SAPS  C31518669   5.221   4.494   4.593
  165SAPS  H15X18670   5.165   4.572   4.537
  165SAPS  H15Y18671   5.247   4.413   4.521
  165SAPS  C31618672   5.350   4.556   4.648
  165SAPS  H16X18673   5.420   4.474   4.675
  165SAPS  H16Y18674   5.327   4.613   4.740
  165SAPS  C31718675   5.418   4.651   4.548
  165SAPS  H17X18676   5.390   4.619   4.445
  165SAPS  H17Y18677   5.528   4.642   4.557
  165SAPS  C31818678   5.379   4.797   4.571
  165SAPS  H18X18679   5.423   4.863   4.493
  165SAPS  H18Y18680   5.415   4.831   4.670
  165SAPS  H18Z18681   5.268   4.809   4.569
  166SAPS     N18682   1.975   4.785   6.185
  166SAPS   HN118683   2.075   4.772   6.163
  166SAPS   HN218684   1.911   4.737   6.118
  166SAPS   HN318685   1.954   4.887   6.187
  166SAPS   C1218686   1.950   4.729   6.321
  166SAPS  H12A18687   1.962   4.621   6.315
  166SAPS   C1318688   2.052   4.774   6.429
  166SAPS  O13A18689   2.161   4.817   6.383
  166SAPS  O13B18690   2.044   4.717   6.541
  166SAPS   C1118691   1.804   4.759   6.357
  166SAPS  H11A18692   1.779   4.864   6.332
  166SAPS  H11B18693   1.787   4.745   6.466
  166SAPS     P18694   1.590   4.694   6.216
  166SAPS   O1318695   1.491   4.612   6.290
  166SAPS   O1418696   1.575   4.841   6.214
  166SAPS   O1218697   1.728   4.663   6.286
  166SAPS   O1118698   1.622   4.638   6.072
  166SAPS    C118699   1.667   4.503   6.051
  166SAPS    HA18700   1.650   4.439   6.140
  166SAPS    HB18701   1.605   4.458   5.971
  166SAPS    C218702   1.816   4.488   6.008
  166SAPS    HS18703   1.869   4.441   6.094
  166SAPS   O2118704   1.872   4.618   5.983
  166SAPS   C2118705   1.989   4.612   5.921
  166SAPS   O2218706   2.087   4.553   5.964
  166SAPS   C2218707   1.982   4.693   5.794
  166SAPS   H2R18708   2.006   4.627   5.708
  166SAPS   H2S18709   1.878   4.730   5.780
  166SAPS    C318710   1.834   4.390   5.885
  166SAPS    HX18711   1.763   4.306   5.899
  166SAPS    HY18712   1.937   4.347   5.890
  166SAPS   O3118713   1.813   4.455   5.756
  166SAPS   C3118714   1.828   4.366   5.656
  166SAPS   O3218715   1.875   4.255   5.673
  166SAPS   C3218716   1.765   4.413   5.524
  166SAPS   H2X18717   1.655   4.398   5.533
  166SAPS   H2Y18718   1.798   4.342   5.444
  166SAPS   C2318719   2.080   4.809   5.800
  166SAPS   H3R18720   2.184   4.769   5.799
  166SAPS   H3S18721   2.069   4.869   5.892
  166SAPS   C2418722   2.061   4.902   5.680
  166SAPS   H4R18723   2.072   4.844   5.585
  166SAPS   H4S18724   2.148   4.972   5.686
  166SAPS   C2518725   1.933   4.982   5.686
  166SAPS   H5R18726   1.923   5.041   5.778
  166SAPS   C2618727   1.839   4.995   5.591
  166SAPS   H6R18728   1.753   5.061   5.612
  166SAPS   C2718729   1.839   4.930   5.455
  166SAPS   H7R18730   1.873   4.825   5.466
  166SAPS   H7S18731   1.915   4.978   5.390
  166SAPS   C2818732   1.703   4.932   5.390
  166SAPS   H8R18733   1.620   4.900   5.455
  166SAPS   C2918734   1.675   4.963   5.262
  166SAPS   H9R18735   1.571   4.955   5.228
  166SAPS  C21018736   1.774   5.005   5.156
  166SAPS  H10R18737   1.840   4.918   5.132
  166SAPS  H10S18738   1.842   5.083   5.195
  166SAPS  C21118739   1.707   5.055   5.030
  166SAPS  H11R18740   1.679   5.161   5.034
  166SAPS  C21218741   1.679   4.985   4.918
  166SAPS  H12R18742   1.628   5.036   4.836
  166SAPS  C21318743   1.707   4.839   4.891
  166SAPS  H13R18744   1.813   4.819   4.918
  166SAPS  H13S18745   1.704   4.821   4.782
  166SAPS  C21418746   1.621   4.735   4.959
  166SAPS  H14R18747   1.673   4.669   5.030
  166SAPS  C21518748   1.489   4.717   4.939
  166SAPS  H15R18749   1.437   4.636   4.993
  166SAPS  C21618750   1.404   4.799   4.845
  166SAPS  H16R18751   1.466   4.860   4.777
  166SAPS  H16S18752   1.342   4.870   4.904
  166SAPS  C21718753   1.308   4.717   4.756
  166SAPS  H17R18754   1.259   4.789   4.688
  166SAPS  H17S18755   1.227   4.669   4.815
  166SAPS  C21818756   1.377   4.606   4.675
  166SAPS  H18R18757   1.358   4.509   4.725
  166SAPS  H18S18758   1.487   4.623   4.672
  166SAPS  C21918759   1.324   4.604   4.532
  166SAPS  H19R18760   1.214   4.613   4.534
  166SAPS  H19S18761   1.348   4.505   4.487
  166SAPS  C22018762   1.385   4.715   4.447
  166SAPS  H20R18763   1.381   4.813   4.501
  166SAPS  H20S18764   1.330   4.727   4.352
  166SAPS  H20T18765   1.492   4.693   4.425
  166SAPS   C3318766   1.786   4.559   5.480
  166SAPS   H3X18767   1.805   4.625   5.566
  166SAPS   H3Y18768   1.691   4.594   5.434
  166SAPS   C3418769   1.895   4.572   5.374
  166SAPS   H4X18770   1.948   4.475   5.359
  166SAPS   H4Y18771   1.969   4.645   5.412
  166SAPS   C3518772   1.844   4.623   5.239
  166SAPS   H5X18773   1.783   4.714   5.256
  166SAPS   H5Y18774   1.779   4.547   5.191
  166SAPS   C3618775   1.959   4.661   5.145
  166SAPS   H6X18776   2.034   4.723   5.198
  166SAPS   H6Y18777   1.917   4.726   5.065
  166SAPS   C3718778   2.024   4.538   5.083
  166SAPS   H7X18779   1.983   4.451   5.138
  166SAPS   H7Y18780   2.132   4.529   5.103
  166SAPS   C3818781   1.993   4.520   4.934
  166SAPS   H8X18782   1.884   4.501   4.929
  166SAPS   H8Y18783   2.044   4.429   4.896
  166SAPS   C3918784   2.027   4.636   4.839
  166SAPS   H9X18785   2.135   4.636   4.814
  166SAPS   H9Y18786   2.002   4.736   4.881
  166SAPS  C31018787   1.942   4.610   4.715
  166SAPS  H10X18788   1.839   4.587   4.747
  166SAPS  H10Y18789   1.987   4.520   4.668
  166SAPS  C31118790   1.931   4.714   4.605
  166SAPS  H11X18791   2.029   4.728   4.554
  166SAPS  H11Y18792   1.899   4.811   4.649
  166SAPS  C31218793   1.826   4.662   4.505
  166SAPS  H12X18794   1.727   4.659   4.554
  166SAPS  H12Y18795   1.852   4.558   4.475
  166SAPS  C31318796   1.818   4.747   4.379
  166SAPS  H13X18797   1.738   4.707   4.312
  166SAPS  H13Y18798   1.915   4.738   4.325
  166SAPS  C31418799   1.790   4.894   4.412
  166SAPS  H14X18800   1.870   4.936   4.477
  166SAPS  H14Y18801   1.695   4.897   4.469
  166SAPS  C31518802   1.780   4.980   4.287
  166SAPS  H15X18803   1.741   5.081   4.314
  166SAPS  H15Y18804   1.707   4.932   4.219
  166SAPS  C31618805   1.913   5.000   4.214
  166SAPS  H16X18806   1.976   4.909   4.220
  166SAPS  H16Y18807   1.970   5.083   4.261
  166SAPS  C31718808   1.885   5.029   4.067
  166SAPS  H17X18809   1.818   5.117   4.058
  166SAPS  H17Y18810   1.832   4.939   4.027
  166SAPS  C31818811   2.010   5.049   3.983
  166SAPS  H18X18812   2.073   5.131   4.024
  166SAPS  H18Y18813   1.983   5.074   3.878
  166SAPS  H18Z18814   2.069   4.955   3.982
  167SAPS     N18815   4.588   6.784   6.395
  167SAPS   HN118816   4.645   6.857   6.443
  167SAPS   HN218817   4.634   6.690   6.398
  167SAPS   HN318818   4.580   6.813   6.295
  167SAPS   C1218819   4.452   6.780   6.453
  167SAPS  H12A18820   4.456   6.720   6.543
  167SAPS   C1318821   4.406   6.922   6.497
  167SAPS  O13A18822   4.497   7.008   6.515
  167SAPS  O13B18823   4.296   6.929   6.558
  167SAPS   C1118824   4.360   6.707   6.350
  167SAPS  H11A18825   4.363   6.758   6.252
  167SAPS  H11B18826   4.254   6.711   6.386
  167SAPS     P18827   4.394   6.484   6.208
  167SAPS   O1318828   4.457   6.353   6.236
  167SAPS   O1418829   4.258   6.484   6.152
  167SAPS   O1218830   4.400   6.569   6.342
  167SAPS   O1118831   4.492   6.566   6.116
  167SAPS    C118832   4.631   6.555   6.147
  167SAPS    HA18833   4.653   6.593   6.249
  167SAPS    HB18834   4.664   6.449   6.145
  167SAPS    C218835   4.721   6.631   6.048
  167SAPS    HS18836   4.808   6.675   6.102
  167SAPS   O2118837   4.657   6.731   5.969
  167SAPS   C2118838   4.578   6.820   6.021
  167SAPS   O2218839   4.567   6.849   6.139
  167SAPS   C2218840   4.492   6.871   5.907
  167SAPS   H2R18841   4.552   6.875   5.813
  167SAPS   H2S18842   4.419   6.788   5.893
  167SAPS    C318843   4.772   6.532   5.943
  167SAPS    HX18844   4.844   6.462   5.992
  167SAPS    HY18845   4.828   6.592   5.868
  167SAPS   O3118846   4.665   6.458   5.882
  167SAPS   C3118847   4.615   6.510   5.770
  167SAPS   O3218848   4.660   6.604   5.708
  167SAPS   C3218849   4.495   6.427   5.728
  167SAPS   H2X18850   4.408   6.461   5.788
  167SAPS   H2Y18851   4.517   6.321   5.752
  167SAPS   C2318852   4.424   7.007   5.932
  167SAPS   H3R18853   4.499   7.087   5.915
  167SAPS   H3S18854   4.391   7.014   6.038
  167SAPS   C2418855   4.303   7.031   5.840
  167SAPS   H4R18856   4.339   7.045   5.736
  167SAPS   H4S18857   4.250   7.124   5.869
  167SAPS   C2518858   4.210   6.912   5.851
  167SAPS   H5R18859   4.170   6.894   5.952
  167SAPS   C2618860   4.177   6.828   5.752
  167SAPS   H6R18861   4.112   6.742   5.777
  167SAPS   C2718862   4.222   6.833   5.607
  167SAPS   H7R18863   4.183   6.925   5.559
  167SAPS   H7S18864   4.172   6.748   5.555
  167SAPS   C2818865   4.370   6.820   5.581
  167SAPS   H8R18866   4.415   6.733   5.632
  167SAPS   C2918867   4.453   6.902   5.514
  167SAPS   H9R18868   4.558   6.869   5.510
  167SAPS  C21018869   4.429   7.033   5.441
  167SAPS  H10R18870   4.342   7.087   5.486
  167SAPS  H10S18871   4.401   7.013   5.335
  167SAPS  C21118872   4.555   7.119   5.450
  167SAPS  H11R18873   4.584   7.134   5.555
  167SAPS  C21218874   4.637   7.174   5.355
  167SAPS  H12R18875   4.726   7.226   5.393
  167SAPS  C21318876   4.633   7.171   5.202
  167SAPS  H13R18877   4.588   7.267   5.170
  167SAPS  H13S18878   4.556   7.095   5.174
  167SAPS  C21418879   4.760   7.151   5.119
  167SAPS  H14R18880   4.838   7.212   5.167
  167SAPS  C21518881   4.806   7.081   5.008
  167SAPS  H15R18882   4.911   7.108   4.989
  167SAPS  C21618883   4.775   6.981   4.892
  167SAPS  H16R18884   4.818   6.909   4.965
  167SAPS  H16S18885   4.852   7.002   4.814
  167SAPS  C21718886   4.709   6.846   4.832
  167SAPS  H17R18887   4.604   6.831   4.864
  167SAPS  H17S18888   4.761   6.756   4.871
  167SAPS  C21818889   4.711   6.819   4.678
  167SAPS  H18R18890   4.651   6.727   4.659
  167SAPS  H18S18891   4.815   6.793   4.647
  167SAPS  C21918892   4.659   6.929   4.585
  167SAPS  H19R18893   4.727   7.016   4.594
  167SAPS  H19S18894   4.558   6.959   4.622
  167SAPS  C22018895   4.643   6.897   4.436
  167SAPS  H20R18896   4.715   6.956   4.375
  167SAPS  H20S18897   4.541   6.925   4.403
  167SAPS  H20T18898   4.660   6.789   4.417
  167SAPS   C3318899   4.465   6.441   5.578
  167SAPS   H3X18900   4.552   6.413   5.516
  167SAPS   H3Y18901   4.442   6.548   5.554
  167SAPS   C3418902   4.344   6.356   5.541
  167SAPS   H4X18903   4.288   6.332   5.634
  167SAPS   H4Y18904   4.378   6.259   5.497
  167SAPS   C3518905   4.248   6.423   5.445
  167SAPS   H5X18906   4.206   6.515   5.491
  167SAPS   H5Y18907   4.164   6.352   5.430
  167SAPS   C3618908   4.309   6.457   5.309
  167SAPS   H6X18909   4.377   6.376   5.275
  167SAPS   H6Y18910   4.369   6.551   5.318
  167SAPS   C3718911   4.198   6.474   5.206
  167SAPS   H7X18912   4.123   6.542   5.252
  167SAPS   H7Y18913   4.150   6.375   5.189
  167SAPS   C3818914   4.242   6.531   5.072
  167SAPS   H8X18915   4.210   6.462   4.991
  167SAPS   H8Y18916   4.353   6.539   5.068
  167SAPS   C3918917   4.178   6.667   5.048
  167SAPS   H9X18918   4.230   6.743   5.110
  167SAPS   H9Y18919   4.072   6.666   5.083
  167SAPS  C31018920   4.178   6.707   4.901
  167SAPS  H10X18921   4.149   6.814   4.896
  167SAPS  H10Y18922   4.101   6.646   4.848
  167SAPS  C31118923   4.313   6.686   4.832
  167SAPS  H11X18924   4.324   6.582   4.795
  167SAPS  H11Y18925   4.391   6.699   4.909
  167SAPS  C31218926   4.342   6.790   4.724
  167SAPS  H12X18927   4.453   6.791   4.712
  167SAPS  H12Y18928   4.308   6.890   4.758
  167SAPS  C31318929   4.286   6.769   4.584
  167SAPS  H13X18930   4.344   6.838   4.520
  167SAPS  H13Y18931   4.180   6.805   4.581
  167SAPS  C31418932   4.298   6.625   4.534
  167SAPS  H14X18933   4.223   6.563   4.587
  167SAPS  H14Y18934   4.400   6.588   4.559
  167SAPS  C31518935   4.276   6.607   4.383
  167SAPS  H15X18936   4.169   6.623   4.358
  167SAPS  H15Y18937   4.302   6.503   4.356
  167SAPS  C31618938   4.361   6.704   4.299
  167SAPS  H16X18939   4.397   6.651   4.208
  167SAPS  H16Y18940   4.451   6.732   4.357
  167SAPS  C31718941   4.281   6.827   4.256
  167SAPS  H17X18942   4.236   6.878   4.344
  167SAPS  H17Y18943   4.195   6.792   4.195
  167SAPS  C31818944   4.362   6.929   4.177
  167SAPS  H18X18945   4.408   7.005   4.244
  167SAPS  H18Y18946   4.296   6.981   4.104
  167SAPS  H18Z18947   4.444   6.880   4.120
  168SAPS     N18948   3.001   7.266   6.279
  168SAPS   HN118949   2.984   7.357   6.327
  168SAPS   HN218950   3.093   7.262   6.229
  168SAPS   HN318951   2.928   7.245   6.208
  168SAPS   C1218952   3.002   7.162   6.386
  168SAPS  H12A18953   3.103   7.126   6.397
  168SAPS   C1318954   2.962   7.223   6.524
  168SAPS  O13A18955   2.940   7.347   6.530
  168SAPS  O13B18956   2.980   7.153   6.627
  168SAPS   C1118957   2.911   7.044   6.342
  168SAPS  H11A18958   2.821   7.080   6.287
  168SAPS  H11B18959   2.873   6.993   6.434
  168SAPS     P18960   3.036   6.965   6.119
  168SAPS   O1318961   3.127   7.083   6.123
  168SAPS   O1418962   3.086   6.838   6.065
  168SAPS   O1218963   2.982   6.946   6.267
  168SAPS   O1118964   2.904   7.005   6.042
  168SAPS    C118965   2.791   6.915   6.048
  168SAPS    HA18966   2.823   6.809   6.039
  168SAPS    HB18967   2.739   6.926   6.145
  168SAPS    C218968   2.685   6.945   5.937
  168SAPS    HS18969   2.601   6.875   5.953
  168SAPS   O2118970   2.741   6.930   5.804
  168SAPS   C2118971   2.766   6.803   5.775
  168SAPS   O2218972   2.733   6.708   5.843
  168SAPS   C2218973   2.837   6.786   5.640
  168SAPS   H2R18974   2.934   6.736   5.660
  168SAPS   H2S18975   2.773   6.714   5.585
  168SAPS    C318976   2.626   7.089   5.953
  168SAPS    HX18977   2.615   7.113   6.061
  168SAPS    HY18978   2.524   7.087   5.910
  168SAPS   O3118979   2.703   7.185   5.881
  168SAPS   C3118980   2.803   7.245   5.943
  168SAPS   O3218981   2.814   7.266   6.063
  168SAPS   C3218982   2.900   7.294   5.835
  168SAPS   H2X18983   2.923   7.210   5.767
  168SAPS   H2Y18984   2.994   7.323   5.888
  168SAPS   C2318985   2.856   6.907   5.545
  168SAPS   H3R18986   2.775   6.982   5.561
  168SAPS   H3S18987   2.844   6.869   5.441
  168SAPS   C2418988   2.996   6.971   5.554
  168SAPS   H4R18989   3.074   6.891   5.550
  168SAPS   H4S18990   3.007   7.017   5.655
  168SAPS   C2518991   3.024   7.073   5.446
  168SAPS   H5R18992   3.039   7.175   5.485
  168SAPS   C2618993   3.041   7.053   5.314
  168SAPS   H6R18994   3.065   7.140   5.251
  168SAPS   C2718995   3.038   6.921   5.240
  168SAPS   H7R18996   3.025   6.836   5.311
  168SAPS   H7S18997   3.140   6.909   5.199
  168SAPS   C2818998   2.944   6.902   5.124
  168SAPS   H8R18999   2.841   6.875   5.152
  168SAPS   C2919000   2.976   6.915   4.994
  168SAPS   H9R19001   2.897   6.895   4.919
  168SAPS  C21019002   3.110   6.953   4.934
  168SAPS  H10R19003   3.113   6.916   4.829
  168SAPS  H10S19004   3.192   6.900   4.987
  168SAPS  C21119005   3.135   7.102   4.936
  168SAPS  H11R19006   3.081   7.155   5.016
  168SAPS  C21219007   3.216   7.175   4.857
  168SAPS  H12R19008   3.217   7.284   4.874
  168SAPS  C21319009   3.305   7.131   4.743
  168SAPS  H13R19010   3.341   7.027   4.762
  168SAPS  H13S19011   3.397   7.193   4.744
  168SAPS  C21419012   3.241   7.138   4.607
  168SAPS  H14R19013   3.136   7.169   4.606
  168SAPS  C21519014   3.302   7.118   4.489
  168SAPS  H15R19015   3.243   7.131   4.397
  168SAPS  C21619016   3.448   7.084   4.465
  168SAPS  H16R19017   3.494   7.039   4.555
  168SAPS  H16S19018   3.504   7.176   4.441
  168SAPS  C21719019   3.466   6.987   4.346
  168SAPS  H17R19020   3.434   7.035   4.252
  168SAPS  H17S19021   3.404   6.896   4.363
  168SAPS  C21819022   3.611   6.941   4.328
  168SAPS  H18R19023   3.646   6.902   4.426
  168SAPS  H18S19024   3.673   7.029   4.301
  168SAPS  C21919025   3.629   6.830   4.222
  168SAPS  H19R19026   3.537   6.769   4.219
  168SAPS  H19S19027   3.709   6.761   4.254
  168SAPS  C22019028   3.669   6.880   4.083
  168SAPS  H20R19029   3.779   6.876   4.069
  168SAPS  H20S19030   3.639   6.986   4.070
  168SAPS  H20T19031   3.623   6.818   4.004
  168SAPS   C3319032   2.838   7.414   5.761
  168SAPS   H3X19033   2.919   7.475   5.715
  168SAPS   H3Y19034   2.790   7.480   5.836
  168SAPS   C3419035   2.735   7.379   5.652
  168SAPS   H4X19036   2.706   7.472   5.599
  168SAPS   H4Y19037   2.642   7.337   5.697
  168SAPS   C3519038   2.781   7.291   5.536
  168SAPS   H5X19039   2.777   7.184   5.567
  168SAPS   H5Y19040   2.887   7.315   5.511
  168SAPS   C3619041   2.697   7.316   5.410
  168SAPS   H6X19042   2.698   7.425   5.388
  168SAPS   H6Y19043   2.591   7.287   5.427
  168SAPS   C3719044   2.753   7.246   5.287
  168SAPS   H7X19045   2.746   7.135   5.299
  168SAPS   H7Y19046   2.861   7.271   5.281
  168SAPS   C3819047   2.690   7.288   5.154
  168SAPS   H8X19048   2.683   7.399   5.148
  168SAPS   H8Y19049   2.588   7.246   5.144
  168SAPS   C3919050   2.780   7.238   5.041
  168SAPS   H9X19051   2.793   7.129   5.057
  168SAPS   H9Y19052   2.880   7.285   5.053
  168SAPS  C31019053   2.734   7.259   4.896
  168SAPS  H10X19054   2.724   7.367   4.873
  168SAPS  H10Y19055   2.637   7.209   4.879
  168SAPS  C31119056   2.842   7.195   4.809
  168SAPS  H11X19057   2.856   7.092   4.850
  168SAPS  H11Y19058   2.938   7.249   4.823
  168SAPS  C31219059   2.817   7.177   4.660
  168SAPS  H12X19060   2.853   7.268   4.608
  168SAPS  H12Y19061   2.709   7.165   4.639
  168SAPS  C31319062   2.895   7.054   4.609
  168SAPS  H13X19063   2.988   7.040   4.669
  168SAPS  H13Y19064   2.927   7.071   4.504
  168SAPS  C31419065   2.814   6.924   4.616
  168SAPS  H14X19066   2.709   6.951   4.643
  168SAPS  H14Y19067   2.852   6.858   4.696
  168SAPS  C31519068   2.809   6.849   4.483
  168SAPS  H15X19069   2.808   6.923   4.400
  168SAPS  H15Y19070   2.714   6.791   4.478
  168SAPS  C31619071   2.923   6.750   4.461
  168SAPS  H16X19072   2.925   6.676   4.544
  168SAPS  H16Y19073   3.018   6.807   4.467
  168SAPS  C31719074   2.915   6.679   4.324
  168SAPS  H17X19075   3.018   6.659   4.289
  168SAPS  H17Y19076   2.867   6.750   4.253
  168SAPS  C31819077   2.837   6.548   4.315
  168SAPS  H18X19078   2.730   6.564   4.341
  168SAPS  H18Y19079   2.880   6.470   4.382
  168SAPS  H18Z19080   2.842   6.508   4.211
  169SAPS     N19081   6.645   1.891   6.291
  169SAPS   HN119082   6.582   1.837   6.227
  169SAPS   HN219083   6.742   1.853   6.284
  169SAPS   HN319084   6.611   1.879   6.388
  169SAPS   C1219085   6.649   2.040   6.269
  169SAPS  H12A19086   6.609   2.062   6.171
  169SAPS   C1319087   6.565   2.115   6.375
  169SAPS  O13A19088   6.536   2.054   6.481
  169SAPS  O13B19089   6.554   2.241   6.363
  169SAPS   C1119090   6.795   2.094   6.283
  169SAPS  H11A19091   6.834   2.072   6.384
  169SAPS  H11B19092   6.791   2.204   6.274
  169SAPS     P19093   6.973   1.919   6.194
  169SAPS   O1319094   7.110   1.965   6.230
  169SAPS   O1419095   6.904   1.827   6.286
  169SAPS   O1219096   6.882   2.047   6.180
  169SAPS   O1119097   6.969   1.860   6.049
  169SAPS    C119098   7.006   1.937   5.934
  169SAPS    HA19099   7.096   1.998   5.954
  169SAPS    HB19100   7.032   1.867   5.852
  169SAPS    C219101   6.892   2.029   5.881
  169SAPS    HS19102   6.854   2.092   5.964
  169SAPS   O2119103   6.789   1.949   5.819
  169SAPS   C2119104   6.665   1.992   5.838
  169SAPS   O2219105   6.631   2.086   5.907
  169SAPS   C2219106   6.566   1.905   5.761
  169SAPS   H2R19107   6.595   1.799   5.782
  169SAPS   H2S19108   6.465   1.922   5.803
  169SAPS    C319109   6.954   2.126   5.778
  169SAPS    HX19110   7.023   2.067   5.713
  169SAPS    HY19111   7.017   2.200   5.832
  169SAPS   O3119112   6.858   2.187   5.692
  169SAPS   C3119113   6.790   2.293   5.736
  169SAPS   O3219114   6.798   2.342   5.846
  169SAPS   C3219115   6.713   2.350   5.617
  169SAPS   H2X19116   6.749   2.454   5.601
  169SAPS   H2Y19117   6.606   2.353   5.643
  169SAPS   C2319118   6.566   1.934   5.609
  169SAPS   H3R19119   6.671   1.945   5.573
  169SAPS   H3S19120   6.515   2.031   5.591
  169SAPS   C2419121   6.499   1.823   5.526
  169SAPS   H4R19122   6.491   1.855   5.420
  169SAPS   H4S19123   6.394   1.809   5.562
  169SAPS   C2519124   6.577   1.695   5.539
  169SAPS   H5R19125   6.546   1.632   5.623
  169SAPS   C2619126   6.679   1.654   5.461
  169SAPS   H6R19127   6.726   1.557   5.482
  169SAPS   C2719128   6.737   1.727   5.342
  169SAPS   H7R19129   6.688   1.826   5.331
  169SAPS   H7S19130   6.710   1.670   5.251
  169SAPS   C2819131   6.887   1.742   5.342
  169SAPS   H8R19132   6.944   1.667   5.400
  169SAPS   C2919133   6.954   1.839   5.277
  169SAPS   H9R19134   7.064   1.842   5.281
  169SAPS  C21019135   6.889   1.948   5.196
  169SAPS  H10R19136   6.956   2.036   5.192
  169SAPS  H10S19137   6.800   1.983   5.253
  169SAPS  C21119138   6.841   1.909   5.059
  169SAPS  H11R19139   6.746   1.852   5.057
  169SAPS  C21219140   6.901   1.937   4.942
  169SAPS  H12R19141   6.855   1.899   4.850
  169SAPS  C21319142   7.029   2.014   4.922
  169SAPS  H13R19143   7.038   2.095   4.997
  169SAPS  H13S19144   7.026   2.066   4.824
  169SAPS  C21419145   7.152   1.925   4.930
  169SAPS  H14R19146   7.219   1.946   5.014
  169SAPS  C21519147   7.182   1.825   4.845
  169SAPS  H15R19148   7.274   1.767   4.861
  169SAPS  C21619149   7.100   1.784   4.725
  169SAPS  H16R19150   7.023   1.860   4.699
  169SAPS  H16S19151   7.045   1.689   4.747
  169SAPS  C21719152   7.188   1.762   4.602
  169SAPS  H17R19153   7.253   1.673   4.618
  169SAPS  H17S19154   7.254   1.849   4.585
  169SAPS  C21819155   7.105   1.740   4.475
  169SAPS  H18R19156   7.050   1.833   4.450
  169SAPS  H18S19157   7.029   1.660   4.492
  169SAPS  C21919158   7.193   1.702   4.356
  169SAPS  H19R19159   7.240   1.603   4.376
  169SAPS  H19S19160   7.275   1.776   4.346
  169SAPS  C22019161   7.115   1.696   4.225
  169SAPS  H20R19162   7.077   1.797   4.199
  169SAPS  H20S19163   7.028   1.627   4.234
  169SAPS  H20T19164   7.181   1.659   4.144
  169SAPS   C3319165   6.737   2.267   5.489
  169SAPS   H3X19166   6.704   2.162   5.508
  169SAPS   H3Y19167   6.845   2.262   5.463
  169SAPS   C3419168   6.663   2.319   5.367
  169SAPS   H4X19169   6.715   2.408   5.328
  169SAPS   H4Y19170   6.561   2.350   5.399
  169SAPS   C3519171   6.651   2.212   5.257
  169SAPS   H5X19172   6.753   2.171   5.237
  169SAPS   H5Y19173   6.622   2.264   5.163
  169SAPS   C3619174   6.546   2.103   5.286
  169SAPS   H6X19175   6.454   2.155   5.323
  169SAPS   H6Y19176   6.584   2.041   5.370
  169SAPS   C3719177   6.504   2.009   5.170
  169SAPS   H7X19178   6.400   1.974   5.189
  169SAPS   H7Y19179   6.570   1.920   5.169
  169SAPS   C3819180   6.509   2.075   5.032
  169SAPS   H8X19181   6.615   2.103   5.011
  169SAPS   H8Y19182   6.446   2.166   5.037
  169SAPS   C3919183   6.452   1.999   4.912
  169SAPS   H9X19184   6.355   2.046   4.884
  169SAPS   H9Y19185   6.433   1.893   4.936
  169SAPS  C31019186   6.540   2.008   4.787
  169SAPS  H10X19187   6.486   1.960   4.703
  169SAPS  H10Y19188   6.634   1.950   4.804
  169SAPS  C31119189   6.575   2.152   4.747
  169SAPS  H11X19190   6.637   2.201   4.825
  169SAPS  H11Y19191   6.482   2.213   4.739
  169SAPS  C31219192   6.651   2.157   4.615
  169SAPS  H12X19193   6.647   2.260   4.573
  169SAPS  H12Y19194   6.604   2.088   4.541
  169SAPS  C31319195   6.797   2.119   4.638
  169SAPS  H13X19196   6.805   2.019   4.685
  169SAPS  H13Y19197   6.840   2.194   4.708
  169SAPS  C31419198   6.879   2.118   4.509
  169SAPS  H14X19199   6.850   2.208   4.450
  169SAPS  H14Y19200   6.854   2.030   4.447
  169SAPS  C31519201   7.029   2.122   4.541
  169SAPS  H15X19202   7.066   2.018   4.557
  169SAPS  H15Y19203   7.047   2.179   4.634
  169SAPS  C31619204   7.106   2.190   4.429
  169SAPS  H16X19205   7.071   2.148   4.333
  169SAPS  H16Y19206   7.215   2.171   4.438
  169SAPS  C31719207   7.080   2.341   4.434
  169SAPS  H17X19208   7.162   2.388   4.492
  169SAPS  H17Y19209   6.985   2.364   4.487
  169SAPS  C31819210   7.071   2.402   4.296
  169SAPS  H18X19211   7.052   2.511   4.300
  169SAPS  H18Y19212   6.989   2.354   4.237
  169SAPS  H18Z19213   7.166   2.385   4.242
  170SAPS     N19214   6.407   5.942   6.383
  170SAPS   HN119215   6.336   5.951   6.458
  170SAPS   HN219216   6.363   5.951   6.288
  170SAPS   HN319217   6.453   5.849   6.387
  170SAPS   C1219218   6.509   6.050   6.395
  170SAPS  H12A19219   6.461   6.145   6.380
  170SAPS   C1319220   6.571   6.056   6.539
  170SAPS  O13A19221   6.501   6.004   6.631
  170SAPS  O13B19222   6.645   6.156   6.564
  170SAPS   C1119223   6.611   6.031   6.280
  170SAPS  H11A19224   6.646   5.925   6.270
  170SAPS  H11B19225   6.701   6.092   6.302
  170SAPS     P19226   6.460   6.003   6.058
  170SAPS   O1319227   6.531   5.889   5.999
  170SAPS   O1419228   6.336   5.974   6.134
  170SAPS   O1219229   6.556   6.079   6.158
  170SAPS   O1119230   6.430   6.113   5.950
  170SAPS    C119231   6.531   6.206   5.910
  170SAPS    HA19232   6.609   6.224   5.987
  170SAPS    HB19233   6.583   6.166   5.819
  170SAPS    C219234   6.469   6.343   5.876
  170SAPS    HS19235   6.418   6.381   5.967
  170SAPS   O2119236   6.380   6.323   5.766
  170SAPS   C2119237   6.251   6.321   5.789
  170SAPS   O2219238   6.192   6.351   5.890
  170SAPS   C2219239   6.185   6.287   5.655
  170SAPS   H2R19240   6.199   6.179   5.634
  170SAPS   H2S19241   6.076   6.308   5.665
  170SAPS    C319242   6.578   6.445   5.833
  170SAPS    HX19243   6.653   6.451   5.914
  170SAPS    HY19244   6.532   6.545   5.824
  170SAPS   O3119245   6.643   6.400   5.711
  170SAPS   C3119246   6.587   6.442   5.599
  170SAPS   O3219247   6.511   6.537   5.588
  170SAPS   C3219248   6.629   6.355   5.481
  170SAPS   H2X19249   6.733   6.381   5.453
  170SAPS   H2Y19250   6.563   6.381   5.396
  170SAPS   C2319251   6.247   6.374   5.543
  170SAPS   H3R19252   6.348   6.335   5.517
  170SAPS   H3S19253   6.265   6.476   5.583
  170SAPS   C2419254   6.157   6.387   5.420
  170SAPS   H4R19255   6.167   6.491   5.384
  170SAPS   H4S19256   6.052   6.370   5.450
  170SAPS   C2519257   6.197   6.288   5.316
  170SAPS   H5R19258   6.219   6.187   5.353
  170SAPS   C2619259   6.205   6.314   5.185
  170SAPS   H6R19260   6.233   6.231   5.118
  170SAPS   C2719261   6.174   6.445   5.116
  170SAPS   H7R19262   6.128   6.519   5.185
  170SAPS   H7S19263   6.098   6.432   5.037
  170SAPS   C2819264   6.295   6.507   5.054
  170SAPS   H8R19265   6.320   6.606   5.094
  170SAPS   C2919266   6.378   6.455   4.961
  170SAPS   H9R19267   6.465   6.516   4.935
  170SAPS  C21019268   6.383   6.325   4.886
  170SAPS  H10R19269   6.354   6.342   4.780
  170SAPS  H10S19270   6.306   6.257   4.929
  170SAPS  C21119271   6.523   6.268   4.896
  170SAPS  H11R19272   6.562   6.265   4.999
  170SAPS  C21219273   6.604   6.221   4.798
  170SAPS  H12R19274   6.703   6.184   4.826
  170SAPS  C21319275   6.571   6.215   4.650
  170SAPS  H13R19276   6.520   6.310   4.624
  170SAPS  H13S19277   6.497   6.134   4.635
  170SAPS  C21419278   6.686   6.190   4.555
  170SAPS  H14R19279   6.749   6.105   4.583
  170SAPS  C21519280   6.717   6.256   4.440
  170SAPS  H15R19281   6.806   6.224   4.384
  170SAPS  C21619282   6.645   6.373   4.378
  170SAPS  H16R19283   6.540   6.370   4.413
  170SAPS  H16S19284   6.640   6.361   4.268
  170SAPS  C21719285   6.693   6.516   4.410
  170SAPS  H17R19286   6.791   6.537   4.361
  170SAPS  H17S19287   6.708   6.525   4.519
  170SAPS  C21819288   6.588   6.621   4.366
  170SAPS  H18R19289   6.564   6.690   4.450
  170SAPS  H18S19290   6.494   6.566   4.343
  170SAPS  C21919291   6.622   6.703   4.242
  170SAPS  H19R19292   6.526   6.743   4.202
  170SAPS  H19S19293   6.665   6.636   4.165
  170SAPS  C22019294   6.714   6.822   4.268
  170SAPS  H20R19295   6.718   6.889   4.179
  170SAPS  H20S19296   6.817   6.787   4.290
  170SAPS  H20T19297   6.677   6.881   4.354
  170SAPS   C3319298   6.628   6.202   5.503
  170SAPS   H3X19299   6.523   6.168   5.519
  170SAPS   H3Y19300   6.686   6.174   5.593
  170SAPS   C3419301   6.689   6.134   5.379
  170SAPS   H4X19302   6.799   6.153   5.380
  170SAPS   H4Y19303   6.649   6.183   5.288
  170SAPS   C3519304   6.665   5.982   5.368
  170SAPS   H5X19305   6.717   5.931   5.452
  170SAPS   H5Y19306   6.712   5.947   5.273
  170SAPS   C3619307   6.517   5.939   5.367
  170SAPS   H6X19308   6.480   5.946   5.472
  170SAPS   H6Y19309   6.511   5.832   5.337
  170SAPS   C3719310   6.424   6.024   5.279
  170SAPS   H7X19311   6.426   6.128   5.317
  170SAPS   H7Y19312   6.320   5.987   5.289
  170SAPS   C3819313   6.460   6.029   5.129
  170SAPS   H8X19314   6.565   6.063   5.116
  170SAPS   H8Y19315   6.394   6.106   5.083
  170SAPS   C3919316   6.438   5.898   5.055
  170SAPS   H9X19317   6.344   5.850   5.089
  170SAPS   H9Y19318   6.522   5.829   5.080
  170SAPS  C31019319   6.430   5.916   4.902
  170SAPS  H10X19320   6.451   5.817   4.856
  170SAPS  H10Y19321   6.513   5.983   4.869
  170SAPS  C31119322   6.294   5.969   4.852
  170SAPS  H11X19323   6.280   6.074   4.887
  170SAPS  H11Y19324   6.211   5.911   4.897
  170SAPS  C31219325   6.282   5.964   4.699
  170SAPS  H12X19326   6.222   5.874   4.673
  170SAPS  H12Y19327   6.384   5.951   4.657
  170SAPS  C31319328   6.219   6.085   4.629
  170SAPS  H13X19329   6.275   6.178   4.654
  170SAPS  H13Y19330   6.113   6.095   4.662
  170SAPS  C31419331   6.220   6.059   4.478
  170SAPS  H14X19332   6.138   5.986   4.462
  170SAPS  H14Y19333   6.319   6.013   4.456
  170SAPS  C31519334   6.204   6.168   4.373
  170SAPS  H15X19335   6.102   6.211   4.377
  170SAPS  H15Y19336   6.211   6.119   4.274
  170SAPS  C31619337   6.314   6.272   4.382
  170SAPS  H16X19338   6.384   6.261   4.296
  170SAPS  H16Y19339   6.375   6.247   4.472
  170SAPS  C31719340   6.268   6.417   4.395
  170SAPS  H17X19341   6.158   6.424   4.387
  170SAPS  H17Y19342   6.309   6.475   4.311
  170SAPS  C31819343   6.315   6.479   4.526
  170SAPS  H18X19344   6.318   6.590   4.515
  170SAPS  H18Y19345   6.419   6.453   4.553
  170SAPS  H18Z19346   6.248   6.451   4.611
  171SAPS     N19347   0.144   6.103   6.323
  171SAPS   HN119348   0.143   6.073   6.223
  171SAPS   HN219349   0.156   6.206   6.327
  171SAPS   HN319350   0.223   6.053   6.367
  171SAPS   C1219351   0.014   6.061   6.380
  171SAPS  H12A19352   0.030   5.969   6.434
  171SAPS   C1319353  -0.042   6.165   6.485
  171SAPS  O13A19354   0.037   6.255   6.524
  171SAPS  O13B19355  -0.131   6.121   6.563
  171SAPS   C1119356  -0.077   6.025   6.258
  171SAPS  H11A19357  -0.085   6.110   6.186
  171SAPS  H11B19358  -0.179   6.006   6.296
  171SAPS     P19359   0.058   5.889   6.065
  171SAPS   O1319360   0.128   5.759   6.066
  171SAPS   O1419361  -0.017   5.927   5.945
  171SAPS   O1219362  -0.028   5.905   6.197
  171SAPS   O1119363   0.167   6.001   6.090
  171SAPS    C119364   0.272   6.027   5.996
  171SAPS    HA19365   0.369   6.000   6.043
  171SAPS    HB19366   0.264   5.966   5.903
  171SAPS    C219367   0.274   6.176   5.956
  171SAPS    HS19368   0.258   6.237   6.047
  171SAPS   O2119369   0.173   6.199   5.858
  171SAPS   C2119370   0.052   6.227   5.902
  171SAPS   O2219371   0.026   6.266   6.015
  171SAPS   C2219372  -0.044   6.202   5.787
  171SAPS   H2R19373   0.016   6.194   5.694
  171SAPS   H2S19374  -0.093   6.103   5.805
  171SAPS    C319375   0.411   6.220   5.896
  171SAPS    HX19376   0.487   6.204   5.976
  171SAPS    HY19377   0.410   6.329   5.873
  171SAPS   O3119378   0.448   6.142   5.781
  171SAPS   C3119379   0.406   6.190   5.664
  171SAPS   O3219380   0.351   6.297   5.646
  171SAPS   C3219381   0.442   6.092   5.554
  171SAPS   H2X19382   0.551   6.074   5.557
  171SAPS   H2Y19383   0.417   6.140   5.457
  171SAPS   C2319384  -0.156   6.305   5.762
  171SAPS   H3R19385  -0.131   6.404   5.805
  171SAPS   H3S19386  -0.247   6.270   5.815
  171SAPS   C2419387  -0.185   6.314   5.611
  171SAPS   H4R19388  -0.291   6.346   5.604
  171SAPS   H4S19389  -0.178   6.214   5.564
  171SAPS   C2519390  -0.093   6.415   5.547
  171SAPS   H5R19391  -0.081   6.504   5.611
  171SAPS   C2619392  -0.024   6.416   5.432
  171SAPS   H6R19393   0.045   6.501   5.416
  171SAPS   C2719394  -0.008   6.320   5.319
  171SAPS   H7R19395  -0.030   6.371   5.222
  171SAPS   H7S19396  -0.084   6.240   5.330
  171SAPS   C2819397   0.134   6.267   5.324
  171SAPS   H8R19398   0.160   6.222   5.421
  171SAPS   C2919399   0.231   6.273   5.231
  171SAPS   H9R19400   0.330   6.232   5.257
  171SAPS  C21019401   0.223   6.338   5.096
  171SAPS  H10R19402   0.288   6.428   5.098
  171SAPS  H10S19403   0.120   6.375   5.074
  171SAPS  C21119404   0.275   6.249   4.986
  171SAPS  H11R19405   0.384   6.242   4.981
  171SAPS  C21219406   0.203   6.194   4.888
  171SAPS  H12R19407   0.253   6.134   4.811
  171SAPS  C21319408   0.054   6.212   4.869
  171SAPS  H13R19409   0.003   6.204   4.968
  171SAPS  H13S19410   0.012   6.131   4.806
  171SAPS  C21419411   0.024   6.347   4.810
  171SAPS  H14R19412  -0.042   6.410   4.871
  171SAPS  C21519413   0.069   6.397   4.693
  171SAPS  H15R19414   0.036   6.497   4.662
  171SAPS  C21619415   0.161   6.329   4.594
  171SAPS  H16R19416   0.123   6.346   4.491
  171SAPS  H16S19417   0.162   6.219   4.609
  171SAPS  C21719418   0.305   6.382   4.607
  171SAPS  H17R19419   0.344   6.361   4.708
  171SAPS  H17S19420   0.305   6.493   4.594
  171SAPS  C21819421   0.401   6.321   4.504
  171SAPS  H18R19422   0.402   6.211   4.515
  171SAPS  H18S19423   0.503   6.359   4.525
  171SAPS  C21919424   0.364   6.358   4.359
  171SAPS  H19R19425   0.330   6.463   4.359
  171SAPS  H19S19426   0.278   6.295   4.327
  171SAPS  C22019427   0.479   6.344   4.260
  171SAPS  H20R19428   0.514   6.239   4.253
  171SAPS  H20S19429   0.565   6.407   4.291
  171SAPS  H20T19430   0.447   6.376   4.158
  171SAPS   C3319431   0.363   5.961   5.572
  171SAPS   H3X19432   0.370   5.925   5.676
  171SAPS   H3Y19433   0.406   5.881   5.507
  171SAPS   C3419434   0.217   5.985   5.533
  171SAPS   H4X19435   0.211   5.989   5.422
  171SAPS   H4Y19436   0.184   6.083   5.573
  171SAPS   C3519437   0.118   5.882   5.589
  171SAPS   H5X19438   0.130   5.875   5.700
  171SAPS   H5Y19439   0.144   5.783   5.547
  171SAPS   C3619440  -0.028   5.921   5.560
  171SAPS   H6X19441  -0.060   5.998   5.633
  171SAPS   H6Y19442  -0.098   5.836   5.577
  171SAPS   C3719443  -0.052   5.979   5.420
  171SAPS   H7X19444   0.009   5.924   5.346
  171SAPS   H7Y19445  -0.011   6.082   5.425
  171SAPS   C3819446  -0.200   5.986   5.376
  171SAPS   H8X19447  -0.257   6.044   5.451
  171SAPS   H8Y19448  -0.244   5.884   5.375
  171SAPS   C3919449  -0.216   6.053   5.237
  171SAPS   H9X19450  -0.115   6.071   5.196
  171SAPS   H9Y19451  -0.264   6.152   5.252
  171SAPS  C31019452  -0.295   5.974   5.132
  171SAPS  H10X19453  -0.400   5.960   5.164
  171SAPS  H10Y19454  -0.249   5.873   5.121
  171SAPS  C31119455  -0.290   6.043   4.994
  171SAPS  H11X19456  -0.323   5.970   4.917
  171SAPS  H11Y19457  -0.184   6.068   4.972
  171SAPS  C31219458  -0.376   6.169   4.984
  171SAPS  H12X19459  -0.358   6.235   5.072
  171SAPS  H12Y19460  -0.483   6.139   4.987
  171SAPS  C31319461  -0.350   6.253   4.857
  171SAPS  H13X19462  -0.254   6.307   4.869
  171SAPS  H13Y19463  -0.430   6.328   4.846
  171SAPS  C31419464  -0.341   6.167   4.730
  171SAPS  H14X19465  -0.429   6.099   4.729
  171SAPS  H14Y19466  -0.249   6.105   4.733
  171SAPS  C31519467  -0.342   6.249   4.599
  171SAPS  H15X19468  -0.424   6.324   4.604
  171SAPS  H15Y19469  -0.362   6.178   4.516
  171SAPS  C31619470  -0.213   6.324   4.570
  171SAPS  H16X19471  -0.129   6.251   4.574
  171SAPS  H16Y19472  -0.199   6.399   4.651
  171SAPS  C31719473  -0.209   6.396   4.435
  171SAPS  H17X19474  -0.118   6.459   4.432
  171SAPS  H17Y19475  -0.297   6.464   4.428
  171SAPS  C31819476  -0.207   6.302   4.315
  171SAPS  H18X19477  -0.302   6.244   4.309
  171SAPS  H18Y19478  -0.123   6.230   4.322
  171SAPS  H18Z19479  -0.196   6.361   4.221
  172SAPS     N19480   7.038   6.599   6.479
  172SAPS   HN119481   6.959   6.544   6.439
  172SAPS   HN219482   7.130   6.567   6.442
  172SAPS   HN319483   7.039   6.595   6.583
  172SAPS   C1219484   7.020   6.741   6.438
  172SAPS  H12A19485   6.960   6.791   6.513
  172SAPS   C1319486   7.153   6.818   6.423
  172SAPS  O13A19487   7.262   6.753   6.426
  172SAPS  O13B19488   7.148   6.940   6.453
  172SAPS   C1119489   6.940   6.738   6.306
  172SAPS  H11A19490   6.997   6.683   6.228
  172SAPS  H11B19491   6.924   6.841   6.267
  172SAPS     P19492   6.741   6.583   6.231
  172SAPS   O1319493   6.842   6.485   6.188
  172SAPS   O1419494   6.618   6.536   6.299
  172SAPS   O1219495   6.813   6.678   6.335
  172SAPS   O1119496   6.705   6.685   6.115
  172SAPS    C119497   6.606   6.785   6.142
  172SAPS    HA19498   6.505   6.739   6.134
  172SAPS    HB19499   6.616   6.828   6.244
  172SAPS    C219500   6.612   6.904   6.042
  172SAPS    HS19501   6.525   6.969   6.066
  172SAPS   O2119502   6.593   6.850   5.910
  172SAPS   C2119503   6.600   6.934   5.809
  172SAPS   O2219504   6.612   7.055   5.817
  172SAPS   C2219505   6.580   6.859   5.678
  172SAPS   H2R19506   6.579   6.749   5.698
  172SAPS   H2S19507   6.481   6.888   5.637
  172SAPS    C319508   6.741   6.991   6.062
  172SAPS    HX19509   6.756   7.003   6.171
  172SAPS    HY19510   6.722   7.093   6.022
  172SAPS   O3119511   6.858   6.929   6.007
  172SAPS   C3119512   6.930   6.997   5.919
  172SAPS   O3219513   6.916   7.115   5.892
  172SAPS   C3219514   7.028   6.901   5.855
  172SAPS   H2X19515   6.987   6.798   5.865
  172SAPS   H2Y19516   7.123   6.906   5.912
  172SAPS   C2319517   6.692   6.892   5.577
  172SAPS   H3R19518   6.788   6.856   5.621
  172SAPS   H3S19519   6.701   7.002   5.563
  172SAPS   C2419520   6.676   6.823   5.441
  172SAPS   H4R19521   6.663   6.714   5.458
  172SAPS   H4S19522   6.771   6.837   5.385
  172SAPS   C2519523   6.559   6.879   5.366
  172SAPS   H5R19524   6.463   6.840   5.404
  172SAPS   C2619525   6.558   6.960   5.259
  172SAPS   H6R19526   6.462   6.999   5.223
  172SAPS   C2719527   6.677   7.015   5.185
  172SAPS   H7R19528   6.675   6.968   5.085
  172SAPS   H7S19529   6.769   6.980   5.237
  172SAPS   C2819530   6.693   7.162   5.161
  172SAPS   H8R19531   6.634   7.198   5.075
  172SAPS   C2919532   6.775   7.248   5.224
  172SAPS   H9R19533   6.778   7.353   5.190
  172SAPS  C21019534   6.871   7.220   5.337
  172SAPS  H10R19535   6.845   7.125   5.389
  172SAPS  H10S19536   6.863   7.299   5.415
  172SAPS  C21119537   7.009   7.218   5.276
  172SAPS  H11R19538   7.046   7.317   5.245
  172SAPS  C21219539   7.087   7.111   5.258
  172SAPS  H12R19540   7.186   7.123   5.211
  172SAPS  C21319541   7.050   6.971   5.299
  172SAPS  H13R19542   6.941   6.960   5.315
  172SAPS  H13S19543   7.092   6.956   5.400
  172SAPS  C21419544   7.096   6.856   5.213
  172SAPS  H14R19545   7.179   6.800   5.260
  172SAPS  C21519546   7.047   6.800   5.102
  172SAPS  H15R19547   7.096   6.710   5.063
  172SAPS  C21619548   6.927   6.837   5.025
  172SAPS  H16R19549   6.849   6.868   5.098
  172SAPS  H16S19550   6.890   6.744   4.978
  172SAPS  C21719551   6.939   6.939   4.912
  172SAPS  H17R19552   7.010   7.020   4.938
  172SAPS  H17S19553   6.839   6.986   4.898
  172SAPS  C21819554   6.977   6.865   4.784
  172SAPS  H18R19555   6.905   6.783   4.767
  172SAPS  H18S19556   7.078   6.819   4.794
  172SAPS  C21919557   6.971   6.955   4.662
  172SAPS  H19R19558   7.068   7.009   4.659
  172SAPS  H19S19559   6.889   7.030   4.676
  172SAPS  C22019560   6.946   6.880   4.532
  172SAPS  H20R19561   6.852   6.821   4.537
  172SAPS  H20S19562   7.029   6.810   4.511
  172SAPS  H20T19563   6.936   6.952   4.447
  172SAPS   C3319564   7.056   6.930   5.706
  172SAPS   H3X19565   7.122   7.018   5.699
  172SAPS   H3Y19566   6.963   6.955   5.650
  172SAPS   C3419567   7.124   6.809   5.640
  172SAPS   H4X19568   7.204   6.775   5.710
  172SAPS   H4Y19569   7.174   6.842   5.547
  172SAPS   C3519570   7.030   6.691   5.609
  172SAPS   H5X19571   6.932   6.705   5.658
  172SAPS   H5Y19572   7.074   6.598   5.653
  172SAPS   C3619573   7.010   6.669   5.458
  172SAPS   H6X19574   7.109   6.658   5.408
  172SAPS   H6Y19575   6.958   6.758   5.417
  172SAPS   C3719576   6.925   6.546   5.424
  172SAPS   H7X19577   6.831   6.554   5.482
  172SAPS   H7Y19578   6.980   6.456   5.460
  172SAPS   C3819579   6.896   6.518   5.276
  172SAPS   H8X19580   6.878   6.410   5.264
  172SAPS   H8Y19581   6.986   6.543   5.215
  172SAPS   C3919582   6.773   6.591   5.219
  172SAPS   H9X19583   6.793   6.700   5.222
  172SAPS   H9Y19584   6.684   6.571   5.283
  172SAPS  C31019585   6.742   6.549   5.075
  172SAPS  H10X19586   6.694   6.449   5.075
  172SAPS  H10Y19587   6.839   6.538   5.021
  172SAPS  C31119588   6.655   6.649   4.997
  172SAPS  H11X19589   6.688   6.754   5.012
  172SAPS  H11Y19590   6.553   6.648   5.039
  172SAPS  C31219591   6.661   6.617   4.846
  172SAPS  H12X19592   6.659   6.506   4.833
  172SAPS  H12Y19593   6.759   6.650   4.806
  172SAPS  C31319594   6.549   6.675   4.758
  172SAPS  H13X19595   6.450   6.631   4.783
  172SAPS  H13Y19596   6.567   6.645   4.653
  172SAPS  C31419597   6.532   6.826   4.767
  172SAPS  H14X19598   6.551   6.863   4.870
  172SAPS  H14Y19599   6.425   6.849   4.744
  172SAPS  C31519600   6.620   6.900   4.667
  172SAPS  H15X19601   6.625   6.842   4.572
  172SAPS  H15Y19602   6.723   6.905   4.710
  172SAPS  C31619603   6.567   7.039   4.636
  172SAPS  H16X19604   6.457   7.024   4.623
  172SAPS  H16Y19605   6.584   7.107   4.722
  172SAPS  C31719606   6.617   7.100   4.505
  172SAPS  H17X19607   6.559   7.055   4.421
  172SAPS  H17Y19608   6.724   7.074   4.490
  172SAPS  C31819609   6.601   7.252   4.501
  172SAPS  H18X19610   6.674   7.297   4.571
  172SAPS  H18Y19611   6.499   7.282   4.534
  172SAPS  H18Z19612   6.618   7.292   4.399
  173SAPS     N19613   4.981   3.668   2.412
  173SAPS   HN119614   5.025   3.576   2.433
  173SAPS   HN219615   5.020   3.741   2.475
  173SAPS   HN319616   4.878   3.658   2.420
  173SAPS   C1219617   5.019   3.706   2.272
  173SAPS  H12A19618   4.939   3.766   2.231
  173SAPS   C1319619   5.147   3.791   2.266
  173SAPS  O13A19620   5.207   3.816   2.375
  173SAPS  O13B19621   5.195   3.818   2.153
  173SAPS   C1119622   5.040   3.577   2.186
  173SAPS  H11A19623   5.136   3.530   2.218
  173SAPS  H11B19624   5.053   3.606   2.080
  173SAPS     P19625   4.787   3.509   2.162
  173SAPS   O1319626   4.777   3.617   2.061
  173SAPS   O1419627   4.716   3.382   2.135
  173SAPS   O1219628   4.937   3.480   2.200
  173SAPS   O1119629   4.739   3.570   2.298
  173SAPS    C119630   4.702   3.488   2.409
  173SAPS    HA19631   4.633   3.406   2.379
  173SAPS    HB19632   4.791   3.443   2.458
  173SAPS    C219633   4.628   3.578   2.509
  173SAPS    HS19634   4.539   3.612   2.452
  173SAPS   O2119635   4.717   3.689   2.538
  173SAPS   C2119636   4.650   3.793   2.582
  173SAPS   O2219637   4.530   3.797   2.603
  173SAPS   C2219638   4.738   3.918   2.579
  173SAPS   H2R19639   4.794   3.919   2.483
  173SAPS   H2S19640   4.668   4.004   2.580
  173SAPS    C319641   4.575   3.503   2.635
  173SAPS    HX19642   4.583   3.394   2.613
  173SAPS    HY19643   4.467   3.527   2.648
  173SAPS   O3119644   4.649   3.535   2.754
  173SAPS   C3119645   4.614   3.459   2.857
  173SAPS   O3219646   4.513   3.392   2.866
  173SAPS   C3219647   4.723   3.466   2.962
  173SAPS   H2X19648   4.678   3.433   3.059
  173SAPS   H2Y19649   4.756   3.572   2.972
  173SAPS   C2319650   4.835   3.932   2.698
  173SAPS   H3R19651   4.924   3.868   2.678
  173SAPS   H3S19652   4.788   3.895   2.792
  173SAPS   C2419653   4.877   4.079   2.722
  173SAPS   H4R19654   4.803   4.125   2.791
  173SAPS   H4S19655   4.867   4.136   2.627
  173SAPS   C2519656   5.017   4.098   2.773
  173SAPS   H5R19657   5.094   4.112   2.696
  173SAPS   C2619658   5.054   4.099   2.902
  173SAPS   H6R19659   5.160   4.115   2.927
  173SAPS   C2719660   4.963   4.080   3.021
  173SAPS   H7R19661   5.015   4.016   3.096
  173SAPS   H7S19662   4.872   4.022   2.992
  173SAPS   C2819663   4.920   4.208   3.086
  173SAPS   H8R19664   4.935   4.300   3.026
  173SAPS   C2919665   4.863   4.218   3.207
  173SAPS   H9R19666   4.837   4.319   3.242
  173SAPS  C21019667   4.832   4.103   3.302
  173SAPS  H10R19668   4.926   4.051   3.329
  173SAPS  H10S19669   4.767   4.028   3.253
  173SAPS  C21119670   4.767   4.157   3.427
  173SAPS  H11R19671   4.769   4.267   3.432
  173SAPS  C21219672   4.698   4.100   3.527
  173SAPS  H12R19673   4.666   4.169   3.606
  173SAPS  C21319674   4.658   3.958   3.555
  173SAPS  H13R19675   4.740   3.909   3.612
  173SAPS  H13S19676   4.645   3.900   3.461
  173SAPS  C21419677   4.535   3.951   3.643
  173SAPS  H14R19678   4.445   3.911   3.593
  173SAPS  C21519679   4.524   3.994   3.770
  173SAPS  H15R19680   4.426   3.991   3.820
  173SAPS  C21619681   4.632   4.055   3.857
  173SAPS  H16R19682   4.625   4.166   3.863
  173SAPS  H16S19683   4.732   4.032   3.813
  173SAPS  C21719684   4.629   3.995   3.999
  173SAPS  H17R19685   4.735   3.986   4.032
  173SAPS  H17S19686   4.588   3.892   3.994
  173SAPS  C21819687   4.550   4.066   4.109
  173SAPS  H18R19688   4.452   4.099   4.068
  173SAPS  H18S19689   4.604   4.156   4.146
  173SAPS  C21919690   4.514   3.974   4.227
  173SAPS  H19R19691   4.524   3.868   4.195
  173SAPS  H19S19692   4.406   3.988   4.252
  173SAPS  C22019693   4.596   3.996   4.353
  173SAPS  H20R19694   4.704   3.986   4.333
  173SAPS  H20S19695   4.568   3.920   4.429
  173SAPS  H20T19696   4.576   4.097   4.394
  173SAPS   C3319697   4.841   3.372   2.926
  173SAPS   H3X19698   4.804   3.267   2.923
  173SAPS   H3Y19699   4.916   3.377   3.008
  173SAPS   C3419700   4.912   3.402   2.792
  173SAPS   H4X19701   4.845   3.375   2.707
  173SAPS   H4Y19702   5.001   3.336   2.788
  173SAPS   C3519703   4.963   3.546   2.770
  173SAPS   H5X19704   4.878   3.614   2.752
  173SAPS   H5Y19705   5.029   3.547   2.681
  173SAPS   C3619706   5.041   3.594   2.892
  173SAPS   H6X19707   5.120   3.519   2.916
  173SAPS   H6Y19708   4.969   3.594   2.976
  173SAPS   C3719709   5.103   3.733   2.880
  173SAPS   H7X19710   5.021   3.805   2.858
  173SAPS   H7Y19711   5.176   3.737   2.797
  173SAPS   C3819712   5.169   3.778   3.011
  173SAPS   H8X19713   5.192   3.887   3.006
  173SAPS   H8Y19714   5.266   3.726   3.026
  173SAPS   C3919715   5.080   3.751   3.133
  173SAPS   H9X19716   5.070   3.641   3.148
  173SAPS   H9Y19717   4.979   3.792   3.115
  173SAPS  C31019718   5.135   3.806   3.264
  173SAPS  H10X19719   5.148   3.916   3.256
  173SAPS  H10Y19720   5.234   3.761   3.284
  173SAPS  C31119721   5.040   3.774   3.379
  173SAPS  H11X19722   5.014   3.666   3.379
  173SAPS  H11Y19723   4.946   3.831   3.365
  173SAPS  C31219724   5.103   3.810   3.513
  173SAPS  H12X19725   5.164   3.903   3.501
  173SAPS  H12Y19726   5.172   3.729   3.544
  173SAPS  C31319727   4.999   3.838   3.622
  173SAPS  H13X19728   4.943   3.929   3.590
  173SAPS  H13Y19729   5.052   3.865   3.715
  173SAPS  C31419730   4.899   3.724   3.648
  173SAPS  H14X19731   4.836   3.707   3.558
  173SAPS  H14Y19732   4.830   3.756   3.729
  173SAPS  C31519733   4.961   3.590   3.689
  173SAPS  H15X19734   5.003   3.540   3.599
  173SAPS  H15Y19735   4.880   3.524   3.729
  173SAPS  C31619736   5.071   3.603   3.795
  173SAPS  H16X19737   5.162   3.648   3.748
  173SAPS  H16Y19738   5.097   3.500   3.828
  173SAPS  C31719739   5.035   3.682   3.920
  173SAPS  H17X19740   4.962   3.621   3.978
  173SAPS  H17Y19741   4.985   3.777   3.893
  173SAPS  C31819742   5.155   3.715   4.009
  173SAPS  H18X19743   5.125   3.784   4.091
  173SAPS  H18Y19744   5.235   3.765   3.949
  173SAPS  H18Z19745   5.198   3.623   4.054
  174SAPS     N19746   1.725   3.101   2.063
  174SAPS   HN119747   1.825   3.114   2.038
  174SAPS   HN219748   1.688   3.011   2.024
  174SAPS   HN319749   1.671   3.185   2.033
  174SAPS   C1219750   1.722   3.090   2.211
  174SAPS  H12A19751   1.783   3.005   2.238
  174SAPS   C1319752   1.785   3.212   2.282
  174SAPS  O13A19753   1.829   3.307   2.211
  174SAPS  O13B19754   1.836   3.183   2.393
  174SAPS   C1119755   1.574   3.066   2.257
  174SAPS  H11A19756   1.520   3.163   2.252
  174SAPS  H11B19757   1.577   3.038   2.365
  174SAPS     P19758   1.562   2.824   2.154
  174SAPS   O1319759   1.455   2.721   2.149
  174SAPS   O1419760   1.644   2.841   2.032
  174SAPS   O1219761   1.501   2.968   2.181
  174SAPS   O1119762   1.661   2.804   2.275
  174SAPS    C119763   1.644   2.711   2.381
  174SAPS    HA19764   1.540   2.671   2.386
  174SAPS    HB19765   1.712   2.625   2.361
  174SAPS    C219766   1.683   2.767   2.523
  174SAPS    HS19767   1.656   2.691   2.600
  174SAPS   O2119768   1.616   2.891   2.553
  174SAPS   C2119769   1.487   2.885   2.576
  174SAPS   O2219770   1.413   2.790   2.554
  174SAPS   C2219771   1.445   3.019   2.640
  174SAPS   H2R19772   1.518   3.039   2.721
  174SAPS   H2S19773   1.459   3.097   2.562
  174SAPS    C319774   1.837   2.789   2.535
  174SAPS    HX19775   1.869   2.841   2.442
  174SAPS    HY19776   1.889   2.691   2.538
  174SAPS   O3119777   1.876   2.873   2.646
  174SAPS   C3119778   1.845   2.826   2.766
  174SAPS   O3219779   1.809   2.712   2.791
  174SAPS   C3219780   1.859   2.938   2.868
  174SAPS   H2X19781   1.801   3.026   2.831
  174SAPS   H2Y19782   1.966   2.967   2.873
  174SAPS   C2319783   1.299   3.026   2.695
  174SAPS   H3R19784   1.253   2.926   2.684
  174SAPS   H3S19785   1.243   3.094   2.626
  174SAPS   C2419786   1.278   3.070   2.843
  174SAPS   H4R19787   1.375   3.091   2.892
  174SAPS   H4S19788   1.240   2.980   2.897
  174SAPS   C2519789   1.177   3.184   2.855
  174SAPS   H5R19790   1.082   3.152   2.809
  174SAPS   C2619791   1.172   3.301   2.924
  174SAPS   H6R19792   1.078   3.358   2.921
  174SAPS   C2719793   1.274   3.356   3.021
  174SAPS   H7R19794   1.367   3.295   3.013
  174SAPS   H7S19795   1.232   3.313   3.114
  174SAPS   C2819796   1.309   3.496   3.066
  174SAPS   H8R19797   1.257   3.573   3.007
  174SAPS   C2919798   1.389   3.536   3.170
  174SAPS   H9R19799   1.391   3.644   3.189
  174SAPS  C21019800   1.472   3.463   3.276
  174SAPS  H10R19801   1.579   3.476   3.248
  174SAPS  H10S19802   1.460   3.353   3.266
  174SAPS  C21119803   1.464   3.505   3.422
  174SAPS  H11R19804   1.430   3.609   3.432
  174SAPS  C21219805   1.482   3.439   3.540
  174SAPS  H12R19806   1.467   3.499   3.631
  174SAPS  C21319807   1.518   3.295   3.577
  174SAPS  H13R19808   1.595   3.294   3.658
  174SAPS  H13S19809   1.563   3.240   3.492
  174SAPS  C21419810   1.390   3.228   3.626
  174SAPS  H14R19811   1.305   3.297   3.632
  174SAPS  C21519812   1.358   3.101   3.657
  174SAPS  H15R19813   1.252   3.085   3.683
  174SAPS  C21619814   1.433   2.969   3.660
  174SAPS  H16R19815   1.533   2.982   3.706
  174SAPS  H16S19816   1.449   2.927   3.558
  174SAPS  C21719817   1.343   2.871   3.742
  174SAPS  H17R19818   1.270   2.824   3.673
  174SAPS  H17S19819   1.284   2.926   3.818
  174SAPS  C21819820   1.412   2.761   3.824
  174SAPS  H18R19821   1.447   2.679   3.757
  174SAPS  H18S19822   1.336   2.717   3.892
  174SAPS  C21919823   1.530   2.810   3.908
  174SAPS  H19R19824   1.616   2.819   3.839
  174SAPS  H19S19825   1.558   2.733   3.983
  174SAPS  C22019826   1.508   2.944   3.981
  174SAPS  H20R19827   1.605   2.983   4.018
  174SAPS  H20S19828   1.437   2.932   4.066
  174SAPS  H20T19829   1.467   3.022   3.913
  174SAPS   C3319830   1.810   2.895   3.008
  174SAPS   H3X19831   1.847   2.794   3.033
  174SAPS   H3Y19832   1.699   2.894   3.007
  174SAPS   C3419833   1.858   2.990   3.118
  174SAPS   H4X19834   1.829   3.092   3.085
  174SAPS   H4Y19835   1.969   2.988   3.124
  174SAPS   C3519836   1.798   2.964   3.257
  174SAPS   H5X19837   1.690   2.936   3.250
  174SAPS   H5Y19838   1.803   3.060   3.312
  174SAPS   C3619839   1.873   2.856   3.337
  174SAPS   H6X19840   1.982   2.871   3.322
  174SAPS   H6Y19841   1.848   2.756   3.296
  174SAPS   C3719842   1.847   2.858   3.489
  174SAPS   H7X19843   1.913   2.782   3.536
  174SAPS   H7Y19844   1.742   2.829   3.511
  174SAPS   C3819845   1.874   2.995   3.551
  174SAPS   H8X19846   1.781   3.057   3.549
  174SAPS   H8Y19847   1.949   3.047   3.488
  174SAPS   C3919848   1.932   2.992   3.693
  174SAPS   H9X19849   1.951   3.097   3.723
  174SAPS   H9Y19850   2.029   2.938   3.689
  174SAPS  C31019851   1.847   2.928   3.802
  174SAPS  H10X19852   1.833   2.820   3.777
  174SAPS  H10Y19853   1.747   2.977   3.804
  174SAPS  C31119854   1.915   2.940   3.939
  174SAPS  H11X19855   1.910   3.045   3.975
  174SAPS  H11Y19856   2.021   2.914   3.925
  174SAPS  C31219857   1.860   2.845   4.045
  174SAPS  H12X19858   1.827   2.754   3.991
  174SAPS  H12Y19859   1.772   2.887   4.098
  174SAPS  C31319860   1.968   2.801   4.146
  174SAPS  H13X19861   2.048   2.759   4.082
  174SAPS  H13Y19862   1.931   2.718   4.210
  174SAPS  C31419863   2.030   2.911   4.234
  174SAPS  H14X19864   2.019   3.010   4.185
  174SAPS  H14Y19865   2.139   2.892   4.242
  174SAPS  C31519866   1.973   2.914   4.376
  174SAPS  H15X19867   2.016   2.999   4.432
  174SAPS  H15Y19868   2.004   2.821   4.428
  174SAPS  C31619869   1.820   2.922   4.380
  174SAPS  H16X19870   1.788   2.908   4.485
  174SAPS  H16Y19871   1.777   2.837   4.323
  174SAPS  C31719872   1.766   3.054   4.322
  174SAPS  H17X19873   1.823   3.079   4.229
  174SAPS  H17Y19874   1.784   3.136   4.394
  174SAPS  C31819875   1.619   3.048   4.284
  174SAPS  H18X19876   1.554   3.045   4.374
  174SAPS  H18Y19877   1.599   2.955   4.227
  174SAPS  H18Z19878   1.590   3.135   4.222
  175SAPS     N19879   5.307   1.867   2.122
  175SAPS   HN119880   5.243   1.890   2.200
  175SAPS   HN219881   5.276   1.913   2.034
  175SAPS   HN319882   5.311   1.765   2.103
  175SAPS   C1219883   5.447   1.916   2.149
  175SAPS  H12A19884   5.483   1.868   2.238
  175SAPS   C1319885   5.544   1.877   2.033
  175SAPS  O13A19886   5.497   1.811   1.936
  175SAPS  O13B19887   5.668   1.896   2.045
  175SAPS   C1119888   5.441   2.071   2.174
  175SAPS  H11A19889   5.336   2.106   2.174
  175SAPS  H11B19890   5.492   2.124   2.091
  175SAPS     P19891   5.481   2.253   2.356
  175SAPS   O1319892   5.582   2.282   2.459
  175SAPS   O1419893   5.477   2.346   2.241
  175SAPS   O1219894   5.503   2.105   2.299
  175SAPS   O1119895   5.338   2.238   2.422
  175SAPS    C119896   5.313   2.146   2.529
  175SAPS    HA19897   5.225   2.084   2.502
  175SAPS    HB19898   5.398   2.076   2.548
  175SAPS    C219899   5.281   2.220   2.662
  175SAPS    HS19900   5.198   2.290   2.637
  175SAPS   O2119901   5.398   2.290   2.705
  175SAPS   C2119902   5.373   2.393   2.782
  175SAPS   O2219903   5.263   2.438   2.809
  175SAPS   C2219904   5.503   2.445   2.839
  175SAPS   H2R19905   5.589   2.398   2.786
  175SAPS   H2S19906   5.507   2.555   2.822
  175SAPS    C319907   5.232   2.124   2.776
  175SAPS    HX19908   5.137   2.078   2.740
  175SAPS    HY19909   5.205   2.186   2.864
  175SAPS   O3119910   5.327   2.019   2.806
  175SAPS   C3119911   5.393   2.029   2.922
  175SAPS   O3219912   5.373   2.112   3.008
  175SAPS   C3219913   5.489   1.910   2.939
  175SAPS   H2X19914   5.472   1.837   2.857
  175SAPS   H2Y19915   5.461   1.863   3.035
  175SAPS   C2319916   5.509   2.415   2.990
  175SAPS   H3R19917   5.524   2.306   3.007
  175SAPS   H3S19918   5.412   2.441   3.038
  175SAPS   C2419919   5.619   2.494   3.061
  175SAPS   H4R19920   5.609   2.484   3.171
  175SAPS   H4S19921   5.606   2.601   3.037
  175SAPS   C2519922   5.752   2.445   3.013
  175SAPS   H5R19923   5.783   2.490   2.918
  175SAPS   C2619924   5.832   2.351   3.067
  175SAPS   H6R19925   5.929   2.334   3.018
  175SAPS   C2719926   5.818   2.264   3.189
  175SAPS   H7R19927   5.869   2.314   3.275
  175SAPS   H7S19928   5.882   2.175   3.172
  175SAPS   C2819929   5.682   2.216   3.229
  175SAPS   H8R19930   5.644   2.131   3.170
  175SAPS   C2919931   5.602   2.265   3.324
  175SAPS   H9R19932   5.506   2.214   3.340
  175SAPS  C21019933   5.630   2.383   3.414
  175SAPS  H10R19934   5.570   2.469   3.378
  175SAPS  H10S19935   5.736   2.417   3.405
  175SAPS  C21119936   5.597   2.360   3.558
  175SAPS  H11R19937   5.683   2.361   3.627
  175SAPS  C21219938   5.473   2.339   3.604
  175SAPS  H12R19939   5.456   2.322   3.711
  175SAPS  C21319940   5.350   2.336   3.515
  175SAPS  H13R19941   5.310   2.233   3.514
  175SAPS  H13S19942   5.372   2.358   3.409
  175SAPS  C21419943   5.248   2.437   3.558
  175SAPS  H14R19944   5.261   2.537   3.516
  175SAPS  C21519945   5.149   2.415   3.646
  175SAPS  H15R19946   5.078   2.495   3.668
  175SAPS  C21619947   5.128   2.284   3.716
  175SAPS  H16R19948   5.186   2.201   3.670
  175SAPS  H16S19949   5.022   2.250   3.713
  175SAPS  C21719950   5.170   2.301   3.861
  175SAPS  H17R19951   5.276   2.335   3.866
  175SAPS  H17S19952   5.165   2.202   3.911
  175SAPS  C21819953   5.080   2.398   3.938
  175SAPS  H18R19954   4.977   2.357   3.934
  175SAPS  H18S19955   5.079   2.499   3.892
  175SAPS  C21919956   5.127   2.410   4.082
  175SAPS  H19R19957   5.160   2.309   4.115
  175SAPS  H19S19958   5.041   2.441   4.146
  175SAPS  C22019959   5.240   2.510   4.102
  175SAPS  H20R19960   5.321   2.491   4.029
  175SAPS  H20S19961   5.282   2.504   4.205
  175SAPS  H20T19962   5.201   2.613   4.085
  175SAPS   C3319963   5.638   1.951   2.943
  175SAPS   H3X19964   5.653   2.046   3.000
  175SAPS   H3Y19965   5.672   1.973   2.839
  175SAPS   C3419966   5.732   1.844   3.002
  175SAPS   H4X19967   5.838   1.875   2.984
  175SAPS   H4Y19968   5.715   1.752   2.942
  175SAPS   C3519969   5.716   1.806   3.151
  175SAPS   H5X19970   5.772   1.711   3.167
  175SAPS   H5Y19971   5.609   1.783   3.172
  175SAPS   C3619972   5.770   1.908   3.253
  175SAPS   H6X19973   5.681   1.965   3.289
  175SAPS   H6Y19974   5.839   1.977   3.200
  175SAPS   C3719975   5.844   1.855   3.378
  175SAPS   H7X19976   5.949   1.832   3.352
  175SAPS   H7Y19977   5.797   1.760   3.412
  175SAPS   C3819978   5.838   1.956   3.495
  175SAPS   H8X19979   5.735   1.995   3.504
  175SAPS   H8Y19980   5.904   2.042   3.472
  175SAPS   C3919981   5.878   1.895   3.631
  175SAPS   H9X19982   5.980   1.853   3.623
  175SAPS   H9Y19983   5.809   1.811   3.655
  175SAPS  C31019984   5.876   1.993   3.751
  175SAPS  H10X19985   5.955   2.069   3.735
  175SAPS  H10Y19986   5.903   1.935   3.842
  175SAPS  C31119987   5.743   2.066   3.779
  175SAPS  H11X19988   5.657   1.995   3.778
  175SAPS  H11Y19989   5.726   2.140   3.698
  175SAPS  C31219990   5.747   2.137   3.916
  175SAPS  H12X19991   5.853   2.169   3.928
  175SAPS  H12Y19992   5.725   2.066   3.998
  175SAPS  C31319993   5.663   2.266   3.928
  175SAPS  H13X19994   5.669   2.322   3.832
  175SAPS  H13Y19995   5.709   2.331   4.005
  175SAPS  C31419996   5.517   2.247   3.968
  175SAPS  H14X19997   5.467   2.181   3.894
  175SAPS  H14Y19998   5.468   2.346   3.964
  175SAPS  C31519999   5.496   2.191   4.110
  175SAPS  H15X20000   5.538   2.088   4.116
  175SAPS  H15Y20001   5.387   2.182   4.129
  175SAPS  C31620002   5.555   2.277   4.222
  175SAPS  H16X20003   5.509   2.378   4.219
  175SAPS  H16Y20004   5.664   2.289   4.208
  175SAPS  C31720005   5.530   2.214   4.359
  175SAPS  H17X20006   5.580   2.115   4.362
  175SAPS  H17Y20007   5.421   2.196   4.371
  175SAPS  C31820008   5.580   2.301   4.473
  175SAPS  H18X20009   5.535   2.402   4.467
  175SAPS  H18Y20010   5.690   2.313   4.470
  175SAPS  H18Z20011   5.550   2.256   4.570
  176SAPS     N20012   3.712   1.155   2.075
  176SAPS   HN120013   3.726   1.052   2.063
  176SAPS   HN220014   3.630   1.184   2.019
  176SAPS   HN320015   3.796   1.208   2.045
  176SAPS   C1220016   3.683   1.177   2.220
  176SAPS  H12A20017   3.778   1.184   2.271
  176SAPS   C1320018   3.602   1.306   2.250
  176SAPS  O13A20019   3.557   1.374   2.153
  176SAPS  O13B20020   3.566   1.326   2.368
  176SAPS   C1120021   3.606   1.053   2.274
  176SAPS  H11A20022   3.497   1.068   2.260
  176SAPS  H11B20023   3.622   1.050   2.384
  176SAPS     P20024   3.556   0.842   2.129
  176SAPS   O1320025   3.500   0.932   2.025
  176SAPS   O1420026   3.627   0.722   2.080
  176SAPS   O1220027   3.656   0.931   2.215
  176SAPS   O1120028   3.444   0.810   2.234
  176SAPS    C120029   3.321   0.750   2.194
  176SAPS    HA20030   3.265   0.818   2.126
  176SAPS    HB20031   3.339   0.655   2.139
  176SAPS    C220032   3.230   0.716   2.316
  176SAPS    HS20033   3.127   0.696   2.279
  176SAPS   O2120034   3.226   0.822   2.414
  176SAPS   C2120035   3.175   0.937   2.375
  176SAPS   O2220036   3.131   0.962   2.264
  176SAPS   C2220037   3.161   1.033   2.493
  176SAPS   H2R20038   3.256   1.037   2.551
  176SAPS   H2S20039   3.144   1.134   2.451
  176SAPS    C320040   3.279   0.584   2.383
  176SAPS    HX20041   3.280   0.505   2.305
  176SAPS    HY20042   3.207   0.551   2.460
  176SAPS   O3120043   3.413   0.597   2.433
  176SAPS   C3120044   3.420   0.641   2.558
  176SAPS   O3220045   3.327   0.652   2.635
  176SAPS   C3220046   3.564   0.676   2.591
  176SAPS   H2X20047   3.630   0.613   2.527
  176SAPS   H2Y20048   3.578   0.647   2.698
  176SAPS   C2320049   3.042   0.994   2.584
  176SAPS   H3R20050   2.988   0.906   2.543
  176SAPS   H3S20051   2.969   1.078   2.584
  176SAPS   C2420052   3.083   0.963   2.729
  176SAPS   H4R20053   3.141   1.048   2.772
  176SAPS   H4S20054   3.152   0.876   2.727
  176SAPS   C2520055   2.959   0.932   2.808
  176SAPS   H5R20056   2.878   0.887   2.749
  176SAPS   C2620057   2.936   0.949   2.939
  176SAPS   H6R20058   2.838   0.919   2.980
  176SAPS   C2720059   3.032   1.004   3.042
  176SAPS   H7R20060   3.133   1.021   2.998
  176SAPS   H7S20061   3.045   0.929   3.123
  176SAPS   C2820062   2.978   1.134   3.097
  176SAPS   H8R20063   2.910   1.190   3.032
  176SAPS   C2920064   3.009   1.185   3.217
  176SAPS   H9R20065   2.969   1.284   3.244
  176SAPS  C21020066   3.102   1.124   3.319
  176SAPS  H10R20067   3.132   1.203   3.391
  176SAPS  H10S20068   3.195   1.092   3.268
  176SAPS  C21120069   3.043   1.008   3.393
  176SAPS  H11R20070   2.941   0.978   3.367
  176SAPS  C21220071   3.108   0.942   3.490
  176SAPS  H12R20072   3.056   0.858   3.540
  176SAPS  C21320073   3.248   0.973   3.538
  176SAPS  H13R20074   3.239   1.009   3.643
  176SAPS  H13S20075   3.291   1.058   3.481
  176SAPS  C21420076   3.347   0.860   3.530
  176SAPS  H14R20077   3.398   0.850   3.434
  176SAPS  C21520078   3.375   0.774   3.629
  176SAPS  H15R20079   3.447   0.693   3.609
  176SAPS  C21620080   3.312   0.774   3.766
  176SAPS  H16R20081   3.300   0.878   3.802
  176SAPS  H16S20082   3.377   0.723   3.839
  176SAPS  C21720083   3.174   0.706   3.768
  176SAPS  H17R20084   3.185   0.597   3.752
  176SAPS  H17S20085   3.110   0.741   3.684
  176SAPS  C21820086   3.099   0.729   3.899
  176SAPS  H18R20087   3.169   0.766   3.978
  176SAPS  H18S20088   3.057   0.633   3.934
  176SAPS  C21920089   2.981   0.826   3.883
  176SAPS  H19R20090   2.921   0.793   3.795
  176SAPS  H19S20091   3.020   0.927   3.861
  176SAPS  C22020092   2.892   0.826   4.006
  176SAPS  H20R20093   2.864   0.723   4.035
  176SAPS  H20S20094   2.799   0.883   3.986
  176SAPS  H20T20095   2.945   0.872   4.092
  176SAPS   C3320096   3.598   0.824   2.570
  176SAPS   H3X20097   3.592   0.845   2.461
  176SAPS   H3Y20098   3.703   0.842   2.601
  176SAPS   C3420099   3.506   0.921   2.644
  176SAPS   H4X20100   3.405   0.914   2.598
  176SAPS   H4Y20101   3.542   1.025   2.629
  176SAPS   C3520102   3.489   0.896   2.795
  176SAPS   H5X20103   3.424   0.807   2.811
  176SAPS   H5Y20104   3.435   0.982   2.838
  176SAPS   C3620105   3.621   0.875   2.869
  176SAPS   H6X20106   3.700   0.941   2.827
  176SAPS   H6Y20107   3.654   0.770   2.854
  176SAPS   C3720108   3.607   0.902   3.019
  176SAPS   H7X20109   3.688   0.852   3.075
  176SAPS   H7Y20110   3.510   0.861   3.055
  176SAPS   C3820111   3.612   1.051   3.051
  176SAPS   H8X20112   3.526   1.103   3.003
  176SAPS   H8Y20113   3.706   1.094   3.010
  176SAPS   C3920114   3.608   1.073   3.202
  176SAPS   H9X20115   3.693   1.018   3.249
  176SAPS   H9Y20116   3.514   1.033   3.243
  176SAPS  C31020117   3.620   1.221   3.234
  176SAPS  H10X20118   3.529   1.273   3.197
  176SAPS  H10Y20119   3.707   1.264   3.178
  176SAPS  C31120120   3.640   1.249   3.382
  176SAPS  H11X20121   3.643   1.360   3.391
  176SAPS  H11Y20122   3.738   1.212   3.417
  176SAPS  C31220123   3.529   1.196   3.474
  176SAPS  H12X20124   3.541   1.086   3.489
  176SAPS  H12Y20125   3.432   1.214   3.423
  176SAPS  C31320126   3.529   1.269   3.609
  176SAPS  H13X20127   3.536   1.377   3.586
  176SAPS  H13Y20128   3.619   1.242   3.669
  176SAPS  C31420129   3.400   1.249   3.692
  176SAPS  H14X20130   3.320   1.209   3.625
  176SAPS  H14Y20131   3.364   1.347   3.729
  176SAPS  C31520132   3.417   1.158   3.813
  176SAPS  H15X20133   3.498   1.084   3.795
  176SAPS  H15Y20134   3.323   1.102   3.830
  176SAPS  C31620135   3.445   1.241   3.939
  176SAPS  H16X20136   3.353   1.299   3.963
  176SAPS  H16Y20137   3.526   1.314   3.919
  176SAPS  C31720138   3.483   1.155   4.060
  176SAPS  H17X20139   3.425   1.060   4.056
  176SAPS  H17Y20140   3.453   1.208   4.153
  176SAPS  C31820141   3.633   1.126   4.064
  176SAPS  H18X20142   3.666   1.080   3.969
  176SAPS  H18Y20143   3.657   1.057   4.148
  176SAPS  H18Z20144   3.690   1.220   4.078
  177SAPS     N20145   0.347   2.787   2.140
  177SAPS   HN120146   0.254   2.824   2.170
  177SAPS   HN220147   0.407   2.779   2.224
  177SAPS   HN320148   0.394   2.844   2.067
  177SAPS   C1220149   0.319   2.649   2.090
  177SAPS  H12A20150   0.266   2.659   1.996
  177SAPS   C1320151   0.445   2.564   2.061
  177SAPS  O13A20152   0.547   2.624   2.015
  177SAPS  O13B20153   0.429   2.440   2.044
  177SAPS   C1120154   0.220   2.587   2.190
  177SAPS  H11A20155   0.269   2.572   2.289
  177SAPS  H11B20156   0.189   2.488   2.152
  177SAPS     P20157   0.018   2.678   2.329
  177SAPS   O1320158   0.089   2.770   2.420
  177SAPS   O1420159  -0.121   2.709   2.287
  177SAPS   O1220160   0.105   2.673   2.198
  177SAPS   O1120161   0.029   2.526   2.376
  177SAPS    C120162  -0.077   2.441   2.328
  177SAPS    HA20163  -0.169   2.460   2.386
  177SAPS    HB20164  -0.102   2.461   2.222
  177SAPS    C220165  -0.048   2.287   2.331
  177SAPS    HS20166  -0.144   2.238   2.304
  177SAPS   O2120167  -0.001   2.235   2.457
  177SAPS   C2120168  -0.046   2.278   2.573
  177SAPS   O2220169  -0.126   2.367   2.592
  177SAPS   C2220170   0.019   2.190   2.682
  177SAPS   H2R20171   0.082   2.112   2.635
  177SAPS   H2S20172   0.087   2.256   2.740
  177SAPS    C320173   0.059   2.247   2.225
  177SAPS    HX20174   0.037   2.304   2.132
  177SAPS    HY20175   0.047   2.139   2.201
  177SAPS   O3120176   0.192   2.280   2.267
  177SAPS   C3120177   0.254   2.186   2.339
  177SAPS   O3220178   0.222   2.068   2.343
  177SAPS   C3220179   0.361   2.253   2.423
  177SAPS   H2X20180   0.404   2.338   2.366
  177SAPS   H2Y20181   0.441   2.179   2.446
  177SAPS   C2320182  -0.083   2.123   2.777
  177SAPS   H3R20183  -0.028   2.070   2.857
  177SAPS   H3S20184  -0.144   2.047   2.724
  177SAPS   C2420185  -0.181   2.221   2.841
  177SAPS   H4R20186  -0.243   2.164   2.913
  177SAPS   H4S20187  -0.252   2.262   2.766
  177SAPS   C2520188  -0.103   2.334   2.904
  177SAPS   H5R20189  -0.033   2.389   2.840
  177SAPS   C2620190  -0.127   2.380   3.026
  177SAPS   H6R20191  -0.061   2.457   3.067
  177SAPS   C2720192  -0.233   2.328   3.116
  177SAPS   H7R20193  -0.326   2.302   3.060
  177SAPS   H7S20194  -0.263   2.409   3.185
  177SAPS   C2820195  -0.189   2.211   3.197
  177SAPS   H8R20196  -0.208   2.114   3.149
  177SAPS   C2920197  -0.114   2.214   3.306
  177SAPS   H9R20198  -0.088   2.118   3.354
  177SAPS  C21020199  -0.057   2.337   3.368
  177SAPS  H10R20200  -0.064   2.332   3.479
  177SAPS  H10S20201  -0.112   2.428   3.338
  177SAPS  C21120202   0.085   2.337   3.316
  177SAPS  H11R20203   0.097   2.372   3.213
  177SAPS  C21220204   0.191   2.292   3.384
  177SAPS  H12R20205   0.289   2.292   3.334
  177SAPS  C21320206   0.184   2.234   3.523
  177SAPS  H13R20207   0.135   2.308   3.590
  177SAPS  H13S20208   0.285   2.220   3.566
  177SAPS  C21420209   0.107   2.104   3.517
  177SAPS  H14R20210   0.134   2.037   3.433
  177SAPS  C21520211   0.010   2.068   3.602
  177SAPS  H15R20212  -0.041   1.971   3.589
  177SAPS  C21620213  -0.032   2.153   3.717
  177SAPS  H16R20214  -0.080   2.246   3.678
  177SAPS  H16S20215   0.058   2.184   3.774
  177SAPS  C21720216  -0.131   2.091   3.816
  177SAPS  H17R20217  -0.112   1.982   3.828
  177SAPS  H17S20218  -0.233   2.103   3.774
  177SAPS  C21820219  -0.121   2.159   3.953
  177SAPS  H18R20220  -0.080   2.261   3.941
  177SAPS  H18S20221  -0.048   2.106   4.018
  177SAPS  C21920222  -0.252   2.165   4.032
  177SAPS  H19R20223  -0.320   2.241   3.987
  177SAPS  H19S20224  -0.225   2.198   4.134
  177SAPS  C22020225  -0.325   2.032   4.040
  177SAPS  H20R20226  -0.383   2.017   3.947
  177SAPS  H20S20227  -0.395   2.030   4.126
  177SAPS  H20T20228  -0.252   1.949   4.051
  177SAPS   C3320229   0.298   2.305   2.554
  177SAPS   H3X20230   0.276   2.217   2.619
  177SAPS   H3Y20231   0.204   2.360   2.533
  177SAPS   C3420232   0.387   2.402   2.631
  177SAPS   H4X20233   0.371   2.503   2.590
  177SAPS   H4Y20234   0.493   2.373   2.615
  177SAPS   C3520235   0.361   2.401   2.782
  177SAPS   H5X20236   0.458   2.419   2.832
  177SAPS   H5Y20237   0.327   2.301   2.817
  177SAPS   C3620238   0.263   2.509   2.833
  177SAPS   H6X20239   0.159   2.484   2.805
  177SAPS   H6Y20240   0.288   2.607   2.789
  177SAPS   C3720241   0.278   2.519   2.985
  177SAPS   H7X20242   0.385   2.542   3.007
  177SAPS   H7Y20243   0.256   2.420   3.030
  177SAPS   C3820244   0.196   2.626   3.057
  177SAPS   H8X20245   0.089   2.608   3.036
  177SAPS   H8Y20246   0.223   2.726   3.018
  177SAPS   C3920247   0.223   2.621   3.208
  177SAPS   H9X20248   0.307   2.689   3.232
  177SAPS   H9Y20249   0.257   2.519   3.237
  177SAPS  C31020250   0.096   2.656   3.287
  177SAPS  H10X20251   0.019   2.577   3.282
  177SAPS  H10Y20252   0.052   2.740   3.229
  177SAPS  C31120253   0.115   2.705   3.431
  177SAPS  H11X20254   0.051   2.795   3.442
  177SAPS  H11Y20255   0.221   2.734   3.450
  177SAPS  C31220256   0.067   2.614   3.542
  177SAPS  H12X20257   0.123   2.518   3.542
  177SAPS  H12Y20258  -0.040   2.592   3.521
  177SAPS  C31320259   0.079   2.682   3.679
  177SAPS  H13X20260   0.071   2.792   3.666
  177SAPS  H13Y20261   0.178   2.661   3.724
  177SAPS  C31420262  -0.034   2.640   3.773
  177SAPS  H14X20263  -0.127   2.679   3.726
  177SAPS  H14Y20264  -0.022   2.688   3.873
  177SAPS  C31520265  -0.059   2.491   3.785
  177SAPS  H15X20266   0.016   2.442   3.850
  177SAPS  H15Y20267  -0.051   2.445   3.683
  177SAPS  C31620268  -0.202   2.465   3.832
  177SAPS  H16X20269  -0.231   2.359   3.815
  177SAPS  H16Y20270  -0.273   2.525   3.771
  177SAPS  C31720271  -0.225   2.503   3.978
  177SAPS  H17X20272  -0.165   2.593   4.005
  177SAPS  H17Y20273  -0.188   2.420   4.041
  177SAPS  C31820274  -0.371   2.533   4.004
  177SAPS  H18X20275  -0.388   2.637   3.970
  177SAPS  H18Y20276  -0.400   2.529   4.111
  177SAPS  H18Z20277  -0.437   2.465   3.946
  178SAPS     N20278   4.552   0.037   2.024
  178SAPS   HN120279   4.459  -0.004   2.049
  178SAPS   HN220280   4.546   0.079   1.929
  178SAPS   HN320281   4.624  -0.038   2.027
  178SAPS   C1220282   4.588   0.144   2.121
  178SAPS  H12A20283   4.695   0.143   2.131
  178SAPS   C1320284   4.549   0.285   2.072
  178SAPS  O13A20285   4.508   0.299   1.953
  178SAPS  O13B20286   4.603   0.379   2.136
  178SAPS   C1120287   4.520   0.116   2.259
  178SAPS  H11A20288   4.411   0.136   2.250
  178SAPS  H11B20289   4.557   0.190   2.333
  178SAPS     P20290   4.673  -0.060   2.379
  178SAPS   O1320291   4.647  -0.065   2.524
  178SAPS   O1420292   4.726  -0.181   2.310
  178SAPS   O1220293   4.540  -0.019   2.303
  178SAPS   O1120294   4.767   0.062   2.342
  178SAPS    C120295   4.909   0.055   2.336
  178SAPS    HA20296   4.946  -0.050   2.330
  178SAPS    HB20297   4.944   0.108   2.245
  178SAPS    C220298   4.975   0.121   2.460
  178SAPS    HS20299   5.085   0.116   2.441
  178SAPS   O2120300   4.941   0.042   2.573
  178SAPS   C2120301   5.018   0.058   2.678
  178SAPS   O2220302   5.125   0.116   2.679
  178SAPS   C2220303   4.950  -0.010   2.797
  178SAPS   H2R20304   4.854   0.042   2.816
  178SAPS   H2S20305   4.929  -0.115   2.767
  178SAPS    C320306   4.939   0.272   2.480
  178SAPS    HX20307   4.964   0.324   2.385
  178SAPS    HY20308   5.007   0.316   2.556
  178SAPS   O3120309   4.799   0.297   2.509
  178SAPS   C3120310   4.768   0.293   2.639
  178SAPS   O3220311   4.848   0.284   2.730
  178SAPS   C3220312   4.618   0.318   2.661
  178SAPS   H2X20313   4.569   0.318   2.561
  178SAPS   H2Y20314   4.607   0.418   2.707
  178SAPS   C2320315   5.038  -0.006   2.922
  178SAPS   H3R20316   5.052   0.099   2.957
  178SAPS   H3S20317   5.139  -0.042   2.893
  178SAPS   C2420318   4.984  -0.097   3.034
  178SAPS   H4R20319   5.068  -0.127   3.100
  178SAPS   H4S20320   4.944  -0.190   2.990
  178SAPS   C2520321   4.878  -0.024   3.113
  178SAPS   H5R20322   4.773  -0.051   3.091
  178SAPS   C2620323   4.905   0.072   3.202
  178SAPS   H6R20324   4.821   0.123   3.253
  178SAPS   C2720325   5.042   0.122   3.237
  178SAPS   H7R20326   5.056   0.219   3.184
  178SAPS   H7S20327   5.121   0.056   3.197
  178SAPS   C2820328   5.065   0.135   3.385
  178SAPS   H8R20329   5.030   0.050   3.446
  178SAPS   C2920330   5.125   0.238   3.446
  178SAPS   H9R20331   5.136   0.236   3.556
  178SAPS  C21020332   5.180   0.361   3.378
  178SAPS  H10R20333   5.177   0.355   3.267
  178SAPS  H10S20334   5.288   0.367   3.403
  178SAPS  C21120335   5.112   0.487   3.424
  178SAPS  H11R20336   5.182   0.572   3.433
  178SAPS  C21220337   4.983   0.511   3.451
  178SAPS  H12R20338   4.959   0.610   3.495
  178SAPS  C21320339   4.865   0.417   3.440
  178SAPS  H13R20340   4.886   0.321   3.492
  178SAPS  H13S20341   4.851   0.388   3.333
  178SAPS  C21420342   4.738   0.479   3.492
  178SAPS  H14R20343   4.702   0.566   3.434
  178SAPS  C21520344   4.668   0.437   3.598
  178SAPS  H15R20345   4.577   0.492   3.627
  178SAPS  C21620346   4.702   0.320   3.686
  178SAPS  H16R20347   4.707   0.226   3.627
  178SAPS  H16S20348   4.620   0.306   3.760
  178SAPS  C21720349   4.834   0.333   3.765
  178SAPS  H17R20350   4.846   0.438   3.801
  178SAPS  H17S20351   4.921   0.312   3.699
  178SAPS  C21820352   4.838   0.240   3.886
  178SAPS  H18R20353   4.828   0.134   3.853
  178SAPS  H18S20354   4.752   0.263   3.952
  178SAPS  C21920355   4.968   0.257   3.965
  178SAPS  H19R20356   4.990   0.365   3.977
  178SAPS  H19S20357   5.050   0.214   3.904
  178SAPS  C22020358   4.964   0.192   4.104
  178SAPS  H20R20359   4.953   0.082   4.095
  178SAPS  H20S20360   4.878   0.231   4.162
  178SAPS  H20T20361   5.057   0.214   4.160
  178SAPS   C3320362   4.552   0.210   2.750
  178SAPS   H3X20363   4.571   0.110   2.705
  178SAPS   H3Y20364   4.442   0.226   2.749
  178SAPS   C3420365   4.598   0.206   2.898
  178SAPS   H4X20366   4.709   0.199   2.905
  178SAPS   H4Y20367   4.557   0.113   2.943
  178SAPS   C3520368   4.551   0.325   2.983
  178SAPS   H5X20369   4.439   0.327   2.983
  178SAPS   H5Y20370   4.587   0.420   2.938
  178SAPS   C3620371   4.597   0.319   3.129
  178SAPS   H6X20372   4.569   0.414   3.179
  178SAPS   H6Y20373   4.708   0.310   3.133
  178SAPS   C3720374   4.534   0.203   3.209
  178SAPS   H7X20375   4.574   0.106   3.172
  178SAPS   H7Y20376   4.424   0.203   3.191
  178SAPS   C3820377   4.559   0.217   3.359
  178SAPS   H8X20378   4.524   0.318   3.390
  178SAPS   H8Y20379   4.668   0.212   3.379
  178SAPS   C3920380   4.487   0.113   3.447
  178SAPS   H9X20381   4.377   0.124   3.432
  178SAPS   H9Y20382   4.507   0.136   3.554
  178SAPS  C31020383   4.525  -0.032   3.419
  178SAPS  H10X20384   4.499  -0.058   3.314
  178SAPS  H10Y20385   4.463  -0.098   3.484
  178SAPS  C31120386   4.671  -0.069   3.446
  178SAPS  H11X20387   4.712  -0.007   3.528
  178SAPS  H11Y20388   4.730  -0.048   3.354
  178SAPS  C31220389   4.684  -0.218   3.481
  178SAPS  H12X20390   4.626  -0.276   3.406
  178SAPS  H12Y20391   4.637  -0.235   3.580
  178SAPS  C31320392   4.826  -0.274   3.482
  178SAPS  H13X20393   4.869  -0.266   3.380
  178SAPS  H13Y20394   4.821  -0.382   3.507
  178SAPS  C31420395   4.920  -0.204   3.581
  178SAPS  H14X20396   4.942  -0.103   3.541
  178SAPS  H14Y20397   5.014  -0.263   3.584
  178SAPS  C31520398   4.867  -0.187   3.725
  178SAPS  H15X20399   4.768  -0.137   3.723
  178SAPS  H15Y20400   4.937  -0.118   3.778
  178SAPS  C31620401   4.858  -0.318   3.803
  178SAPS  H16X20402   4.961  -0.357   3.818
  178SAPS  H16Y20403   4.802  -0.393   3.743
  178SAPS  C31720404   4.789  -0.303   3.940
  178SAPS  H17X20405   4.791  -0.402   3.991
  178SAPS  H17Y20406   4.683  -0.276   3.923
  178SAPS  C31820407   4.852  -0.198   4.032
  178SAPS  H18X20408   4.844  -0.097   3.987
  178SAPS  H18Y20409   4.960  -0.221   4.048
  178SAPS  H18Z20410   4.801  -0.197   4.131
  179SAPS     N20411   0.813   1.012   1.969
  179SAPS   HN120412   0.759   0.976   1.888
  179SAPS   HN220413   0.875   1.088   1.933
  179SAPS   HN320414   0.871   0.935   2.008
  179SAPS   C1220415   0.721   1.066   2.073
  179SAPS  H12A20416   0.781   1.114   2.148
  179SAPS   C1320417   0.619   1.170   2.017
  179SAPS  O13A20418   0.596   1.174   1.893
  179SAPS  O13B20419   0.549   1.234   2.100
  179SAPS   C1120420   0.643   0.947   2.136
  179SAPS  H11A20421   0.701   0.852   2.125
  179SAPS  H11B20422   0.549   0.930   2.080
  179SAPS     P20423   0.685   0.898   2.391
  179SAPS   O1320424   0.690   0.986   2.509
  179SAPS   O1420425   0.620   0.766   2.401
  179SAPS   O1220426   0.612   0.974   2.273
  179SAPS   O1120427   0.833   0.881   2.332
  179SAPS    C120428   0.905   0.758   2.348
  179SAPS    HA20429   0.840   0.670   2.330
  179SAPS    HB20430   0.986   0.756   2.271
  179SAPS    C220431   0.974   0.741   2.487
  179SAPS    HS20432   1.038   0.651   2.482
  179SAPS   O2120433   0.869   0.715   2.580
  179SAPS   C2120434   0.892   0.732   2.709
  179SAPS   O2220435   0.999   0.714   2.764
  179SAPS   C2220436   0.760   0.773   2.773
  179SAPS   H2R20437   0.703   0.835   2.701
  179SAPS   H2S20438   0.700   0.681   2.792
  179SAPS    C320439   1.070   0.859   2.524
  179SAPS    HX20440   1.117   0.895   2.430
  179SAPS    HY20441   1.150   0.818   2.589
  179SAPS   O3120442   1.002   0.962   2.598
  179SAPS   C3120443   1.006   1.085   2.555
  179SAPS   O3220444   1.067   1.126   2.456
  179SAPS   C3220445   0.933   1.171   2.657
  179SAPS   H2X20446   0.831   1.131   2.671
  179SAPS   H2Y20447   0.926   1.273   2.612
  179SAPS   C2320448   0.774   0.850   2.905
  179SAPS   H3R20449   0.813   0.952   2.885
  179SAPS   H3S20450   0.846   0.798   2.972
  179SAPS   C2420451   0.637   0.859   2.973
  179SAPS   H4R20452   0.593   0.757   2.979
  179SAPS   H4S20453   0.568   0.918   2.908
  179SAPS   C2520454   0.648   0.923   3.108
  179SAPS   H5R20455   0.672   1.030   3.104
  179SAPS   C2620456   0.636   0.862   3.228
  179SAPS   H6R20457   0.645   0.923   3.319
  179SAPS   C2720458   0.609   0.716   3.250
  179SAPS   H7R20459   0.679   0.683   3.330
  179SAPS   H7S20460   0.638   0.659   3.160
  179SAPS   C2820461   0.467   0.675   3.282
  179SAPS   H8R20462   0.395   0.696   3.201
  179SAPS   C2920463   0.423   0.615   3.394
  179SAPS   H9R20464   0.316   0.590   3.402
  179SAPS  C21020465   0.505   0.577   3.515
  179SAPS  H10R20466   0.463   0.630   3.603
  179SAPS  H10S20467   0.609   0.613   3.507
  179SAPS  C21120468   0.510   0.428   3.540
  179SAPS  H11R20469   0.492   0.363   3.453
  179SAPS  C21220470   0.535   0.373   3.660
  179SAPS  H12R20471   0.534   0.263   3.669
  179SAPS  C21320472   0.562   0.452   3.786
  179SAPS  H13R20473   0.474   0.517   3.809
  179SAPS  H13S20474   0.647   0.521   3.770
  179SAPS  C21420475   0.593   0.360   3.902
  179SAPS  H14R20476   0.678   0.293   3.884
  179SAPS  C21520477   0.536   0.356   4.024
  179SAPS  H15R20478   0.568   0.277   4.094
  179SAPS  C21620479   0.425   0.443   4.074
  179SAPS  H16R20480   0.353   0.385   4.135
  179SAPS  H16S20481   0.366   0.484   3.989
  179SAPS  C21720482   0.481   0.558   4.157
  179SAPS  H17R20483   0.573   0.597   4.108
  179SAPS  H17S20484   0.509   0.524   4.258
  179SAPS  C21820485   0.383   0.675   4.164
  179SAPS  H18R20486   0.424   0.750   4.235
  179SAPS  H18S20487   0.285   0.642   4.204
  179SAPS  C21920488   0.366   0.739   4.026
  179SAPS  H19R20489   0.291   0.683   3.966
  179SAPS  H19S20490   0.462   0.733   3.971
  179SAPS  C22020491   0.326   0.884   4.037
  179SAPS  H20R20492   0.401   0.940   4.098
  179SAPS  H20S20493   0.227   0.893   4.086
  179SAPS  H20T20494   0.322   0.931   3.937
  179SAPS   C3320495   1.007   1.175   2.792
  179SAPS   H3X20496   1.116   1.183   2.772
  179SAPS   H3Y20497   0.993   1.082   2.850
  179SAPS   C3420498   0.968   1.297   2.876
  179SAPS   H4X20499   0.918   1.371   2.810
  179SAPS   H4Y20500   1.058   1.347   2.919
  179SAPS   C3520501   0.871   1.264   2.988
  179SAPS   H5X20502   0.925   1.215   3.071
  179SAPS   H5Y20503   0.794   1.194   2.950
  179SAPS   C3620504   0.801   1.392   3.036
  179SAPS   H6X20505   0.757   1.444   2.949
  179SAPS   H6Y20506   0.875   1.460   3.082
  179SAPS   C3720507   0.688   1.363   3.135
  179SAPS   H7X20508   0.606   1.315   3.078
  179SAPS   H7Y20509   0.653   1.460   3.174
  179SAPS   C3820510   0.728   1.274   3.252
  179SAPS   H8X20511   0.761   1.174   3.216
  179SAPS   H8Y20512   0.637   1.257   3.315
  179SAPS   C3920513   0.840   1.334   3.338
  179SAPS   H9X20514   0.804   1.429   3.382
  179SAPS   H9Y20515   0.928   1.356   3.274
  179SAPS  C31020516   0.883   1.238   3.449
  179SAPS  H10X20517   0.968   1.285   3.504
  179SAPS  H10Y20518   0.919   1.143   3.405
  179SAPS  C31120519   0.769   1.210   3.547
  179SAPS  H11X20520   0.686   1.157   3.497
  179SAPS  H11Y20521   0.730   1.307   3.584
  179SAPS  C31220522   0.816   1.127   3.665
  179SAPS  H12X20523   0.914   1.166   3.700
  179SAPS  H12Y20524   0.831   1.021   3.634
  179SAPS  C31320525   0.717   1.134   3.781
  179SAPS  H13X20526   0.618   1.094   3.749
  179SAPS  H13Y20527   0.703   1.241   3.810
  179SAPS  C31420528   0.769   1.056   3.900
  179SAPS  H14X20529   0.875   1.084   3.919
  179SAPS  H14Y20530   0.767   0.948   3.871
  179SAPS  C31520531   0.690   1.079   4.028
  179SAPS  H15X20532   0.582   1.055   4.010
  179SAPS  H15Y20533   0.697   1.186   4.056
  179SAPS  C31620534   0.743   0.993   4.142
  179SAPS  H16X20535   0.697   1.025   4.238
  179SAPS  H16Y20536   0.853   1.007   4.151
  179SAPS  C31720537   0.713   0.844   4.122
  179SAPS  H17X20538   0.751   0.809   4.024
  179SAPS  H17Y20539   0.603   0.832   4.121
  179SAPS  C31820540   0.773   0.758   4.231
  179SAPS  H18X20541   0.735   0.789   4.330
  179SAPS  H18Y20542   0.884   0.770   4.230
  179SAPS  H18Z20543   0.749   0.651   4.216
  180SAPS     N20544   6.652   0.087   2.316
  180SAPS   HN120545   6.720   0.049   2.385
  180SAPS   HN220546   6.653   0.190   2.324
  180SAPS   HN320547   6.557   0.047   2.327
  180SAPS   C1220548   6.707   0.050   2.182
  180SAPS  H12A20549   6.743  -0.052   2.189
  180SAPS   C1320550   6.603   0.055   2.069
  180SAPS  O13A20551   6.481   0.063   2.098
  180SAPS  O13B20552   6.645   0.050   1.950
  180SAPS   C1120553   6.828   0.142   2.149
  180SAPS  H11A20554   6.790   0.242   2.118
  180SAPS  H11B20555   6.884   0.099   2.063
  180SAPS     P20556   6.983   0.045   2.342
  180SAPS   O1320557   6.877  -0.011   2.429
  180SAPS   O1420558   7.053  -0.045   2.248
  180SAPS   O1220559   6.915   0.160   2.258
  180SAPS   O1120560   7.088   0.128   2.424
  180SAPS    C120561   7.114   0.265   2.392
  180SAPS    HA20562   7.219   0.285   2.421
  180SAPS    HB20563   7.108   0.288   2.284
  180SAPS    C220564   7.028   0.365   2.475
  180SAPS    HS20565   7.071   0.465   2.454
  180SAPS   O2120566   7.050   0.330   2.611
  180SAPS   C2120567   6.996   0.413   2.694
  180SAPS   O2220568   6.971   0.531   2.672
  180SAPS   C2220569   6.960   0.334   2.817
  180SAPS   H2R20570   6.853   0.354   2.839
  180SAPS   H2S20571   6.977   0.226   2.800
  180SAPS    C320572   6.873   0.376   2.442
  180SAPS    HX20573   6.864   0.378   2.331
  180SAPS    HY20574   6.839   0.477   2.474
  180SAPS   O3120575   6.789   0.268   2.496
  180SAPS   C3120576   6.717   0.299   2.605
  180SAPS   O3220577   6.707   0.410   2.652
  180SAPS   C3220578   6.640   0.179   2.662
  180SAPS   H2X20579   6.628   0.104   2.582
  180SAPS   H2Y20580   6.540   0.219   2.690
  180SAPS   C2320581   7.043   0.382   2.932
  180SAPS   H3R20582   7.026   0.491   2.943
  180SAPS   H3S20583   7.150   0.365   2.908
  180SAPS   C2420584   7.013   0.309   3.061
  180SAPS   H4R20585   7.107   0.304   3.119
  180SAPS   H4S20586   6.982   0.205   3.036
  180SAPS   C2520587   6.909   0.383   3.140
  180SAPS   H5R20588   6.859   0.470   3.094
  180SAPS   C2620589   6.880   0.344   3.265
  180SAPS   H6R20590   6.803   0.395   3.324
  180SAPS   C2720591   6.949   0.226   3.327
  180SAPS   H7R20592   6.934   0.225   3.437
  180SAPS   H7S20593   7.059   0.233   3.314
  180SAPS   C2820594   6.896   0.099   3.266
  180SAPS   H8R20595   6.835   0.108   3.175
  180SAPS   C2920596   6.923  -0.021   3.314
  180SAPS   H9R20597   6.881  -0.111   3.267
  180SAPS  C21020598   7.010  -0.035   3.435
  180SAPS  H10R20599   6.952  -0.011   3.528
  180SAPS  H10S20600   7.095   0.036   3.432
  180SAPS  C21120601   7.062  -0.175   3.432
  180SAPS  H11R20602   7.153  -0.187   3.372
  180SAPS  C21220603   7.017  -0.277   3.505
  180SAPS  H12R20604   7.064  -0.375   3.490
  180SAPS  C21320605   6.906  -0.269   3.605
  180SAPS  H13R20606   6.808  -0.295   3.559
  180SAPS  H13S20607   6.894  -0.167   3.649
  180SAPS  C21420608   6.946  -0.368   3.709
  180SAPS  H14R20609   6.920  -0.472   3.683
  180SAPS  C21520610   7.007  -0.346   3.826
  180SAPS  H15R20611   7.024  -0.434   3.889
  180SAPS  C21620612   7.051  -0.215   3.886
  180SAPS  H16R20613   7.019  -0.127   3.826
  180SAPS  H16S20614   7.162  -0.214   3.890
  180SAPS  C21720615   7.002  -0.198   4.030
  180SAPS  H17R20616   6.891  -0.189   4.033
  180SAPS  H17S20617   7.042  -0.103   4.070
  180SAPS  C21820618   7.047  -0.315   4.119
  180SAPS  H18R20619   7.108  -0.389   4.063
  180SAPS  H18S20620   6.958  -0.367   4.160
  180SAPS  C21920621   7.137  -0.269   4.233
  180SAPS  H19R20622   7.070  -0.209   4.298
  180SAPS  H19S20623   7.217  -0.202   4.195
  180SAPS  C22020624   7.200  -0.385   4.310
  180SAPS  H20R20625   7.124  -0.464   4.329
  180SAPS  H20S20626   7.282  -0.431   4.250
  180SAPS  H20T20627   7.241  -0.351   4.407
  180SAPS   C3320628   6.701   0.109   2.787
  180SAPS   H3X20629   6.811   0.100   2.774
  180SAPS   H3Y20630   6.662   0.005   2.788
  180SAPS   C3420631   6.667   0.168   2.926
  180SAPS   H4X20632   6.699   0.274   2.936
  180SAPS   H4Y20633   6.725   0.109   3.001
  180SAPS   C3520634   6.519   0.162   2.966
  180SAPS   H5X20635   6.476   0.064   2.933
  180SAPS   H5Y20636   6.467   0.242   2.910
  180SAPS   C3620637   6.490   0.180   3.117
  180SAPS   H6X20638   6.380   0.195   3.128
  180SAPS   H6Y20639   6.540   0.272   3.155
  180SAPS   C3720640   6.529   0.059   3.203
  180SAPS   H7X20641   6.639   0.061   3.222
  180SAPS   H7Y20642   6.508  -0.033   3.145
  180SAPS   C3820643   6.455   0.046   3.338
  180SAPS   H8X20644   6.487  -0.049   3.385
  180SAPS   H8Y20645   6.346   0.038   3.318
  180SAPS   C3920646   6.479   0.159   3.440
  180SAPS   H9X20647   6.424   0.133   3.533
  180SAPS   H9Y20648   6.436   0.254   3.402
  180SAPS  C31020649   6.627   0.182   3.475
  180SAPS  H10X20650   6.674   0.231   3.387
  180SAPS  H10Y20651   6.677   0.085   3.492
  180SAPS  C31120652   6.646   0.270   3.599
  180SAPS  H11X20653   6.618   0.208   3.686
  180SAPS  H11Y20654   6.580   0.359   3.594
  180SAPS  C31220655   6.791   0.315   3.624
  180SAPS  H12X20656   6.826   0.380   3.541
  180SAPS  H12Y20657   6.854   0.223   3.627
  180SAPS  C31320658   6.808   0.391   3.755
  180SAPS  H13X20659   6.758   0.333   3.836
  180SAPS  H13Y20660   6.758   0.490   3.746
  180SAPS  C31420661   6.954   0.412   3.796
  180SAPS  H14X20662   6.959   0.472   3.889
  180SAPS  H14Y20663   7.005   0.472   3.717
  180SAPS  C31520664   7.030   0.280   3.816
  180SAPS  H15X20665   7.090   0.266   3.724
  180SAPS  H15Y20666   6.958   0.195   3.821
  180SAPS  C31620667   7.121   0.272   3.939
  180SAPS  H16X20668   7.180   0.366   3.949
  180SAPS  H16Y20669   7.192   0.189   3.923
  180SAPS  C31720670   7.046   0.242   4.069
  180SAPS  H17X20671   6.973   0.161   4.052
  180SAPS  H17Y20672   6.991   0.333   4.101
  180SAPS  C31820673   7.139   0.203   4.183
  180SAPS  H18X20674   7.081   0.186   4.275
  180SAPS  H18Y20675   7.214   0.283   4.202
  180SAPS  H18Z20676   7.194   0.109   4.158
  181POPC     N20677   5.629   2.674   6.295
  181POPC   C1220678   5.515   2.591   6.353
  181POPC  H12A20679   5.495   2.625   6.454
  181POPC  H12B20680   5.545   2.488   6.357
  181POPC   C1320681   5.684   2.606   6.174
  181POPC  H13A20682   5.725   2.509   6.197
  181POPC  H13B20683   5.603   2.590   6.104
  181POPC  H13C20684   5.759   2.666   6.126
  181POPC   C1420685   5.576   2.808   6.250
  181POPC  H14A20686   5.497   2.793   6.178
  181POPC  H14B20687   5.537   2.865   6.334
  181POPC  H14C20688   5.654   2.866   6.203
  181POPC   C1520689   5.738   2.699   6.396
  181POPC  H15A20690   5.822   2.749   6.350
  181POPC  H15B20691   5.775   2.607   6.438
  181POPC  H15C20692   5.703   2.763   6.475
  181POPC   C1120693   5.381   2.593   6.276
  181POPC  H11A20694   5.335   2.693   6.289
  181POPC  H11B20695   5.312   2.519   6.322
  181POPC     P20696   5.311   2.621   6.027
  181POPC   O1320697   5.364   2.582   5.895
  181POPC   O1420698   5.298   2.766   6.058
  181POPC   O1220699   5.403   2.558   6.140
  181POPC   O1120700   5.174   2.549   6.056
  181POPC    C120701   5.167   2.413   6.101
  181POPC    HA20702   5.122   2.412   6.203
  181POPC    HB20703   5.266   2.364   6.109
  181POPC    C220704   5.076   2.323   6.011
  181POPC    HS20705   5.071   2.222   6.056
  181POPC   O2120706   5.122   2.314   5.877
  181POPC   C2120707   5.242   2.276   5.845
  181POPC   O2220708   5.328   2.232   5.919
  181POPC   C2220709   5.243   2.273   5.692
  181POPC   H2R20710   5.158   2.332   5.652
  181POPC   H2S20711   5.227   2.168   5.660
  181POPC    C320712   4.931   2.378   6.002
  181POPC    HX20713   4.889   2.383   6.104
  181POPC    HY20714   4.868   2.308   5.944
  181POPC   O3120715   4.931   2.511   5.945
  181POPC   C3120716   4.941   2.512   5.811
  181POPC   O3220717   4.907   2.420   5.739
  181POPC   C3220718   5.002   2.645   5.768
  181POPC   H2X20719   5.069   2.679   5.850
  181POPC   H2Y20720   4.922   2.721   5.755
  181POPC   C2320721   5.374   2.323   5.632
  181POPC   H3R20722   5.456   2.263   5.677
  181POPC   H3S20723   5.392   2.430   5.656
  181POPC   C2420724   5.377   2.301   5.480
  181POPC   H4R20725   5.339   2.199   5.456
  181POPC   H4S20726   5.484   2.304   5.451
  181POPC   C2520727   5.307   2.406   5.394
  181POPC   H5R20728   5.200   2.418   5.422
  181POPC   H5S20729   5.310   2.369   5.289
  181POPC   C2620730   5.381   2.541   5.398
  181POPC   H6R20731   5.487   2.519   5.424
  181POPC   H6S20732   5.340   2.604   5.480
  181POPC   C2720733   5.378   2.616   5.264
  181POPC   H7R20734   5.274   2.645   5.240
  181POPC   H7S20735   5.413   2.547   5.184
  181POPC   C2820736   5.466   2.743   5.263
  181POPC   H8R20737   5.420   2.816   5.332
  181POPC   H8S20738   5.461   2.788   5.162
  181POPC   C2920739   5.609   2.718   5.304
  181POPC   H9120740   5.635   2.758   5.403
  181POPC  C21020741   5.704   2.654   5.233
  181POPC  H10120742   5.805   2.645   5.278
  181POPC  C21120743   5.690   2.591   5.097
  181POPC  H11R20744   5.604   2.521   5.095
  181POPC  H11S20745   5.781   2.531   5.077
  181POPC  C21220746   5.677   2.687   4.978
  181POPC  H12R20747   5.762   2.758   4.979
  181POPC  H12S20748   5.583   2.746   4.983
  181POPC  C21320749   5.683   2.609   4.846
  181POPC  H13R20750   5.593   2.545   4.835
  181POPC  H13S20751   5.771   2.543   4.849
  181POPC  C21420752   5.696   2.703   4.726
  181POPC  H14R20753   5.761   2.789   4.754
  181POPC  H14S20754   5.596   2.745   4.702
  181POPC  C21520755   5.757   2.635   4.603
  181POPC  H15R20756   5.770   2.526   4.621
  181POPC  H15S20757   5.858   2.678   4.586
  181POPC  C21620758   5.672   2.657   4.479
  181POPC  H16R20759   5.640   2.764   4.478
  181POPC  H16S20760   5.580   2.596   4.489
  181POPC  C21720761   5.743   2.628   4.347
  181POPC  H17R20762   5.682   2.558   4.286
  181POPC  H17S20763   5.840   2.577   4.367
  181POPC  C21820764   5.766   2.757   4.268
  181POPC  H18R20765   5.815   2.833   4.332
  181POPC  H18S20766   5.668   2.799   4.236
  181POPC  H18T20767   5.829   2.739   4.179
  181POPC   C3320768   5.087   2.633   5.640
  181POPC   H3X20769   5.145   2.538   5.637
  181POPC   H3Y20770   5.162   2.714   5.644
  181POPC   C3420771   5.008   2.653   5.510
  181POPC   H4X20772   5.084   2.669   5.431
  181POPC   H4Y20773   4.946   2.744   5.521
  181POPC   C3520774   4.915   2.540   5.464
  181POPC   H5X20775   4.828   2.535   5.534
  181POPC   H5Y20776   4.968   2.443   5.468
  181POPC   C3620777   4.863   2.565   5.322
  181POPC   H6X20778   4.822   2.668   5.314
  181POPC   H6Y20779   4.780   2.494   5.300
  181POPC   C3720780   4.973   2.547   5.219
  181POPC   H7X20781   5.019   2.446   5.236
  181POPC   H7Y20782   5.053   2.623   5.235
  181POPC   C3820783   4.928   2.559   5.074
  181POPC   H8X20784   4.868   2.651   5.060
  181POPC   H8Y20785   4.863   2.472   5.048
  181POPC   C3920786   5.049   2.563   4.979
  181POPC   H9X20787   5.099   2.662   4.989
  181POPC   H9Y20788   5.010   2.556   4.875
  181POPC  C31020789   5.153   2.453   5.007
  181POPC  H10X20790   5.103   2.354   4.996
  181POPC  H10Y20791   5.191   2.460   5.111
  181POPC  C31120792   5.274   2.458   4.913
  181POPC  H11X20793   5.335   2.366   4.927
  181POPC  H11Y20794   5.338   2.546   4.937
  181POPC  C31220795   5.227   2.467   4.768
  181POPC  H12X20796   5.188   2.569   4.747
  181POPC  H12Y20797   5.141   2.396   4.759
  181POPC  C31320798   5.331   2.432   4.663
  181POPC  H13X20799   5.381   2.336   4.691
  181POPC  H13Y20800   5.408   2.511   4.660
  181POPC  C31420801   5.262   2.416   4.527
  181POPC  H14X20802   5.336   2.417   4.444
  181POPC  H14Y20803   5.195   2.503   4.510
  181POPC  C31520804   5.181   2.286   4.518
  181POPC  H15X20805   5.097   2.290   4.590
  181POPC  H15Y20806   5.246   2.200   4.546
  181POPC  C31620807   5.125   2.265   4.379
  181POPC  H16X20808   5.206   2.237   4.308
  181POPC  H16Y20809   5.078   2.359   4.343
  181POPC  H16Z20810   5.048   2.186   4.380
  182POPC     N20811   2.899   1.416   6.251
  182POPC   C1220812   3.050   1.390   6.246
  182POPC  H12A20813   3.102   1.457   6.313
  182POPC  H12B20814   3.085   1.411   6.147
  182POPC   C1320815   2.829   1.318   6.161
  182POPC  H13A20816   2.860   1.330   6.058
  182POPC  H13B20817   2.861   1.218   6.185
  182POPC  H13C20818   2.722   1.323   6.168
  182POPC   C1420819   2.849   1.392   6.391
  182POPC  H14A20820   2.865   1.289   6.420
  182POPC  H14B20821   2.903   1.452   6.463
  182POPC  H14C20822   2.744   1.413   6.400
  182POPC   C1520823   2.864   1.555   6.207
  182POPC  H15A20824   2.917   1.630   6.264
  182POPC  H15B20825   2.758   1.573   6.217
  182POPC  H15C20826   2.890   1.569   6.103
  182POPC   C1120827   3.097   1.246   6.271
  182POPC  H11A20828   3.053   1.204   6.364
  182POPC  H11B20829   3.208   1.245   6.283
  182POPC     P20830   3.066   1.013   6.151
  182POPC   O1320831   2.928   0.966   6.129
  182POPC   O1420832   3.140   0.964   6.270
  182POPC   O1220833   3.062   1.170   6.157
  182POPC   O1120834   3.158   0.994   6.023
  182POPC    C120835   3.289   1.053   6.032
  182POPC    HA20836   3.354   0.985   6.090
  182POPC    HB20837   3.290   1.152   6.084
  182POPC    C220838   3.359   1.079   5.896
  182POPC    HS20839   3.467   1.083   5.925
  182POPC   O2120840   3.315   1.204   5.840
  182POPC   C2120841   3.410   1.257   5.762
  182POPC   O2220842   3.528   1.230   5.767
  182POPC   C2220843   3.347   1.356   5.665
  182POPC   H2R20844   3.315   1.444   5.723
  182POPC   H2S20845   3.259   1.309   5.617
  182POPC    C320846   3.343   0.965   5.790
  182POPC    HX20847   3.370   0.868   5.836
  182POPC    HY20848   3.424   0.994   5.719
  182POPC   O3120849   3.214   0.954   5.725
  182POPC   C3120850   3.223   0.928   5.594
  182POPC   O3220851   3.326   0.929   5.529
  182POPC   C3220852   3.087   0.892   5.535
  182POPC   H2X20853   3.008   0.956   5.581
  182POPC   H2Y20854   3.068   0.786   5.564
  182POPC   C2320855   3.450   1.404   5.560
  182POPC   H3R20856   3.541   1.440   5.612
  182POPC   H3S20857   3.405   1.490   5.507
  182POPC   C2420858   3.491   1.299   5.455
  182POPC   H4R20859   3.542   1.212   5.503
  182POPC   H4S20860   3.564   1.346   5.386
  182POPC   C2520861   3.371   1.250   5.373
  182POPC   H5R20862   3.303   1.337   5.360
  182POPC   H5S20863   3.316   1.173   5.431
  182POPC   C2620864   3.409   1.194   5.235
  182POPC   H6R20865   3.484   1.112   5.250
  182POPC   H6S20866   3.457   1.272   5.173
  182POPC   C2720867   3.287   1.137   5.161
  182POPC   H7R20868   3.242   1.061   5.228
  182POPC   H7S20869   3.320   1.082   5.070
  182POPC   C2820870   3.180   1.243   5.127
  182POPC   H8R20871   3.191   1.332   5.193
  182POPC   H8S20872   3.080   1.200   5.151
  182POPC   C2920873   3.188   1.289   4.984
  182POPC   H9120874   3.290   1.293   4.943
  182POPC  C21020875   3.085   1.323   4.905
  182POPC  H10120876   3.107   1.356   4.803
  182POPC  C21120877   2.938   1.324   4.941
  182POPC  H11R20878   2.905   1.429   4.959
  182POPC  H11S20879   2.918   1.268   5.035
  182POPC  C21220880   2.850   1.264   4.830
  182POPC  H12R20881   2.744   1.269   4.863
  182POPC  H12S20882   2.874   1.156   4.819
  182POPC  C21320883   2.864   1.333   4.693
  182POPC  H13R20884   2.964   1.312   4.650
  182POPC  H13S20885   2.859   1.443   4.709
  182POPC  C21420886   2.757   1.290   4.592
  182POPC  H14R20887   2.752   1.365   4.510
  182POPC  H14S20888   2.657   1.290   4.640
  182POPC  C21520889   2.787   1.153   4.532
  182POPC  H15R20890   2.776   1.077   4.613
  182POPC  H15S20891   2.892   1.150   4.497
  182POPC  C21620892   2.695   1.113   4.416
  182POPC  H16R20893   2.716   1.179   4.329
  182POPC  H16S20894   2.589   1.129   4.446
  182POPC  C21720895   2.716   0.966   4.377
  182POPC  H17R20896   2.701   0.904   4.468
  182POPC  H17S20897   2.821   0.952   4.344
  182POPC  C21820898   2.621   0.918   4.268
  182POPC  H18R20899   2.641   0.812   4.243
  182POPC  H18S20900   2.633   0.978   4.175
  182POPC  H18T20901   2.515   0.927   4.301
  182POPC   C3320902   3.087   0.905   5.381
  182POPC   H3X20903   3.185   0.873   5.341
  182POPC   H3Y20904   3.071   1.011   5.351
  182POPC   C3420905   2.984   0.815   5.312
  182POPC   H4X20906   2.881   0.847   5.337
  182POPC   H4Y20907   2.998   0.712   5.351
  182POPC   C3520908   3.004   0.808   5.159
  182POPC   H5X20909   2.956   0.715   5.122
  182POPC   H5Y20910   3.112   0.800   5.136
  182POPC   C3620911   2.945   0.926   5.082
  182POPC   H6X20912   2.999   1.020   5.109
  182POPC   H6Y20913   2.839   0.938   5.115
  182POPC   C3720914   2.945   0.908   4.929
  182POPC   H7X20915   2.860   0.966   4.889
  182POPC   H7Y20916   2.926   0.802   4.903
  182POPC   C3820917   3.073   0.955   4.856
  182POPC   H8X20918   3.157   0.886   4.878
  182POPC   H8Y20919   3.103   1.055   4.896
  182POPC   C3920920   3.051   0.967   4.704
  182POPC   H9X20921   2.975   1.045   4.684
  182POPC   H9Y20922   3.008   0.870   4.670
  182POPC  C31020923   3.174   0.998   4.617
  182POPC  H10X20924   3.145   0.978   4.511
  182POPC  H10Y20925   3.256   0.928   4.642
  182POPC  C31120926   3.230   1.141   4.622
  182POPC  H11X20927   3.270   1.161   4.724
  182POPC  H11Y20928   3.149   1.215   4.603
  182POPC  C31220929   3.340   1.159   4.516
  182POPC  H12X20930   3.298   1.205   4.425
  182POPC  H12Y20931   3.371   1.057   4.485
  182POPC  C31320932   3.469   1.231   4.562
  182POPC  H13X20933   3.552   1.200   4.496
  182POPC  H13Y20934   3.497   1.198   4.665
  182POPC  C31420935   3.460   1.384   4.562
  182POPC  H14X20936   3.555   1.426   4.602
  182POPC  H14Y20937   3.379   1.413   4.632
  182POPC  C31520938   3.433   1.444   4.424
  182POPC  H15X20939   3.415   1.553   4.437
  182POPC  H15Y20940   3.339   1.403   4.382
  182POPC  C31620941   3.546   1.424   4.323
  182POPC  H16X20942   3.640   1.471   4.360
  182POPC  H16Y20943   3.520   1.470   4.225
  182POPC  H16Z20944   3.566   1.316   4.307
  183POPC     N20945   3.901   7.283   6.284
  183POPC   C1220946   3.957   7.252   6.146
  183POPC  H12A20947   3.997   7.151   6.147
  183POPC  H12B20948   4.038   7.319   6.121
  183POPC   C1320949   3.838   7.157   6.336
  183POPC  H13A20950   3.790   7.171   6.432
  183POPC  H13B20951   3.763   7.124   6.266
  183POPC  H13C20952   3.910   7.077   6.340
  183POPC   C1420953   4.008   7.327   6.378
  183POPC  H14A20954   4.087   7.254   6.383
  183POPC  H14B20955   4.053   7.421   6.346
  183POPC  H14C20956   3.969   7.339   6.478
  183POPC   C1520957   3.792   7.384   6.268
  183POPC  H15A20958   3.721   7.344   6.197
  183POPC  H15B20959   3.828   7.476   6.226
  183POPC  H15C20960   3.738   7.401   6.360
  183POPC   C1120961   3.856   7.254   6.028
  183POPC  H11A20962   3.912   7.225   5.937
  183POPC  H11B20963   3.818   7.356   6.009
  183POPC     P20964   3.766   7.011   6.029
  183POPC   O1320965   3.651   6.942   6.090
  183POPC   O1420966   3.900   6.978   6.084
  183POPC   O1220967   3.746   7.167   6.054
  183POPC   O1120968   3.767   7.002   5.869
  183POPC    C120969   3.893   6.979   5.804
  183POPC    HA20970   3.914   6.870   5.805
  183POPC    HB20971   3.976   7.031   5.857
  183POPC    C220972   3.904   7.032   5.657
  183POPC    HS20973   4.012   7.034   5.630
  183POPC   O2120974   3.844   7.162   5.642
  183POPC   C2120975   3.920   7.261   5.682
  183POPC   O2220976   4.034   7.252   5.723
  183POPC   C2220977   3.844   7.393   5.666
  183POPC   H2R20978   3.795   7.415   5.763
  183POPC   H2S20979   3.764   7.378   5.592
  183POPC    C320980   3.837   6.937   5.555
  183POPC    HX20981   3.728   6.941   5.573
  183POPC    HY20982   3.871   6.833   5.577
  183POPC   O3120983   3.867   6.977   5.419
  183POPC   C3120984   3.952   6.903   5.349
  183POPC   O3220985   4.010   6.804   5.388
  183POPC   C3220986   3.958   6.951   5.205
  183POPC   H2X20987   3.868   7.013   5.183
  183POPC   H2Y20988   3.953   6.859   5.142
  183POPC   C2320989   3.937   7.510   5.624
  183POPC   H3R20990   4.041   7.475   5.603
  183POPC   H3S20991   3.943   7.582   5.709
  183POPC   C2420992   3.886   7.583   5.499
  183POPC   H4R20993   3.943   7.677   5.484
  183POPC   H4S20994   3.780   7.610   5.517
  183POPC   C2520995   3.897   7.497   5.373
  183POPC   H5R20996   3.856   7.396   5.395
  183POPC   H5S20997   4.003   7.483   5.343
  183POPC   C2620998   3.815   7.555   5.257
  183POPC   H6R20999   3.869   7.640   5.209
  183POPC   H6S21000   3.722   7.597   5.300
  183POPC   C2721001   3.774   7.449   5.155
  183POPC   H7R21002   3.670   7.477   5.125
  183POPC   H7S21003   3.766   7.349   5.203
  183POPC   C2821004   3.865   7.438   5.031
  183POPC   H8R21005   3.949   7.374   5.062
  183POPC   H8S21006   3.908   7.538   5.010
  183POPC   C2921007   3.796   7.388   4.906
  183POPC   H9121008   3.752   7.466   4.842
  183POPC  C21021009   3.774   7.263   4.864
  183POPC  H10121010   3.718   7.247   4.771
  183POPC  C21121011   3.815   7.138   4.935
  183POPC  H11R21012   3.738   7.115   5.012
  183POPC  H11S21013   3.912   7.149   4.988
  183POPC  C21221014   3.823   7.021   4.837
  183POPC  H12R21015   3.721   6.998   4.800
  183POPC  H12S21016   3.858   6.932   4.895
  183POPC  C21321017   3.916   7.041   4.717
  183POPC  H13R21018   4.021   7.050   4.752
  183POPC  H13S21019   3.890   7.136   4.664
  183POPC  C21421020   3.902   6.927   4.615
  183POPC  H14R21021   3.977   6.942   4.535
  183POPC  H14S21022   3.801   6.933   4.570
  183POPC  C21521023   3.921   6.790   4.679
  183POPC  H15R21024   3.839   6.768   4.750
  183POPC  H15S21025   4.015   6.797   4.738
  183POPC  C21621026   3.934   6.674   4.580
  183POPC  H16R21027   3.933   6.577   4.635
  183POPC  H16S21028   4.033   6.681   4.529
  183POPC  C21721029   3.831   6.675   4.469
  183POPC  H17R21030   3.833   6.773   4.418
  183POPC  H17S21031   3.729   6.659   4.511
  183POPC  C21821032   3.863   6.567   4.368
  183POPC  H18R21033   3.964   6.583   4.323
  183POPC  H18S21034   3.788   6.561   4.287
  183POPC  H18T21035   3.866   6.469   4.421
  183POPC   C3321036   4.087   7.027   5.172
  183POPC   H3X21037   4.096   7.028   5.061
  183POPC   H3Y21038   4.177   6.975   5.211
  183POPC   C3421039   4.081   7.171   5.223
  183POPC   H4X21040   4.094   7.171   5.334
  183POPC   H4Y21041   3.980   7.211   5.203
  183POPC   C3521042   4.183   7.266   5.160
  183POPC   H5X21043   4.286   7.239   5.193
  183POPC   H5Y21044   4.163   7.369   5.198
  183POPC   C3621045   4.180   7.270   5.006
  183POPC   H6X21046   4.077   7.258   4.965
  183POPC   H6Y21047   4.237   7.183   4.968
  183POPC   C3721048   4.236   7.400   4.950
  183POPC   H7X21049   4.335   7.415   4.998
  183POPC   H7Y21050   4.171   7.486   4.977
  183POPC   C3821051   4.258   7.397   4.799
  183POPC   H8X21052   4.296   7.297   4.769
  183POPC   H8Y21053   4.335   7.474   4.775
  183POPC   C3921054   4.136   7.426   4.712
  183POPC   H9X21055   4.091   7.523   4.743
  183POPC   H9Y21056   4.061   7.346   4.729
  183POPC  C31021057   4.177   7.432   4.564
  183POPC  H10X21058   4.224   7.336   4.534
  183POPC  H10Y21059   4.255   7.511   4.553
  183POPC  C31121060   4.060   7.465   4.473
  183POPC  H11X21061   4.096   7.491   4.371
  183POPC  H11Y21062   4.010   7.555   4.514
  183POPC  C31221063   3.959   7.350   4.461
  183POPC  H12X21064   3.866   7.388   4.414
  183POPC  H12Y21065   3.929   7.315   4.562
  183POPC  C31321066   4.014   7.234   4.378
  183POPC  H13X21067   4.091   7.179   4.436
  183POPC  H13Y21068   4.063   7.276   4.287
  183POPC  C31421069   3.905   7.137   4.334
  183POPC  H14X21070   3.829   7.190   4.273
  183POPC  H14Y21071   3.851   7.101   4.425
  183POPC  C31521072   3.959   7.016   4.256
  183POPC  H15X21073   3.878   6.941   4.246
  183POPC  H15Y21074   4.039   6.968   4.317
  183POPC  C31621075   4.015   7.050   4.118
  183POPC  H16X21076   3.937   7.100   4.055
  183POPC  H16Y21077   4.048   6.958   4.065
  183POPC  H16Z21078   4.102   7.119   4.126
  184POPC     N21079   4.617   0.094   6.246
  184POPC   C1221080   4.638  -0.010   6.355
  184POPC  H12A21081   4.545  -0.025   6.408
  184POPC  H12B21082   4.708   0.031   6.427
  184POPC   C1321083   4.748   0.154   6.206
  184POPC  H13A21084   4.811   0.076   6.166
  184POPC  H13B21085   4.737   0.230   6.130
  184POPC  H13C21086   4.801   0.196   6.291
  184POPC   C1421087   4.556   0.030   6.125
  184POPC  H14A21088   4.464  -0.021   6.149
  184POPC  H14B21089   4.540   0.101   6.045
  184POPC  H14C21090   4.623  -0.046   6.087
  184POPC   C1521091   4.528   0.202   6.300
  184POPC  H15A21092   4.573   0.247   6.388
  184POPC  H15B21093   4.433   0.162   6.331
  184POPC  H15C21094   4.513   0.282   6.229
  184POPC   C1121095   4.689  -0.150   6.313
  184POPC  H11A21096   4.607  -0.198   6.256
  184POPC  H11B21097   4.703  -0.212   6.404
  184POPC     P21098   4.831  -0.245   6.122
  184POPC   O1321099   4.734  -0.207   6.017
  184POPC   O1421100   4.823  -0.381   6.180
  184POPC   O1221101   4.815  -0.142   6.242
  184POPC   O1121102   4.975  -0.226   6.067
  184POPC    C121103   5.086  -0.173   6.137
  184POPC    HA21104   5.136  -0.252   6.198
  184POPC    HB21105   5.055  -0.095   6.209
  184POPC    C221106   5.190  -0.109   6.040
  184POPC    HS21107   5.250  -0.037   6.100
  184POPC   O2121108   5.131  -0.040   5.929
  184POPC   C2121109   5.024   0.033   5.947
  184POPC   O2221110   4.967   0.059   6.051
  184POPC   C2221111   4.986   0.095   5.815
  184POPC   H2R21112   4.985   0.018   5.735
  184POPC   H2S21113   5.071   0.160   5.784
  184POPC    C321114   5.291  -0.211   5.977
  184POPC    HX21115   5.337  -0.268   6.060
  184POPC    HY21116   5.369  -0.148   5.929
  184POPC   O3121117   5.235  -0.303   5.880
  184POPC   C3121118   5.273  -0.299   5.753
  184POPC   O3221119   5.349  -0.217   5.703
  184POPC   C3221120   5.224  -0.430   5.684
  184POPC   H2X21121   5.143  -0.471   5.748
  184POPC   H2Y21122   5.310  -0.500   5.690
  184POPC   C2321123   4.849   0.166   5.823
  184POPC   H3R21124   4.854   0.248   5.899
  184POPC   H3S21125   4.771   0.095   5.857
  184POPC   C2421126   4.808   0.228   5.690
  184POPC   H4R21127   4.899   0.273   5.644
  184POPC   H4S21128   4.735   0.310   5.706
  184POPC   C2521129   4.747   0.123   5.597
  184POPC   H5R21130   4.646   0.095   5.634
  184POPC   H5S21131   4.809   0.031   5.600
  184POPC   C2621132   4.740   0.170   5.452
  184POPC   H6R21133   4.678   0.262   5.448
  184POPC   H6S21134   4.689   0.093   5.390
  184POPC   C2721135   4.879   0.201   5.393
  184POPC   H7R21136   4.959   0.154   5.454
  184POPC   H7S21137   4.894   0.310   5.404
  184POPC   C2821138   4.895   0.155   5.247
  184POPC   H8R21139   4.797   0.165   5.196
  184POPC   H8S21140   4.922   0.047   5.245
  184POPC   C2921141   4.996   0.241   5.175
  184POPC   H9121142   4.984   0.347   5.198
  184POPC  C21021143   5.100   0.207   5.098
  184POPC  H10121144   5.161   0.288   5.054
  184POPC  C21121145   5.143   0.069   5.062
  184POPC  H11R21146   5.162   0.014   5.157
  184POPC  H11S21147   5.240   0.072   5.008
  184POPC  C21221148   5.040  -0.012   4.981
  184POPC  H12R21149   4.943  -0.011   5.034
  184POPC  H12S21150   5.078  -0.117   4.977
  184POPC  C21321151   5.014   0.035   4.837
  184POPC  H13R21152   4.979   0.141   4.842
  184POPC  H13S21153   4.932  -0.025   4.793
  184POPC  C21421154   5.139   0.023   4.750
  184POPC  H14R21155   5.161  -0.085   4.738
  184POPC  H14S21156   5.223   0.071   4.804
  184POPC  C21521157   5.131   0.092   4.614
  184POPC  H15R21158   5.228   0.141   4.593
  184POPC  H15S21159   5.053   0.170   4.618
  184POPC  C21621160   5.099  -0.002   4.498
  184POPC  H16R21161   5.077   0.060   4.408
  184POPC  H16S21162   5.008  -0.061   4.521
  184POPC  C21721163   5.216  -0.095   4.463
  184POPC  H17R21164   5.233  -0.166   4.547
  184POPC  H17S21165   5.309  -0.036   4.451
  184POPC  C21821166   5.186  -0.171   4.335
  184POPC  H18R21167   5.088  -0.223   4.341
  184POPC  H18S21168   5.265  -0.246   4.314
  184POPC  H18T21169   5.180  -0.100   4.250
  184POPC   C3321170   5.158  -0.438   5.541
  184POPC   H3X21171   5.234  -0.486   5.476
  184POPC   H3Y21172   5.154  -0.331   5.513
  184POPC   C3421173   5.021  -0.514   5.516
  184POPC   H4X21174   4.980  -0.549   5.613
  184POPC   H4Y21175   5.057  -0.601   5.457
  184POPC   C3521176   4.899  -0.476   5.421
  184POPC   H5X21177   4.935  -0.461   5.318
  184POPC   H5Y21178   4.849  -0.382   5.453
  184POPC   C3621179   4.786  -0.584   5.418
  184POPC   H6X21180   4.725  -0.568   5.510
  184POPC   H6Y21181   4.832  -0.684   5.435
  184POPC   C3721182   4.690  -0.607   5.294
  184POPC   H7X21183   4.602  -0.662   5.334
  184POPC   H7Y21184   4.740  -0.677   5.224
  184POPC   C3821185   4.638  -0.485   5.212
  184POPC   H8X21186   4.728  -0.441   5.165
  184POPC   H8Y21187   4.600  -0.416   5.290
  184POPC   C3921188   4.522  -0.505   5.107
  184POPC   H9X21189   4.447  -0.560   5.167
  184POPC   H9Y21190   4.557  -0.581   5.033
  184POPC  C31021191   4.434  -0.386   5.041
  184POPC  H10X21192   4.390  -0.320   5.118
  184POPC  H10Y21193   4.346  -0.447   5.010
  184POPC  C31121194   4.456  -0.305   4.905
  184POPC  H11X21195   4.351  -0.290   4.870
  184POPC  H11Y21196   4.498  -0.367   4.823
  184POPC  C31221197   4.512  -0.160   4.880
  184POPC  H12X21198   4.612  -0.140   4.924
  184POPC  H12Y21199   4.445  -0.084   4.924
  184POPC  C31321200   4.532  -0.140   4.726
  184POPC  H13X21201   4.442  -0.180   4.674
  184POPC  H13Y21202   4.619  -0.206   4.705
  184POPC  C31421203   4.574  -0.008   4.657
  184POPC  H14X21204   4.670   0.029   4.697
  184POPC  H14Y21205   4.498   0.071   4.671
  184POPC  C31521206   4.588  -0.034   4.504
  184POPC  H15X21207   4.506  -0.102   4.474
  184POPC  H15Y21208   4.683  -0.089   4.486
  184POPC  C31621209   4.581   0.087   4.411
  184POPC  H16X21210   4.671   0.152   4.423
  184POPC  H16Y21211   4.490   0.147   4.431
  184POPC  H16Z21212   4.578   0.055   4.304
  185POPC     N21213   4.442   3.001   2.111
  185POPC   C1221214   4.315   3.012   2.192
  185POPC  H12A21215   4.288   2.914   2.228
  185POPC  H12B21216   4.236   3.047   2.127
  185POPC   C1321217   4.492   3.138   2.077
  185POPC  H13A21218   4.586   3.132   2.023
  185POPC  H13B21219   4.420   3.193   2.018
  185POPC  H13C21220   4.514   3.192   2.167
  185POPC   C1421221   4.550   2.934   2.192
  185POPC  H14A21222   4.529   2.830   2.209
  185POPC  H14B21223   4.647   2.946   2.144
  185POPC  H14C21224   4.555   2.982   2.288
  185POPC   C1521225   4.416   2.924   1.986
  185POPC  H15A21226   4.505   2.921   1.924
  185POPC  H15B21227   4.341   2.973   1.926
  185POPC  H15C21228   4.383   2.823   2.006
  185POPC   C1121229   4.320   3.106   2.315
  185POPC  H11A21230   4.219   3.110   2.361
  185POPC  H11B21231   4.346   3.209   2.282
  185POPC     P21232   4.458   3.146   2.531
  185POPC   O1321233   4.394   3.279   2.512
  185POPC   O1421234   4.606   3.144   2.541
  185POPC   O1221235   4.415   3.056   2.409
  185POPC   O1121236   4.391   3.071   2.653
  185POPC    C121237   4.260   3.014   2.645
  185POPC    HA21238   4.220   3.009   2.542
  185POPC    HB21239   4.191   3.078   2.703
  185POPC    C221240   4.256   2.868   2.699
  185POPC    HS21241   4.151   2.832   2.691
  185POPC   O2121242   4.300   2.867   2.836
  185POPC   C2121243   4.212   2.927   2.916
  185POPC   O2221244   4.093   2.938   2.892
  185POPC   C2221245   4.281   2.986   3.038
  185POPC   H2R21246   4.227   3.080   3.062
  185POPC   H2S21247   4.386   3.011   3.013
  185POPC    C321248   4.339   2.770   2.609
  185POPC    HX21249   4.304   2.784   2.505
  185POPC    HY21250   4.317   2.665   2.636
  185POPC   O3121251   4.480   2.798   2.612
  185POPC   C3121252   4.542   2.744   2.716
  185POPC   O3221253   4.498   2.651   2.783
  185POPC   C3221254   4.671   2.819   2.744
  185POPC   H2X21255   4.685   2.893   2.662
  185POPC   H2Y21256   4.755   2.747   2.739
  185POPC   C2321257   4.274   2.891   3.159
  185POPC   H3R21258   4.348   2.810   3.139
  185POPC   H3S21259   4.174   2.843   3.167
  185POPC   C2421260   4.303   2.962   3.291
  185POPC   H4R21261   4.220   3.033   3.314
  185POPC   H4S21262   4.396   3.022   3.280
  185POPC   C2521263   4.323   2.865   3.409
  185POPC   H5R21264   4.231   2.806   3.427
  185POPC   H5S21265   4.346   2.924   3.500
  185POPC   C2621266   4.440   2.772   3.378
  185POPC   H6R21267   4.524   2.835   3.341
  185POPC   H6S21268   4.412   2.700   3.298
  185POPC   C2721269   4.492   2.691   3.496
  185POPC   H7R21270   4.419   2.611   3.519
  185POPC   H7S21271   4.503   2.755   3.586
  185POPC   C2821272   4.625   2.629   3.452
  185POPC   H8R21273   4.617   2.613   3.342
  185POPC   H8S21274   4.631   2.525   3.492
  185POPC   C2921275   4.754   2.702   3.478
  185POPC   H9121276   4.821   2.707   3.390
  185POPC  C21021277   4.798   2.763   3.588
  185POPC  H10121278   4.900   2.805   3.584
  185POPC  C21121279   4.733   2.776   3.722
  185POPC  H11R21280   4.807   2.746   3.800
  185POPC  H11S21281   4.645   2.710   3.733
  185POPC  C21221282   4.687   2.921   3.746
  185POPC  H12R21283   4.600   2.942   3.679
  185POPC  H12S21284   4.766   2.994   3.720
  185POPC  C21321285   4.645   2.943   3.891
  185POPC  H13R21286   4.564   2.871   3.917
  185POPC  H13S21287   4.603   3.046   3.899
  185POPC  C21421288   4.759   2.932   3.993
  185POPC  H14R21289   4.839   3.002   3.962
  185POPC  H14S21290   4.802   2.830   3.996
  185POPC  C21521291   4.709   2.971   4.132
  185POPC  H15R21292   4.646   3.062   4.120
  185POPC  H15S21293   4.797   2.999   4.194
  185POPC  C21621294   4.629   2.862   4.203
  185POPC  H16R21295   4.699   2.782   4.235
  185POPC  H16S21296   4.557   2.817   4.131
  185POPC  C21721297   4.548   2.910   4.325
  185POPC  H17R21298   4.617   2.950   4.402
  185POPC  H17S21299   4.498   2.821   4.370
  185POPC  C21821300   4.441   3.014   4.293
  185POPC  H18R21301   4.488   3.113   4.272
  185POPC  H18S21302   4.371   3.027   4.378
  185POPC  H18T21303   4.383   2.984   4.203
  185POPC   C3321304   4.667   2.892   2.880
  185POPC   H3X21305   4.570   2.879   2.932
  185POPC   H3Y21306   4.678   3.001   2.860
  185POPC   C3421307   4.779   2.846   2.975
  185POPC   H4X21308   4.867   2.816   2.913
  185POPC   H4Y21309   4.745   2.755   3.029
  185POPC   C3521310   4.819   2.953   3.076
  185POPC   H5X21311   4.809   3.053   3.031
  185POPC   H5Y21312   4.926   2.940   3.106
  185POPC   C3621313   4.734   2.941   3.202
  185POPC   H6X21314   4.757   2.843   3.249
  185POPC   H6Y21315   4.627   2.939   3.173
  185POPC   C3721316   4.756   3.053   3.304
  185POPC   H7X21317   4.864   3.063   3.328
  185POPC   H7Y21318   4.704   3.023   3.397
  185POPC   C3821319   4.700   3.187   3.253
  185POPC   H8X21320   4.604   3.168   3.202
  185POPC   H8Y21321   4.771   3.228   3.177
  185POPC   C3921322   4.678   3.290   3.364
  185POPC   H9X21323   4.657   3.389   3.317
  185POPC   H9Y21324   4.770   3.300   3.425
  185POPC  C31021325   4.558   3.255   3.454
  185POPC  H10X21326   4.574   3.154   3.498
  185POPC  H10Y21327   4.467   3.249   3.391
  185POPC  C31121328   4.537   3.356   3.566
  185POPC  H11X21329   4.531   3.458   3.522
  185POPC  H11Y21330   4.626   3.354   3.633
  185POPC  C31221331   4.410   3.330   3.649
  185POPC  H12X21332   4.321   3.342   3.584
  185POPC  H12Y21333   4.404   3.407   3.729
  185POPC  C31321334   4.407   3.191   3.713
  185POPC  H13X21335   4.504   3.174   3.764
  185POPC  H13Y21336   4.397   3.113   3.635
  185POPC  C31421337   4.293   3.176   3.815
  185POPC  H14X21338   4.195   3.189   3.763
  185POPC  H14Y21339   4.303   3.256   3.891
  185POPC  C31521340   4.295   3.041   3.886
  185POPC  H15X21341   4.395   3.026   3.931
  185POPC  H15Y21342   4.279   2.959   3.813
  185POPC  C31621343   4.192   3.031   3.999
  185POPC  H16X21344   4.213   2.941   4.060
  185POPC  H16Y21345   4.089   3.023   3.958
  185POPC  H16Z21346   4.198   3.119   4.065
  186POPC     N21347   4.740   4.313   2.312
  186POPC   C1221348   4.662   4.404   2.406
  186POPC  H12A21349   4.733   4.464   2.462
  186POPC  H12B21350   4.607   4.344   2.477
  186POPC   C1321351   4.653   4.268   2.199
  186POPC  H13A21352   4.709   4.212   2.126
  186POPC  H13B21353   4.570   4.208   2.234
  186POPC  H13C21354   4.610   4.355   2.151
  186POPC   C1421355   4.855   4.390   2.252
  186POPC  H14A21356   4.817   4.476   2.199
  186POPC  H14B21357   4.920   4.429   2.329
  186POPC  H14C21358   4.912   4.330   2.184
  186POPC   C1521359   4.798   4.195   2.381
  186POPC  H15A21360   4.721   4.131   2.421
  186POPC  H15B21361   4.864   4.225   2.461
  186POPC  H15C21362   4.857   4.137   2.311
  186POPC   C1121363   4.562   4.505   2.343
  186POPC  H11A21364   4.521   4.570   2.424
  186POPC  H11B21365   4.475   4.448   2.304
  186POPC     P21366   4.709   4.709   2.268
  186POPC   O1321367   4.620   4.818   2.314
  186POPC   O1421368   4.790   4.730   2.146
  186POPC   O1221369   4.618   4.583   2.237
  186POPC   O1121370   4.799   4.650   2.383
  186POPC    C121371   4.867   4.724   2.483
  186POPC    HA21372   4.806   4.809   2.521
  186POPC    HB21373   4.962   4.764   2.442
  186POPC    C221374   4.899   4.631   2.603
  186POPC    HS21375   4.950   4.541   2.561
  186POPC   O2121376   4.774   4.592   2.664
  186POPC   C2121377   4.778   4.529   2.780
  186POPC   O2221378   4.873   4.467   2.825
  186POPC   C2221379   4.642   4.547   2.847
  186POPC   H2R21380   4.563   4.514   2.775
  186POPC   H2S21381   4.628   4.656   2.864
  186POPC    C321382   5.000   4.697   2.702
  186POPC    HX21383   5.081   4.747   2.644
  186POPC    HY21384   5.048   4.615   2.760
  186POPC   O3121385   4.933   4.791   2.788
  186POPC   C3121386   5.009   4.824   2.892
  186POPC   O3221387   5.127   4.798   2.904
  186POPC   C3221388   4.924   4.898   2.994
  186POPC   H2X21389   4.868   4.978   2.940
  186POPC   H2Y21390   4.993   4.947   3.066
  186POPC   C2321391   4.624   4.471   2.980
  186POPC   H3R21392   4.709   4.491   3.050
  186POPC   H3S21393   4.624   4.362   2.959
  186POPC   C2421394   4.492   4.508   3.049
  186POPC   H4R21395   4.458   4.422   3.111
  186POPC   H4S21396   4.415   4.524   2.971
  186POPC   C2521397   4.498   4.631   3.141
  186POPC   H5R21398   4.396   4.672   3.155
  186POPC   H5S21399   4.559   4.711   3.094
  186POPC   C2621400   4.553   4.596   3.280
  186POPC   H6R21401   4.650   4.541   3.268
  186POPC   H6S21402   4.482   4.526   3.328
  186POPC   C2721403   4.574   4.716   3.373
  186POPC   H7R21404   4.475   4.751   3.408
  186POPC   H7S21405   4.621   4.799   3.317
  186POPC   C2821406   4.664   4.683   3.495
  186POPC   H8R21407   4.664   4.771   3.563
  186POPC   H8S21408   4.768   4.670   3.458
  186POPC   C2921409   4.617   4.561   3.569
  186POPC   H9121410   4.508   4.558   3.583
  186POPC  C21021411   4.691   4.458   3.616
  186POPC  H10121412   4.640   4.375   3.667
  186POPC  C21121413   4.841   4.443   3.608
  186POPC  H11R21414   4.886   4.544   3.612
  186POPC  H11S21415   4.876   4.404   3.510
  186POPC  C21221416   4.902   4.358   3.723
  186POPC  H12R21417   4.827   4.332   3.800
  186POPC  H12S21418   4.976   4.422   3.774
  186POPC  C21321419   4.979   4.232   3.680
  186POPC  H13R21420   5.011   4.242   3.574
  186POPC  H13S21421   4.911   4.145   3.686
  186POPC  C21421422   5.105   4.202   3.764
  186POPC  H14R21423   5.185   4.273   3.736
  186POPC  H14S21424   5.140   4.100   3.737
  186POPC  C21521425   5.086   4.209   3.917
  186POPC  H15R21426   5.067   4.314   3.947
  186POPC  H15S21427   5.180   4.176   3.966
  186POPC  C21621428   4.970   4.123   3.969
  186POPC  H16R21429   4.990   4.016   3.944
  186POPC  H16S21430   4.876   4.152   3.918
  186POPC  C21721431   4.947   4.136   4.120
  186POPC  H17R21432   5.045   4.132   4.173
  186POPC  H17S21433   4.889   4.048   4.154
  186POPC  C21821434   4.870   4.262   4.161
  186POPC  H18R21435   4.938   4.349   4.165
  186POPC  H18S21436   4.789   4.283   4.088
  186POPC  H18T21437   4.823   4.250   4.261
  186POPC   C3321438   4.826   4.805   3.067
  186POPC   H3X21439   4.749   4.767   2.996
  186POPC   H3Y21440   4.772   4.865   3.144
  186POPC   C3421441   4.896   4.689   3.137
  186POPC   H4X21442   4.933   4.613   3.064
  186POPC   H4Y21443   4.823   4.638   3.203
  186POPC   C3521444   5.012   4.739   3.223
  186POPC   H5X21445   4.978   4.834   3.269
  186POPC   H5Y21446   5.101   4.762   3.161
  186POPC   C3621447   5.053   4.645   3.336
  186POPC   H6X21448   5.109   4.557   3.297
  186POPC   H6Y21449   4.962   4.606   3.385
  186POPC   C3721450   5.135   4.725   3.437
  186POPC   H7X21451   5.139   4.830   3.401
  186POPC   H7Y21452   5.243   4.696   3.442
  186POPC   C3821453   5.070   4.732   3.574
  186POPC   H8X21454   4.960   4.727   3.560
  186POPC   H8Y21455   5.091   4.835   3.609
  186POPC   C3921456   5.114   4.641   3.691
  186POPC   H9X21457   5.220   4.660   3.718
  186POPC   H9Y21458   5.106   4.534   3.661
  186POPC  C31021459   5.022   4.679   3.808
  186POPC  H10X21460   4.918   4.665   3.771
  186POPC  H10Y21461   5.032   4.788   3.827
  186POPC  C31121462   5.033   4.612   3.945
  186POPC  H11X21463   5.082   4.682   4.016
  186POPC  H11Y21464   5.097   4.522   3.940
  186POPC  C31221465   4.892   4.576   3.998
  186POPC  H12X21466   4.882   4.465   3.997
  186POPC  H12Y21467   4.814   4.611   3.928
  186POPC  C31321468   4.856   4.633   4.136
  186POPC  H13X21469   4.867   4.744   4.135
  186POPC  H13Y21470   4.928   4.593   4.210
  186POPC  C31421471   4.713   4.596   4.179
  186POPC  H14X21472   4.707   4.606   4.289
  186POPC  H14Y21473   4.696   4.489   4.154
  186POPC  C31521474   4.602   4.680   4.115
  186POPC  H15X21475   4.505   4.626   4.122
  186POPC  H15Y21476   4.621   4.692   4.006
  186POPC  C31621477   4.581   4.817   4.181
  186POPC  H16X21478   4.504   4.875   4.126
  186POPC  H16Y21479   4.675   4.875   4.183
  186POPC  H16Z21480   4.545   4.804   4.286
  187POPC     N21481   5.001   1.330   2.459
  187POPC   C1221482   4.865   1.374   2.409
  187POPC  H12A21483   4.855   1.481   2.420
  187POPC  H12B21484   4.790   1.331   2.473
  187POPC   C1321485   5.040   1.200   2.395
  187POPC  H13A21486   5.137   1.167   2.429
  187POPC  H13B21487   4.970   1.122   2.418
  187POPC  H13C21488   5.044   1.211   2.288
  187POPC   C1421489   5.104   1.433   2.424
  187POPC  H14A21490   5.096   1.461   2.320
  187POPC  H14B21491   5.088   1.524   2.480
  187POPC  H14C21492   5.203   1.398   2.446
  187POPC   C1521493   5.001   1.312   2.608
  187POPC  H15A21494   5.099   1.286   2.644
  187POPC  H15B21495   4.933   1.233   2.639
  187POPC  H15C21496   4.974   1.403   2.659
  187POPC   C1121497   4.823   1.341   2.262
  187POPC  H11A21498   4.716   1.366   2.248
  187POPC  H11B21499   4.829   1.231   2.244
  187POPC     P21500   4.887   1.567   2.150
  187POPC   O1321501   4.850   1.592   2.009
  187POPC   O1421502   5.014   1.622   2.202
  187POPC   O1221503   4.903   1.409   2.166
  187POPC   O1121504   4.764   1.603   2.246
  187POPC    C121505   4.726   1.741   2.264
  187POPC    HA21506   4.665   1.779   2.179
  187POPC    HB21507   4.817   1.803   2.268
  187POPC    C221508   4.656   1.774   2.401
  187POPC    HS21509   4.665   1.884   2.411
  187POPC   O2121510   4.750   1.706   2.495
  187POPC   C2121511   4.842   1.786   2.558
  187POPC   O2221512   4.851   1.906   2.540
  187POPC   C2221513   4.924   1.711   2.667
  187POPC   H2R21514   4.990   1.637   2.616
  187POPC   H2S21515   4.853   1.658   2.734
  187POPC    C321516   4.487   1.751   2.406
  187POPC    HX21517   4.469   1.708   2.305
  187POPC    HY21518   4.442   1.853   2.405
  187POPC   O3121519   4.415   1.665   2.504
  187POPC   C3121520   4.293   1.650   2.568
  187POPC   O3221521   4.202   1.728   2.548
  187POPC   C3221522   4.276   1.516   2.670
  187POPC   H2X21523   4.288   1.420   2.615
  187POPC   H2Y21524   4.165   1.520   2.675
  187POPC   C2321525   5.012   1.806   2.756
  187POPC   H3R21526   4.950   1.888   2.798
  187POPC   H3S21527   5.086   1.855   2.688
  187POPC   C2421528   5.095   1.746   2.874
  187POPC   H4R21529   5.175   1.820   2.895
  187POPC   H4S21530   5.146   1.652   2.844
  187POPC   C2521531   5.020   1.729   3.009
  187POPC   H5R21532   4.958   1.636   3.007
  187POPC   H5S21533   4.951   1.816   3.018
  187POPC   C2621534   5.108   1.730   3.137
  187POPC   H6R21535   5.187   1.807   3.124
  187POPC   H6S21536   5.160   1.633   3.151
  187POPC   C2721537   5.030   1.767   3.265
  187POPC   H7R21538   4.926   1.794   3.234
  187POPC   H7S21539   5.073   1.859   3.311
  187POPC   C2821540   5.016   1.658   3.374
  187POPC   H8R21541   5.006   1.559   3.324
  187POPC   H8S21542   4.919   1.677   3.425
  187POPC   C2921543   5.122   1.651   3.481
  187POPC   H9121544   5.183   1.559   3.479
  187POPC  C21021545   5.147   1.740   3.579
  187POPC  H10121546   5.229   1.717   3.649
  187POPC  C21121547   5.080   1.872   3.609
  187POPC  H11R21548   4.972   1.868   3.581
  187POPC  H11S21549   5.127   1.954   3.551
  187POPC  C21221550   5.090   1.908   3.759
  187POPC  H12R21551   5.053   1.822   3.819
  187POPC  H12S21552   5.025   1.995   3.780
  187POPC  C21321553   5.232   1.947   3.805
  187POPC  H13R21554   5.264   2.042   3.756
  187POPC  H13S21555   5.303   1.870   3.767
  187POPC  C21421556   5.259   1.960   3.956
  187POPC  H14R21557   5.327   2.045   3.976
  187POPC  H14S21558   5.317   1.870   3.985
  187POPC  C21521559   5.141   1.964   4.053
  187POPC  H15R21560   5.061   1.897   4.014
  187POPC  H15S21561   5.103   2.068   4.059
  187POPC  C21621562   5.172   1.915   4.195
  187POPC  H16R21563   5.254   1.978   4.237
  187POPC  H16S21564   5.208   1.810   4.193
  187POPC  C21721565   5.049   1.926   4.287
  187POPC  H17R21566   5.001   2.024   4.267
  187POPC  H17S21567   5.086   1.927   4.392
  187POPC  C21821568   4.943   1.817   4.271
  187POPC  H18R21569   4.962   1.757   4.179
  187POPC  H18S21570   4.842   1.861   4.263
  187POPC  H18T21571   4.940   1.747   4.357
  187POPC   C3321572   4.301   1.469   2.828
  187POPC   H3X21573   4.229   1.385   2.835
  187POPC   H3Y21574   4.260   1.544   2.898
  187POPC   C3421575   4.428   1.403   2.901
  187POPC   H4X21576   4.459   1.312   2.846
  187POPC   H4Y21577   4.391   1.369   2.999
  187POPC   C3521578   4.555   1.489   2.933
  187POPC   H5X21579   4.525   1.594   2.949
  187POPC   H5Y21580   4.630   1.475   2.852
  187POPC   C3621581   4.656   1.474   3.048
  187POPC   H6X21582   4.736   1.549   3.029
  187POPC   H6Y21583   4.710   1.377   3.046
  187POPC   C3721584   4.595   1.510   3.180
  187POPC   H7X21585   4.519   1.433   3.206
  187POPC   H7Y21586   4.543   1.608   3.173
  187POPC   C3821587   4.699   1.520   3.290
  187POPC   H8X21588   4.752   1.617   3.284
  187POPC   H8Y21589   4.775   1.439   3.281
  187POPC   C3921590   4.626   1.506   3.422
  187POPC   H9X21591   4.576   1.407   3.424
  187POPC   H9Y21592   4.546   1.583   3.427
  187POPC  C31021593   4.714   1.518   3.545
  187POPC  H10X21594   4.761   1.619   3.549
  187POPC  H10Y21595   4.795   1.442   3.541
  187POPC  C31121596   4.628   1.498   3.668
  187POPC  H11X21597   4.563   1.409   3.651
  187POPC  H11Y21598   4.561   1.585   3.682
  187POPC  C31221599   4.709   1.473   3.794
  187POPC  H12X21600   4.765   1.377   3.784
  187POPC  H12Y21601   4.635   1.462   3.876
  187POPC  C31321602   4.807   1.583   3.834
  187POPC  H13X21603   4.749   1.677   3.849
  187POPC  H13Y21604   4.880   1.603   3.752
  187POPC  C31421605   4.884   1.549   3.963
  187POPC  H14X21606   4.928   1.642   4.003
  187POPC  H14Y21607   4.967   1.480   3.937
  187POPC  C31521608   4.796   1.480   4.070
  187POPC  H15X21609   4.760   1.384   4.029
  187POPC  H15Y21610   4.708   1.545   4.091
  187POPC  C31621611   4.867   1.447   4.201
  187POPC  H16X21612   4.901   1.540   4.253
  187POPC  H16Y21613   4.956   1.383   4.182
  187POPC  H16Z21614   4.799   1.391   4.269
  188POPC     N21615   6.517   3.370   2.182
  188POPC   C1221616   6.394   3.408   2.264
  188POPC  H12A21617   6.340   3.317   2.290
  188POPC  H12B21618   6.328   3.468   2.203
  188POPC   C1321619   6.619   3.302   2.268
  188POPC  H13A21620   6.585   3.205   2.303
  188POPC  H13B21621   6.714   3.291   2.218
  188POPC  H13C21622   6.638   3.362   2.355
  188POPC   C1421623   6.482   3.280   2.067
  188POPC  H14A21624   6.410   3.326   2.002
  188POPC  H14B21625   6.571   3.257   2.009
  188POPC  H14C21626   6.442   3.186   2.102
  188POPC   C1521627   6.582   3.495   2.130
  188POPC  H15A21628   6.605   3.558   2.215
  188POPC  H15B21629   6.515   3.553   2.068
  188POPC  H15C21630   6.674   3.475   2.078
  188POPC   C1121631   6.412   3.489   2.396
  188POPC  H11A21632   6.465   3.425   2.471
  188POPC  H11B21633   6.312   3.508   2.439
  188POPC     P21634   6.607   3.657   2.451
  188POPC   O1321635   6.573   3.699   2.588
  188POPC   O1421636   6.683   3.752   2.366
  188POPC   O1221637   6.476   3.615   2.372
  188POPC   O1121638   6.683   3.518   2.452
  188POPC    C121639   6.751   3.472   2.568
  188POPC    HA21640   6.708   3.512   2.662
  188POPC    HB21641   6.859   3.500   2.560
  188POPC    C221642   6.759   3.318   2.582
  188POPC    HS21643   6.826   3.284   2.501
  188POPC   O2121644   6.627   3.262   2.567
  188POPC   C2121645   6.631   3.131   2.552
  188POPC   O2221646   6.727   3.067   2.514
  188POPC   C2221647   6.495   3.073   2.583
  188POPC   H2R21648   6.507   2.963   2.596
  188POPC   H2S21649   6.431   3.091   2.494
  188POPC    C321650   6.821   3.276   2.719
  188POPC    HX21651   6.922   3.322   2.727
  188POPC    HY21652   6.839   3.166   2.715
  188POPC   O3121653   6.732   3.302   2.830
  188POPC   C3121654   6.769   3.401   2.909
  188POPC   O3221655   6.874   3.461   2.902
  188POPC   C3221656   6.663   3.433   3.014
  188POPC   H2X21657   6.709   3.414   3.113
  188POPC   H2Y21658   6.574   3.368   3.000
  188POPC   C2321659   6.429   3.135   2.708
  188POPC   H3R21660   6.482   3.225   2.746
  188POPC   H3S21661   6.433   3.060   2.790
  188POPC   C2421662   6.284   3.176   2.679
  188POPC   H4R21663   6.238   3.093   2.622
  188POPC   H4S21664   6.280   3.268   2.617
  188POPC   C2521665   6.203   3.192   2.807
  188POPC   H5R21666   6.237   3.110   2.875
  188POPC   H5S21667   6.095   3.178   2.786
  188POPC   C2621668   6.221   3.321   2.887
  188POPC   H6R21669   6.184   3.409   2.830
  188POPC   H6S21670   6.330   3.334   2.904
  188POPC   C2721671   6.146   3.307   3.021
  188POPC   H7R21672   6.175   3.210   3.068
  188POPC   H7S21673   6.037   3.301   3.000
  188POPC   C2821674   6.172   3.416   3.124
  188POPC   H8R21675   6.115   3.396   3.217
  188POPC   H8S21676   6.134   3.512   3.083
  188POPC   C2921677   6.321   3.421   3.148
  188POPC   H9121678   6.376   3.471   3.067
  188POPC  C21021679   6.391   3.369   3.249
  188POPC  H10121680   6.500   3.383   3.250
  188POPC  C21121681   6.339   3.290   3.366
  188POPC  H11R21682   6.385   3.189   3.365
  188POPC  H11S21683   6.229   3.276   3.361
  188POPC  C21221684   6.375   3.359   3.498
  188POPC  H12R21685   6.483   3.384   3.505
  188POPC  H12S21686   6.354   3.285   3.578
  188POPC  C21321687   6.290   3.485   3.524
  188POPC  H13R21688   6.197   3.476   3.464
  188POPC  H13S21689   6.341   3.577   3.489
  188POPC  C21421690   6.248   3.497   3.671
  188POPC  H14R21691   6.255   3.398   3.721
  188POPC  H14S21692   6.141   3.525   3.677
  188POPC  C21521693   6.322   3.602   3.753
  188POPC  H15R21694   6.327   3.700   3.700
  188POPC  H15S21695   6.426   3.567   3.769
  188POPC  C21621696   6.247   3.619   3.885
  188POPC  H16R21697   6.202   3.521   3.912
  188POPC  H16S21698   6.161   3.688   3.873
  188POPC  C21721699   6.334   3.663   4.003
  188POPC  H17R21700   6.331   3.773   4.011
  188POPC  H17S21701   6.441   3.636   3.984
  188POPC  C21821702   6.289   3.598   4.133
  188POPC  H18R21703   6.183   3.623   4.156
  188POPC  H18S21704   6.354   3.634   4.216
  188POPC  H18T21705   6.297   3.488   4.129
  188POPC   C3321706   6.628   3.582   3.000
  188POPC   H3X21707   6.552   3.595   2.920
  188POPC   H3Y21708   6.717   3.637   2.964
  188POPC   C3421709   6.582   3.659   3.125
  188POPC   H4X21710   6.477   3.629   3.148
  188POPC   H4Y21711   6.582   3.766   3.097
  188POPC   C3521712   6.654   3.646   3.259
  188POPC   H5X21713   6.765   3.648   3.250
  188POPC   H5Y21714   6.627   3.550   3.307
  188POPC   C3621715   6.607   3.763   3.347
  188POPC   H6X21716   6.505   3.791   3.314
  188POPC   H6Y21717   6.672   3.852   3.332
  188POPC   C3721718   6.595   3.730   3.495
  188POPC   H7X21719   6.549   3.629   3.506
  188POPC   H7Y21720   6.526   3.802   3.544
  188POPC   C3821721   6.728   3.732   3.570
  188POPC   H8X21722   6.770   3.835   3.569
  188POPC   H8Y21723   6.800   3.665   3.519
  188POPC   C3921724   6.705   3.684   3.712
  188POPC   H9X21725   6.656   3.585   3.704
  188POPC   H9Y21726   6.633   3.750   3.766
  188POPC  C31021727   6.833   3.670   3.793
  188POPC  H10X21728   6.849   3.760   3.855
  188POPC  H10Y21729   6.920   3.660   3.725
  188POPC  C31121730   6.824   3.546   3.882
  188POPC  H11X21731   6.729   3.550   3.940
  188POPC  H11Y21732   6.905   3.550   3.957
  188POPC  C31221733   6.833   3.416   3.801
  188POPC  H12X21734   6.873   3.439   3.700
  188POPC  H12Y21735   6.732   3.374   3.779
  188POPC  C31321736   6.924   3.315   3.870
  188POPC  H13X21737   7.002   3.369   3.928
  188POPC  H13Y21738   6.972   3.245   3.798
  188POPC  C31421739   6.855   3.224   3.966
  188POPC  H14X21740   6.790   3.292   4.025
  188POPC  H14Y21741   6.929   3.176   4.034
  188POPC  C31521742   6.776   3.117   3.892
  188POPC  H15X21743   6.851   3.038   3.871
  188POPC  H15Y21744   6.740   3.156   3.795
  188POPC  C31621745   6.659   3.056   3.967
  188POPC  H16X21746   6.591   3.133   4.010
  188POPC  H16Y21747   6.694   2.994   4.053
  188POPC  H16Z21748   6.595   2.995   3.900
  189SAPI   C1221749   4.538   1.113   6.653
  189SAPI    H221750   4.499   1.042   6.577
  189SAPI    O221751   4.449   1.224   6.662
  189SAPI   HO221752   4.488   1.284   6.598
  189SAPI   C1321753   4.549   1.038   6.785
  189SAPI    H321754   4.618   0.952   6.771
  189SAPI    O321755   4.421   0.985   6.820
  189SAPI   HO321756   4.356   1.042   6.778
  189SAPI   C1421757   4.607   1.128   6.894
  189SAPI    H421758   4.539   1.215   6.909
  189SAPI    O421759   4.616   1.059   7.020
  189SAPI   HO421760   4.660   0.975   7.004
  189SAPI   C1521761   4.743   1.182   6.850
  189SAPI    H521762   4.809   1.093   6.839
  189SAPI    O521763   4.803   1.266   6.948
  189SAPI   HO521764   4.896   1.272   6.924
  189SAPI   C1621765   4.733   1.255   6.716
  189SAPI    H621766   4.670   1.345   6.729
  189SAPI    O621767   4.862   1.297   6.672
  189SAPI   HO621768   4.861   1.288   6.577
  189SAPI   C1121769   4.674   1.165   6.609
  189SAPI    H121770   4.742   1.078   6.596
  189SAPI     P21771   4.654   1.160   6.342
  189SAPI   O1321772   4.524   1.088   6.338
  189SAPI   O1421773   4.779   1.085   6.327
  189SAPI   O1221774   4.660   1.240   6.487
  189SAPI   O1121775   4.646   1.282   6.240
  189SAPI    C121776   4.537   1.373   6.255
  189SAPI    HA21777   4.440   1.319   6.246
  189SAPI    HB21778   4.540   1.421   6.355
  189SAPI    C221779   4.541   1.488   6.151
  189SAPI    HS21780   4.449   1.550   6.165
  189SAPI   O2121781   4.545   1.439   6.016
  189SAPI   C2121782   4.448   1.360   5.974
  189SAPI   O2221783   4.341   1.341   6.030
  189SAPI   C2221784   4.484   1.319   5.831
  189SAPI   H2R21785   4.510   1.412   5.777
  189SAPI   H2S21786   4.574   1.255   5.834
  189SAPI    C321787   4.663   1.583   6.172
  189SAPI    HX21788   4.677   1.604   6.280
  189SAPI    HY21789   4.639   1.680   6.123
  189SAPI   O3121790   4.783   1.533   6.108
  189SAPI   C3121791   4.871   1.471   6.185
  189SAPI   O3221792   4.874   1.475   6.307
  189SAPI   C3221793   4.974   1.402   6.096
  189SAPI   H2X21794   5.053   1.363   6.163
  189SAPI   H2Y21795   5.019   1.477   6.028
  189SAPI   C2321796   4.372   1.246   5.753
  189SAPI   H3R21797   4.272   1.266   5.798
  189SAPI   H3S21798   4.388   1.137   5.759
  189SAPI   C2421799   4.369   1.292   5.605
  189SAPI   H4R21800   4.467   1.268   5.560
  189SAPI   H4S21801   4.360   1.403   5.601
  189SAPI   C2521802   4.254   1.231   5.531
  189SAPI   H5R21803   4.154   1.253   5.572
  189SAPI   C2621804   4.261   1.154   5.420
  189SAPI   H6R21805   4.168   1.114   5.376
  189SAPI   C2721806   4.386   1.112   5.347
  189SAPI   H7R21807   4.434   1.202   5.305
  189SAPI   H7S21808   4.355   1.051   5.260
  189SAPI   C2821809   4.488   1.035   5.426
  189SAPI   H8R21810   4.469   1.020   5.534
  189SAPI   C2921811   4.600   0.985   5.372
  189SAPI   H9R21812   4.672   0.932   5.435
  189SAPI  C21021813   4.636   0.999   5.226
  189SAPI  H10R21814   4.709   1.081   5.212
  189SAPI  H10S21815   4.548   1.024   5.162
  189SAPI  C21121816   4.695   0.870   5.178
  189SAPI  H11R21817   4.687   0.784   5.246
  189SAPI  C21221818   4.761   0.851   5.064
  189SAPI  H12R21819   4.816   0.756   5.053
  189SAPI  C21321820   4.793   0.946   4.953
  189SAPI  H13R21821   4.834   0.880   4.874
  189SAPI  H13S21822   4.875   1.013   4.987
  189SAPI  C21421823   4.686   1.026   4.886
  189SAPI  H14R21824   4.586   1.026   4.932
  189SAPI  C21521825   4.711   1.093   4.774
  189SAPI  H15R21826   4.631   1.154   4.730
  189SAPI  C21621827   4.846   1.098   4.706
  189SAPI  H16R21828   4.924   1.093   4.785
  189SAPI  H16S21829   4.864   1.197   4.657
  189SAPI  C21721830   4.879   0.989   4.601
  189SAPI  H17R21831   4.826   0.894   4.623
  189SAPI  H17S21832   4.987   0.967   4.610
  189SAPI  C21821833   4.855   1.034   4.455
  189SAPI  H18R21834   4.874   1.142   4.445
  189SAPI  H18S21835   4.748   1.015   4.431
  189SAPI  C21921836   4.943   0.962   4.353
  189SAPI  H19R21837   4.937   0.853   4.372
  189SAPI  H19S21838   5.049   0.991   4.368
  189SAPI  C22021839   4.902   0.989   4.208
  189SAPI  H20R21840   4.795   0.964   4.192
  189SAPI  H20S21841   4.963   0.926   4.138
  189SAPI  H20T21842   4.918   1.096   4.182
  189SAPI   C3321843   4.917   1.282   6.015
  189SAPI   H3X21844   4.854   1.219   6.082
  189SAPI   H3Y21845   5.001   1.217   5.984
  189SAPI   C3421846   4.837   1.317   5.887
  189SAPI   H4X21847   4.746   1.374   5.917
  189SAPI   H4Y21848   4.804   1.221   5.842
  189SAPI   C3521849   4.912   1.399   5.781
  189SAPI   H5X21850   5.014   1.357   5.769
  189SAPI   H5Y21851   4.921   1.503   5.818
  189SAPI   C3621852   4.843   1.400   5.643
  189SAPI   H6X21853   4.874   1.491   5.588
  189SAPI   H6Y21854   4.733   1.403   5.655
  189SAPI   C3721855   4.882   1.277   5.558
  189SAPI   H7X21856   4.858   1.186   5.616
  189SAPI   H7Y21857   4.992   1.278   5.542
  189SAPI   C3821858   4.812   1.266   5.421
  189SAPI   H8X21859   4.703   1.256   5.437
  189SAPI   H8Y21860   4.847   1.172   5.374
  189SAPI   C3921861   4.838   1.382   5.323
  189SAPI   H9X21862   4.947   1.400   5.316
  189SAPI   H9Y21863   4.790   1.474   5.362
  189SAPI  C31021864   4.784   1.350   5.183
  189SAPI  H10X21865   4.676   1.324   5.190
  189SAPI  H10Y21866   4.837   1.260   5.145
  189SAPI  C31121867   4.801   1.463   5.080
  189SAPI  H11X21868   4.907   1.494   5.078
  189SAPI  H11Y21869   4.740   1.550   5.111
  189SAPI  C31221870   4.759   1.418   4.939
  189SAPI  H12X21871   4.653   1.387   4.942
  189SAPI  H12Y21872   4.819   1.328   4.912
  189SAPI  C31321873   4.779   1.525   4.830
  189SAPI  H13X21874   4.884   1.562   4.836
  189SAPI  H13Y21875   4.712   1.611   4.851
  189SAPI  C31421876   4.754   1.473   4.687
  189SAPI  H14X21877   4.823   1.389   4.665
  189SAPI  H14Y21878   4.777   1.554   4.615
  189SAPI  C31521879   4.608   1.429   4.665
  189SAPI  H15X21880   4.550   1.521   4.690
  189SAPI  H15Y21881   4.576   1.352   4.738
  189SAPI  C31621882   4.569   1.388   4.522
  189SAPI  H16X21883   4.636   1.437   4.449
  189SAPI  H16Y21884   4.465   1.422   4.502
  189SAPI  C31721885   4.571   1.236   4.504
  189SAPI  H17X21886   4.501   1.189   4.576
  189SAPI  H17Y21887   4.674   1.203   4.529
  189SAPI  C31821888   4.537   1.187   4.365
  189SAPI  H18X21889   4.436   1.220   4.335
  189SAPI  H18Y21890   4.540   1.076   4.361
  189SAPI  H18Z21891   4.612   1.225   4.293
  190SAPI   C1221892   5.035   0.801   6.557
  190SAPI    H221893   5.031   0.884   6.484
  190SAPI    O221894   5.168   0.796   6.609
  190SAPI   HO221895   5.184   0.880   6.652
  190SAPI   C1321896   4.935   0.836   6.665
  190SAPI    H321897   4.834   0.842   6.619
  190SAPI    O321898   4.968   0.966   6.717
  190SAPI   HO321899   4.964   1.030   6.646
  190SAPI   C1421900   4.934   0.727   6.772
  190SAPI    H421901   5.034   0.722   6.819
  190SAPI    O421902   4.838   0.755   6.874
  190SAPI   HO421903   4.832   0.675   6.927
  190SAPI   C1521904   4.902   0.593   6.708
  190SAPI    H521905   4.800   0.598   6.664
  190SAPI    O521906   4.901   0.487   6.805
  190SAPI   HO521907   4.954   0.418   6.764
  190SAPI   C1621908   4.999   0.560   6.596
  190SAPI    H621909   5.102   0.551   6.636
  190SAPI    O621910   4.964   0.436   6.534
  190SAPI   HO621911   5.007   0.442   6.448
  190SAPI   C1121912   4.994   0.670   6.492
  190SAPI    H121913   4.889   0.679   6.457
  190SAPI     P21914   5.062   0.720   6.238
  190SAPI   O1321915   5.053   0.866   6.259
  190SAPI   O1421916   4.956   0.655   6.159
  190SAPI   O1221917   5.078   0.639   6.382
  190SAPI   O1121918   5.205   0.697   6.176
  190SAPI    C121919   5.323   0.727   6.251
  190SAPI    HA21920   5.362   0.825   6.218
  190SAPI    HB21921   5.306   0.733   6.361
  190SAPI    C221922   5.429   0.617   6.225
  190SAPI    HS21923   5.528   0.653   6.261
  190SAPI   O2121924   5.431   0.586   6.084
  190SAPI   C2121925   5.470   0.690   6.012
  190SAPI   O2221926   5.556   0.767   6.051
  190SAPI   C2221927   5.404   0.686   5.872
  190SAPI   H2R21928   5.490   0.692   5.802
  190SAPI   H2S21929   5.357   0.587   5.858
  190SAPI    C321930   5.396   0.488   6.303
  190SAPI    HX21931   5.376   0.512   6.410
  190SAPI    HY21932   5.483   0.420   6.296
  190SAPI   O3121933   5.279   0.433   6.244
  190SAPI   C3121934   5.267   0.304   6.250
  190SAPI   O3221935   5.316   0.232   6.336
  190SAPI   C3221936   5.184   0.257   6.130
  190SAPI   H2X21937   5.128   0.170   6.171
  190SAPI   H2Y21938   5.254   0.221   6.051
  190SAPI   C2321939   5.311   0.802   5.827
  190SAPI   H3R21940   5.319   0.807   5.716
  190SAPI   H3S21941   5.351   0.899   5.865
  190SAPI   C2421942   5.161   0.796   5.861
  190SAPI   H4R21943   5.148   0.792   5.971
  190SAPI   H4S21944   5.117   0.701   5.823
  190SAPI   C2521945   5.084   0.914   5.806
  190SAPI   H5R21946   5.071   0.998   5.876
  190SAPI   C2621947   5.030   0.923   5.683
  190SAPI   H6R21948   4.977   1.015   5.655
  190SAPI   C2721949   5.036   0.814   5.580
  190SAPI   H7R21950   4.968   0.734   5.615
  190SAPI   H7S21951   5.138   0.770   5.580
  190SAPI   C2821952   5.001   0.850   5.437
  190SAPI   H8R21953   5.015   0.955   5.409
  190SAPI   C2921954   4.960   0.761   5.345
  190SAPI   H9R21955   4.947   0.795   5.241
  190SAPI  C21021956   4.941   0.612   5.367
  190SAPI  H10R21957   4.962   0.588   5.473
  190SAPI  H10S21958   5.022   0.558   5.313
  190SAPI  C21121959   4.814   0.541   5.334
  190SAPI  H11R21960   4.754   0.523   5.424
  190SAPI  C21221961   4.766   0.492   5.218
  190SAPI  H12R21962   4.671   0.437   5.225
  190SAPI  C21321963   4.817   0.493   5.078
  190SAPI  H13R21964   4.928   0.504   5.074
  190SAPI  H13S21965   4.773   0.581   5.026
  190SAPI  C21421966   4.769   0.378   4.993
  190SAPI  H14R21967   4.712   0.298   5.042
  190SAPI  C21521968   4.798   0.369   4.864
  190SAPI  H15R21969   4.763   0.284   4.803
  190SAPI  C21621970   4.882   0.473   4.794
  190SAPI  H16R21971   4.929   0.548   4.862
  190SAPI  H16S21972   4.823   0.531   4.720
  190SAPI  C21721973   4.996   0.400   4.725
  190SAPI  H17R21974   4.951   0.341   4.642
  190SAPI  H17S21975   5.050   0.331   4.793
  190SAPI  C21821976   5.095   0.499   4.670
  190SAPI  H18R21977   5.174   0.525   4.744
  190SAPI  H18S21978   5.040   0.592   4.645
  190SAPI  C21921979   5.159   0.450   4.543
  190SAPI  H19R21980   5.086   0.395   4.480
  190SAPI  H19S21981   5.240   0.379   4.570
  190SAPI  C22021982   5.211   0.570   4.467
  190SAPI  H20R21983   5.130   0.641   4.441
  190SAPI  H20S21984   5.256   0.532   4.372
  190SAPI  H20T21985   5.288   0.625   4.524
  190SAPI   C3321986   5.083   0.360   6.072
  190SAPI   H3X21987   5.046   0.424   6.155
  190SAPI   H3Y21988   4.993   0.306   6.034
  190SAPI   C3421989   5.132   0.454   5.958
  190SAPI   H4X21990   5.232   0.493   5.987
  190SAPI   H4Y21991   5.062   0.541   5.957
  190SAPI   C3521992   5.132   0.395   5.815
  190SAPI   H5X21993   5.030   0.351   5.803
  190SAPI   H5Y21994   5.209   0.315   5.811
  190SAPI   C3621995   5.147   0.489   5.693
  190SAPI   H6X21996   5.238   0.551   5.706
  190SAPI   H6Y21997   5.059   0.556   5.689
  190SAPI   C3721998   5.161   0.419   5.556
  190SAPI   H7X21999   5.061   0.396   5.515
  190SAPI   H7Y22000   5.211   0.321   5.574
  190SAPI   C3822001   5.244   0.502   5.454
  190SAPI   H8X22002   5.340   0.529   5.501
  190SAPI   H8Y22003   5.193   0.598   5.435
  190SAPI   C3922004   5.268   0.429   5.319
  190SAPI   H9X22005   5.170   0.387   5.290
  190SAPI   H9Y22006   5.336   0.343   5.336
  190SAPI  C31022007   5.321   0.512   5.199
  190SAPI  H10X22008   5.345   0.440   5.117
  190SAPI  H10Y22009   5.416   0.564   5.227
  190SAPI  C31122010   5.218   0.612   5.146
  190SAPI  H11X22011   5.215   0.700   5.214
  190SAPI  H11Y22012   5.119   0.561   5.149
  190SAPI  C31222013   5.227   0.658   4.999
  190SAPI  H12X22014   5.209   0.568   4.935
  190SAPI  H12Y22015   5.328   0.696   4.976
  190SAPI  C31322016   5.116   0.763   4.975
  190SAPI  H13X22017   5.133   0.846   5.047
  190SAPI  H13Y22018   5.019   0.717   5.003
  190SAPI  C31422019   5.099   0.826   4.835
  190SAPI  H14X22020   5.026   0.909   4.845
  190SAPI  H14Y22021   5.055   0.752   4.764
  190SAPI  C31522022   5.224   0.889   4.774
  190SAPI  H15X22023   5.257   0.833   4.684
  190SAPI  H15Y22024   5.301   0.876   4.853
  190SAPI  C31622025   5.217   1.041   4.745
  190SAPI  H16X22026   5.294   1.094   4.804
  190SAPI  H16Y22027   5.120   1.082   4.782
  190SAPI  C31722028   5.236   1.078   4.597
  190SAPI  H17X22029   5.185   1.002   4.535
  190SAPI  H17Y22030   5.344   1.074   4.572
  190SAPI  C31822031   5.180   1.217   4.562
  190SAPI  H18X22032   5.262   1.286   4.532
  190SAPI  H18Y22033   5.126   1.261   4.648
  190SAPI  H18Z22034   5.108   1.210   4.477
  191SAPI   C1222035   1.202   6.014   1.873
  191SAPI    H222036   1.135   6.037   1.959
  191SAPI    O222037   1.194   5.874   1.849
  191SAPI   HO222038   1.198   5.832   1.935
  191SAPI   C1322039   1.153   6.094   1.754
  191SAPI    H322040   1.168   6.202   1.778
  191SAPI    O322041   1.013   6.078   1.731
  191SAPI   HO322042   0.985   5.991   1.761
  191SAPI   C1422043   1.241   6.063   1.633
  191SAPI    H422044   1.238   5.954   1.614
  191SAPI    O422045   1.194   6.126   1.512
  191SAPI   HO422046   1.228   6.075   1.439
  191SAPI   C1522047   1.384   6.103   1.666
  191SAPI    H522048   1.381   6.211   1.693
  191SAPI    O522049   1.472   6.094   1.554
  191SAPI   HO522050   1.462   6.175   1.504
  191SAPI   C1622051   1.436   6.029   1.789
  191SAPI    H622052   1.438   5.920   1.769
  191SAPI    O622053   1.570   6.072   1.815
  191SAPI   HO622054   1.603   6.104   1.731
  191SAPI   C1122055   1.344   6.057   1.908
  191SAPI    H122056   1.345   6.167   1.922
  191SAPI     P22057   1.356   6.061   2.175
  191SAPI   O1322058   1.209   6.066   2.192
  191SAPI   O1422059   1.425   6.193   2.181
  191SAPI   O1222060   1.387   5.991   2.028
  191SAPI   O1122061   1.417   5.957   2.278
  191SAPI    C122062   1.393   5.816   2.258
  191SAPI    HA22063   1.286   5.797   2.235
  191SAPI    HB22064   1.453   5.778   2.173
  191SAPI    C222065   1.427   5.729   2.384
  191SAPI    HS22066   1.392   5.626   2.365
  191SAPI   O2122067   1.365   5.784   2.501
  191SAPI   C2122068   1.235   5.764   2.509
  191SAPI   O2222069   1.172   5.680   2.447
  191SAPI   C2222070   1.176   5.865   2.606
  191SAPI   H2R22071   1.072   5.834   2.630
  191SAPI   H2S22072   1.237   5.863   2.699
  191SAPI    C322073   1.581   5.718   2.409
  191SAPI    HX22074   1.625   5.673   2.317
  191SAPI    HY22075   1.598   5.646   2.491
  191SAPI   O3122076   1.641   5.847   2.431
  191SAPI   C3122077   1.644   5.886   2.559
  191SAPI   O3222078   1.630   5.813   2.655
  191SAPI   C3222079   1.678   6.035   2.563
  191SAPI   H2X22080   1.600   6.090   2.506
  191SAPI   H2Y22081   1.776   6.049   2.512
  191SAPI   C2322082   1.179   6.007   2.545
  191SAPI   H3R22083   1.108   6.012   2.459
  191SAPI   H3S22084   1.280   6.026   2.503
  191SAPI   C2422085   1.150   6.119   2.645
  191SAPI   H4R22086   1.164   6.216   2.592
  191SAPI   H4S22087   1.227   6.115   2.725
  191SAPI   C2522088   1.010   6.114   2.701
  191SAPI   H5R22089   0.932   6.081   2.631
  191SAPI   C2622090   0.975   6.143   2.828
  191SAPI   H6R22091   0.869   6.134   2.857
  191SAPI   C2722092   1.071   6.186   2.936
  191SAPI   H7R22093   1.132   6.271   2.899
  191SAPI   H7S22094   1.143   6.104   2.957
  191SAPI   C2822095   1.002   6.230   3.064
  191SAPI   H8R22096   0.906   6.281   3.051
  191SAPI   C2922097   1.049   6.212   3.189
  191SAPI   H9R22098   0.989   6.249   3.274
  191SAPI  C21022099   1.178   6.145   3.229
  191SAPI  H10R22100   1.196   6.056   3.165
  191SAPI  H10S22101   1.169   6.105   3.332
  191SAPI  C21122102   1.298   6.237   3.217
  191SAPI  H11R22103   1.322   6.267   3.114
  191SAPI  C21222104   1.374   6.283   3.317
  191SAPI  H12R22105   1.461   6.345   3.292
  191SAPI  C21322106   1.358   6.254   3.464
  191SAPI  H13R22107   1.251   6.242   3.490
  191SAPI  H13S22108   1.390   6.343   3.523
  191SAPI  C21422109   1.433   6.131   3.509
  191SAPI  H14R22110   1.377   6.037   3.497
  191SAPI  C21522111   1.559   6.125   3.558
  191SAPI  H15R22112   1.600   6.026   3.586
  191SAPI  C21622113   1.653   6.240   3.582
  191SAPI  H16R22114   1.603   6.338   3.564
  191SAPI  H16S22115   1.738   6.234   3.510
  191SAPI  C21722116   1.711   6.242   3.725
  191SAPI  H17R22117   1.779   6.329   3.734
  191SAPI  H17S22118   1.774   6.151   3.740
  191SAPI  C21822119   1.607   6.248   3.838
  191SAPI  H18R22120   1.660   6.250   3.935
  191SAPI  H18S22121   1.545   6.155   3.836
  191SAPI  C21922122   1.513   6.369   3.832
  191SAPI  H19R22123   1.458   6.369   3.735
  191SAPI  H19S22124   1.574   6.462   3.835
  191SAPI  C22022125   1.411   6.372   3.946
  191SAPI  H20R22126   1.340   6.456   3.933
  191SAPI  H20S22127   1.462   6.384   4.044
  191SAPI  H20T22128   1.353   6.277   3.948
  191SAPI   C3322129   1.688   6.090   2.707
  191SAPI   H3X22130   1.735   6.191   2.705
  191SAPI   H3Y22131   1.754   6.024   2.767
  191SAPI   C3422132   1.551   6.104   2.775
  191SAPI   H4X22133   1.497   6.007   2.768
  191SAPI   H4Y22134   1.490   6.179   2.720
  191SAPI   C3522135   1.558   6.143   2.923
  191SAPI   H5X22136   1.454   6.147   2.963
  191SAPI   H5Y22137   1.602   6.245   2.934
  191SAPI   C3622138   1.639   6.044   3.008
  191SAPI   H6X22139   1.747   6.052   2.982
  191SAPI   H6Y22140   1.606   5.940   2.983
  191SAPI   C3722141   1.624   6.066   3.159
  191SAPI   H7X22142   1.518   6.057   3.188
  191SAPI   H7Y22143   1.656   6.170   3.182
  191SAPI   C3822144   1.708   5.968   3.243
  191SAPI   H8X22145   1.758   6.026   3.323
  191SAPI   H8Y22146   1.788   5.923   3.180
  191SAPI   C3922147   1.625   5.857   3.310
  191SAPI   H9X22148   1.548   5.905   3.374
  191SAPI   H9Y22149   1.692   5.799   3.376
  191SAPI  C31022150   1.555   5.761   3.213
  191SAPI  H10X22151   1.633   5.709   3.152
  191SAPI  H10Y22152   1.491   5.817   3.142
  191SAPI  C31122153   1.470   5.656   3.286
  191SAPI  H11X22154   1.522   5.627   3.379
  191SAPI  H11Y22155   1.460   5.566   3.223
  191SAPI  C31222156   1.328   5.708   3.318
  191SAPI  H12X22157   1.276   5.726   3.222
  191SAPI  H12Y22158   1.336   5.807   3.369
  191SAPI  C31322159   1.243   5.612   3.404
  191SAPI  H13X22160   1.234   5.515   3.350
  191SAPI  H13Y22161   1.141   5.655   3.414
  191SAPI  C31422162   1.298   5.586   3.545
  191SAPI  H14X22163   1.397   5.536   3.537
  191SAPI  H14Y22164   1.230   5.515   3.598
  191SAPI  C31522165   1.313   5.713   3.631
  191SAPI  H15X22166   1.214   5.758   3.648
  191SAPI  H15Y22167   1.375   5.786   3.575
  191SAPI  C31622168   1.383   5.687   3.765
  191SAPI  H16X22169   1.477   5.631   3.746
  191SAPI  H16Y22170   1.318   5.623   3.829
  191SAPI  C31722171   1.417   5.817   3.838
  191SAPI  H17X22172   1.323   5.867   3.869
  191SAPI  H17Y22173   1.469   5.885   3.767
  191SAPI  C31822174   1.507   5.796   3.960
  191SAPI  H18X22175   1.457   5.730   4.034
  191SAPI  H18Y22176   1.530   5.893   4.009
  191SAPI  H18Z22177   1.602   5.748   3.929
  192SAPI   C1222178   3.125   0.559   1.770
  192SAPI    H222179   3.224   0.583   1.814
  192SAPI    O222180   3.035   0.664   1.804
  192SAPI   HO222181   3.009   0.642   1.894
  192SAPI   C1322182   3.140   0.546   1.620
  192SAPI    H322183   3.213   0.465   1.599
  192SAPI    O322184   3.195   0.667   1.565
  192SAPI   HO322185   3.158   0.740   1.615
  192SAPI   C1422186   3.007   0.505   1.557
  192SAPI    H422187   2.932   0.583   1.580
  192SAPI    O422188   3.017   0.495   1.415
  192SAPI   HO422189   2.927   0.501   1.380
  192SAPI   C1522190   2.958   0.374   1.619
  192SAPI    H522191   3.035   0.296   1.598
  192SAPI    O522192   2.837   0.331   1.556
  192SAPI   HO522193   2.860   0.257   1.500
  192SAPI   C1622194   2.945   0.384   1.770
  192SAPI    H622195   2.865   0.457   1.796
  192SAPI    O622196   2.908   0.258   1.827
  192SAPI   HO622197   2.953   0.250   1.911
  192SAPI   C1122198   3.078   0.427   1.829
  192SAPI    H122199   3.154   0.351   1.802
  192SAPI     P22200   3.142   0.345   2.076
  192SAPI   O1322201   3.288   0.369   2.074
  192SAPI   O1422202   3.096   0.210   2.036
  192SAPI   O1222203   3.071   0.450   1.970
  192SAPI   O1122204   3.078   0.390   2.213
  192SAPI    C122205   2.959   0.471   2.214
  192SAPI    HA22206   2.985   0.575   2.188
  192SAPI    HB22207   2.884   0.435   2.140
  192SAPI    C222208   2.884   0.475   2.351
  192SAPI    HS22209   2.824   0.569   2.348
  192SAPI   O2122210   2.981   0.486   2.458
  192SAPI   C2122211   2.930   0.522   2.576
  192SAPI   O2222212   2.811   0.529   2.600
  192SAPI   C2222213   3.038   0.562   2.674
  192SAPI   H2R22214   3.115   0.482   2.678
  192SAPI   H2S22215   3.085   0.655   2.636
  192SAPI    C322216   2.785   0.354   2.363
  192SAPI    HX22217   2.691   0.380   2.311
  192SAPI    HY22218   2.759   0.334   2.469
  192SAPI   O3122219   2.841   0.240   2.296
  192SAPI   C3122220   2.857   0.133   2.369
  192SAPI   O3222221   2.781   0.089   2.453
  192SAPI   C3222222   2.998   0.084   2.346
  192SAPI   H2X22223   3.055   0.159   2.286
  192SAPI   H2Y22224   2.992  -0.010   2.287
  192SAPI   C2322225   2.981   0.590   2.815
  192SAPI   H3R22226   2.928   0.501   2.854
  192SAPI   H3S22227   2.904   0.670   2.808
  192SAPI   C2422228   3.087   0.636   2.918
  192SAPI   H4R22229   3.034   0.656   3.013
  192SAPI   H4S22230   3.129   0.733   2.884
  192SAPI   C2522231   3.201   0.541   2.941
  192SAPI   H5R22232   3.201   0.448   2.884
  192SAPI   C2622233   3.302   0.569   3.026
  192SAPI   H6R22234   3.383   0.495   3.038
  192SAPI   C2722235   3.315   0.695   3.107
  192SAPI   H7R22236   3.299   0.784   3.043
  192SAPI   H7S22237   3.421   0.702   3.142
  192SAPI   C2822238   3.225   0.706   3.228
  192SAPI   H8R22239   3.143   0.779   3.222
  192SAPI   C2922240   3.239   0.632   3.339
  192SAPI   H9R22241   3.168   0.645   3.421
  192SAPI  C21022242   3.345   0.527   3.360
  192SAPI  H10R22243   3.383   0.531   3.464
  192SAPI  H10S22244   3.434   0.541   3.295
  192SAPI  C21122245   3.280   0.396   3.330
  192SAPI  H11R22246   3.288   0.358   3.227
  192SAPI  C21222247   3.207   0.329   3.420
  192SAPI  H12R22248   3.147   0.244   3.384
  192SAPI  C21322249   3.179   0.374   3.561
  192SAPI  H13R22250   3.069   0.372   3.570
  192SAPI  H13S22251   3.213   0.478   3.583
  192SAPI  C21422252   3.233   0.274   3.657
  192SAPI  H14R22253   3.207   0.173   3.620
  192SAPI  C21522254   3.303   0.283   3.771
  192SAPI  H15R22255   3.334   0.189   3.819
  192SAPI  C21622256   3.353   0.405   3.843
  192SAPI  H16R22257   3.357   0.491   3.773
  192SAPI  H16S22258   3.457   0.387   3.879
  192SAPI  C21722259   3.267   0.442   3.964
  192SAPI  H17R22260   3.163   0.455   3.926
  192SAPI  H17S22261   3.299   0.539   4.005
  192SAPI  C21822262   3.266   0.336   4.075
  192SAPI  H18R22263   3.365   0.332   4.126
  192SAPI  H18S22264   3.249   0.238   4.027
  192SAPI  C21922265   3.153   0.357   4.176
  192SAPI  H19R22266   3.123   0.257   4.215
  192SAPI  H19S22267   3.066   0.402   4.124
  192SAPI  C22022268   3.183   0.446   4.295
  192SAPI  H20R22269   3.190   0.553   4.264
  192SAPI  H20S22270   3.280   0.415   4.340
  192SAPI  H20T22271   3.103   0.438   4.372
  192SAPI   C3322272   3.069   0.065   2.481
  192SAPI   H3X22273   3.173   0.032   2.461
  192SAPI   H3Y22274   3.015  -0.014   2.537
  192SAPI   C3422275   3.077   0.189   2.572
  192SAPI   H4X22276   2.992   0.257   2.550
  192SAPI   H4Y22277   3.170   0.246   2.549
  192SAPI   C3522278   3.069   0.153   2.721
  192SAPI   H5X22279   3.155   0.200   2.775
  192SAPI   H5Y22280   3.078   0.043   2.735
  192SAPI   C3622281   2.937   0.201   2.785
  192SAPI   H6X22282   2.852   0.155   2.731
  192SAPI   H6Y22283   2.930   0.311   2.768
  192SAPI   C3722284   2.925   0.174   2.936
  192SAPI   H7X22285   3.014   0.117   2.972
  192SAPI   H7Y22286   2.834   0.112   2.954
  192SAPI   C3822287   2.910   0.302   3.017
  192SAPI   H8X22288   2.822   0.357   2.978
  192SAPI   H8Y22289   3.000   0.365   3.000
  192SAPI   C3922290   2.894   0.287   3.169
  192SAPI   H9X22291   2.985   0.240   3.212
  192SAPI   H9Y22292   2.807   0.221   3.191
  192SAPI  C31022293   2.871   0.427   3.228
  192SAPI  H10X22294   2.775   0.465   3.187
  192SAPI  H10Y22295   2.950   0.494   3.189
  192SAPI  C31122296   2.870   0.440   3.381
  192SAPI  H11X22297   2.808   0.530   3.404
  192SAPI  H11Y22298   2.973   0.467   3.414
  192SAPI  C31222299   2.818   0.321   3.463
  192SAPI  H12X22300   2.900   0.247   3.475
  192SAPI  H12Y22301   2.737   0.270   3.407
  192SAPI  C31322302   2.761   0.360   3.602
  192SAPI  H13X22303   2.748   0.268   3.663
  192SAPI  H13Y22304   2.660   0.404   3.587
  192SAPI  C31422305   2.846   0.462   3.681
  192SAPI  H14X22306   2.861   0.553   3.620
  192SAPI  H14Y22307   2.945   0.419   3.705
  192SAPI  C31522308   2.788   0.504   3.817
  192SAPI  H15X22309   2.689   0.553   3.802
  192SAPI  H15Y22310   2.856   0.581   3.859
  192SAPI  C31622311   2.773   0.393   3.920
  192SAPI  H16X22312   2.689   0.325   3.893
  192SAPI  H16Y22313   2.749   0.440   4.017
  192SAPI  C31722314   2.895   0.304   3.938
  192SAPI  H17X22315   2.986   0.369   3.938
  192SAPI  H17Y22316   2.906   0.236   3.851
  192SAPI  C31822317   2.885   0.226   4.068
  192SAPI  H18X22318   2.972   0.157   4.078
  192SAPI  H18Y22319   2.791   0.167   4.072
  192SAPI  H18Z22320   2.883   0.294   4.156
  193SOD    SOD22321   1.621   2.336   7.504
  194SOD    SOD22322   1.957   4.902   8.489
  195SOD    SOD22323   5.324   3.041   8.292
  196SOD    SOD22324   4.907   4.956   7.907
  197SOD    SOD22325   4.121   4.905   0.637
  198SOD    SOD22326   2.018   3.499   1.543
  199SOD    SOD22327   2.550   0.362   0.611
  200SOD    SOD22328   1.411   2.134   1.649
  201SOD    SOD22329   1.709   1.758   0.922
  202SOD    SOD22330   1.411   2.265   0.335
  203SOD    SOD22331   6.615   3.719   7.615
  204SOD    SOD22332   6.122   1.156   7.741
  205SOD    SOD22333   3.583   3.772   7.033
  206SOD    SOD22334   5.419   2.604   0.959
  207SOD    SOD22335   2.389   2.629   6.536
  208SOD    SOD22336   5.482   5.784   1.150
  209SOD    SOD22337   0.665   4.391   8.036
  210SOD    SOD22338   2.406   2.442   7.625
  211SOD    SOD22339   1.123   0.240   0.017
  212SOD    SOD22340   4.768   0.950   8.408
  213SOD    SOD22341   2.067   5.061   7.923
  214SOD    SOD22342   3.073   0.618   7.826
  215SOD    SOD22343   3.367   1.398   7.886
  216SOD    SOD22344   3.474   2.771   7.624
  217SOD    SOD22345   1.116   6.633   1.495
  218SOD    SOD22346   0.509   3.451   0.018
  219SOD    SOD22347   4.535   6.313   1.408
  220SOD    SOD22348   6.306   2.739   0.584
  221SOD    SOD22349   5.252   4.494   0.512
  222SOD    SOD22350   1.860   6.315   7.017
  223SOD    SOD22351   2.279   7.328   7.702
  224SOD    SOD22352   0.241   0.588   1.823
  225SOD    SOD22353   0.544   6.085   7.299
  226SOD    SOD22354   3.845   5.309   8.444
  227SOD    SOD22355   1.113   4.244   7.228
  228SOD    SOD22356   5.266   0.417   0.230
  229SOD    SOD22357   5.905   5.831   8.087
  230CLA    CLA22358   2.278   0.429   8.332
  231CLA    CLA22359   5.278   0.190   7.931
  232CLA    CLA22360   6.091   6.549   0.103
  233CLA    CLA22361   4.231   5.030   0.432
  234CLA    CLA22362   6.053   4.252   8.224
  235CLA    CLA22363   4.796   6.122   0.294
  236CLA    CLA22364   4.203   1.347   7.921
  237CLA    CLA22365   1.418   3.955   1.608
  238CLA    CLA22366   5.634   2.154   1.464
  239CLA    CLA22367   2.542   6.473   6.807
  240CLA    CLA22368   1.366   3.871   0.058
  241CLA    CLA22369   4.944   3.338   8.281
  242CLA    CLA22370   2.013   0.805   8.435
  243CLA    CLA22371   4.947   1.065   0.138
  244CLA    CLA22372   6.889   3.518   8.447
  245CLA    CLA22373   1.465   1.717   7.458
  246CLA    CLA22374   4.516   5.159   1.297
  247TIP3   OH222375   3.973   4.130   6.295
  247TIP3    H122376   4.034   4.191   6.252
  247TIP3    H222377   3.931   4.083   6.223
  248TIP3   OH222378   3.761   3.883   6.378
  248TIP3    H122379   3.818   3.954   6.407
  248TIP3    H222380   3.776   3.877   6.284
  249TIP3   OH222381   3.181   4.197   6.295
  249TIP3    H122382   3.123   4.210   6.370
  249TIP3    H222383   3.126   4.153   6.230
  250TIP3   OH222384   2.986   3.804   6.306
  250TIP3    H122385   2.914   3.764   6.355
  250TIP3    H222386   3.064   3.758   6.337
  251TIP3   OH222387   3.526   4.655   6.373
  251TIP3    H122388   3.556   4.732   6.420
  251TIP3    H222389   3.490   4.689   6.291
  252TIP3   OH222390   4.392   4.457   6.389
  252TIP3    H122391   4.399   4.373   6.343
  252TIP3    H222392   4.363   4.519   6.321
  253TIP3   OH222393   4.483   4.793   6.182
  253TIP3    H122394   4.483   4.880   6.141
  253TIP3    H222395   4.562   4.793   6.236
  254TIP3   OH222396   4.056   4.554   6.284
  254TIP3    H122397   4.050   4.642   6.322
  254TIP3    H222398   4.130   4.559   6.223
  255TIP3   OH222399   4.446   5.054   6.073
  255TIP3    H122400   4.461   5.148   6.082
  255TIP3    H222401   4.351   5.044   6.071
  256TIP3   OH222402   2.828   2.392   6.202
  256TIP3    H122403   2.735   2.397   6.221
  256TIP3    H222404   2.843   2.300   6.180
  257TIP3   OH222405   3.160   2.843   6.263
  257TIP3    H122406   3.241   2.848   6.210
  257TIP3    H222407   3.119   2.761   6.235
  258TIP3   OH222408   2.776   2.814   6.300
  258TIP3    H122409   2.836   2.888   6.293
  258TIP3    H222410   2.829   2.738   6.275
  259TIP3   OH222411   4.848   2.698   6.230
  259TIP3    H122412   4.918   2.691   6.166
  259TIP3    H222413   4.840   2.792   6.246
  260TIP3   OH222414   4.804   2.444   6.334
  260TIP3    H122415   4.719   2.422   6.296
  260TIP3    H222416   4.822   2.533   6.303
  261TIP3   OH222417   2.398   2.583   6.318
  261TIP3    H122418   2.338   2.620   6.253
  261TIP3    H222419   2.446   2.515   6.270
  262TIP3   OH222420   5.478   3.739   6.370
  262TIP3    H122421   5.544   3.786   6.319
  262TIP3    H222422   5.398   3.791   6.358
  263TIP3   OH222423   5.626   3.929   6.231
  263TIP3    H122424   5.695   3.921   6.166
  263TIP3    H222425   5.555   3.975   6.186
  264TIP3   OH222426   5.158   3.967   6.219
  264TIP3    H122427   5.110   3.924   6.149
  264TIP3    H222428   5.128   4.058   6.217
  265TIP3   OH222429   4.685   5.250   6.293
  265TIP3    H122430   4.629   5.215   6.363
  265TIP3    H222431   4.771   5.213   6.311
  266TIP3   OH222432   4.802   1.847   6.385
  266TIP3    H122433   4.890   1.811   6.401
  266TIP3    H222434   4.809   1.888   6.298
  267TIP3   OH222435   4.107   1.394   6.141
  267TIP3    H122436   4.187   1.363   6.097
  267TIP3    H222437   4.091   1.480   6.104
  268TIP3   OH222438   2.729   6.193   6.448
  268TIP3    H122439   2.803   6.228   6.399
  268TIP3    H222440   2.746   6.219   6.539
  269TIP3   OH222441   2.464   6.173   6.321
  269TIP3    H122442   2.535   6.171   6.385
  269TIP3    H222443   2.504   6.212   6.243
  270TIP3   OH222444   1.504   5.324   6.321
  270TIP3    H122445   1.505   5.247   6.264
  270TIP3    H222446   1.480   5.396   6.263
  271TIP3   OH222447   1.200   5.729   6.246
  271TIP3    H122448   1.236   5.801   6.299
  271TIP3    H222449   1.131   5.770   6.194
  272TIP3   OH222450   2.096   6.159   6.196
  272TIP3    H122451   2.158   6.213   6.245
  272TIP3    H222452   2.148   6.121   6.125
  273TIP3   OH222453   1.706   6.447   6.290
  273TIP3    H122454   1.757   6.393   6.229
  273TIP3    H222455   1.615   6.422   6.273
  274TIP3   OH222456   4.024   0.430   6.390
  274TIP3    H122457   4.091   0.432   6.322
  274TIP3    H222458   4.034   0.514   6.436
  275TIP3   OH222459   4.507   0.509   6.285
  275TIP3    H122460   4.575   0.567   6.250
  275TIP3    H222461   4.433   0.521   6.226
  276TIP3   OH222462   2.437   0.401   6.269
  276TIP3    H122463   2.437   0.306   6.280
  276TIP3    H222464   2.471   0.434   6.353
  277TIP3   OH222465   2.830   0.633   6.311
  277TIP3    H122466   2.864   0.557   6.357
  277TIP3    H222467   2.795   0.598   6.229
  278TIP3   OH222468   2.270   0.614   6.182
  278TIP3    H122469   2.302   0.614   6.092
  278TIP3    H222470   2.294   0.528   6.216
  279TIP3   OH222471   1.818   0.441   6.190
  279TIP3    H122472   1.844   0.528   6.158
  279TIP3    H222473   1.726   0.451   6.216
  280TIP3   OH222474   1.726   0.753   6.327
  280TIP3    H122475   1.671   0.831   6.335
  280TIP3    H222476   1.777   0.768   6.247
  281TIP3   OH222477   6.928   2.490   6.210
  281TIP3    H122478   6.966   2.402   6.207
  281TIP3    H222479   6.998   2.548   6.181
  282TIP3   OH222480   7.249   2.480   6.333
  282TIP3    H122481   7.230   2.544   6.265
  282TIP3    H222482   7.217   2.397   6.298
  283TIP3   OH222483   0.364   5.094   6.253
  283TIP3    H122484   0.401   5.182   6.266
  283TIP3    H222485   0.395   5.068   6.166
  284TIP3   OH222486   1.467   6.700   6.227
  284TIP3    H122487   1.440   6.777   6.277
  284TIP3    H222488   1.560   6.714   6.209
  285TIP3   OH222489   1.438   6.422   6.234
  285TIP3    H122490   1.371   6.391   6.173
  285TIP3    H222491   1.439   6.517   6.222
  286TIP3   OH222492   1.095   6.452   6.292
  286TIP3    H122493   1.124   6.507   6.220
  286TIP3    H222494   1.154   6.475   6.365
  287TIP3   OH222495   0.054   1.515   6.216
  287TIP3    H122496  -0.023   1.470   6.183
  287TIP3    H222497   0.029   1.607   6.219
  288TIP3   OH222498   6.886   1.399   6.186
  288TIP3    H122499   6.795   1.384   6.163
  288TIP3    H222500   6.895   1.495   6.188
  289TIP3   OH222501   1.381   0.071   6.389
  289TIP3    H122502   1.415  -0.015   6.364
  289TIP3    H222503   1.291   0.071   6.357
  290TIP3   OH222504   0.381   6.801   6.323
  290TIP3    H122505   0.306   6.857   6.341
  290TIP3    H222506   0.365   6.767   6.235
  291TIP3   OH222507   0.063   6.595   6.266
  291TIP3    H122508   0.027   6.659   6.327
  291TIP3    H222509  -0.009   6.578   6.204
  292TIP3   OH222510   0.461   6.545   6.396
  292TIP3    H122511   0.442   6.634   6.368
  292TIP3    H222512   0.386   6.494   6.366
  293TIP3   OH222513  -0.011   0.589   6.161
  293TIP3    H122514   0.083   0.600   6.174
  293TIP3    H222515  -0.020   0.499   6.129
  294TIP3   OH222516   0.299   1.000   6.267
  294TIP3    H122517   0.224   1.059   6.262
  294TIP3    H222518   0.330   1.008   6.357
  295TIP3   OH222519   0.328   0.544   6.353
  295TIP3    H122520   0.313   0.611   6.286
  295TIP3    H222521   0.413   0.506   6.331
  296TIP3   OH222522   3.909   3.505   2.352
  296TIP3    H122523   3.911   3.522   2.446
  296TIP3    H222524   3.864   3.420   2.345
  297TIP3   OH222525   3.734   3.000   2.144
  297TIP3    H122526   3.664   2.939   2.120
  297TIP3    H222527   3.691   3.086   2.147
  298TIP3   OH222528   3.581   3.243   2.181
  298TIP3    H122529   3.497   3.233   2.228
  298TIP3    H222530   3.642   3.274   2.248
  299TIP3   OH222531   3.985   4.565   2.072
  299TIP3    H122532   3.893   4.589   2.071
  299TIP3    H222533   4.009   4.563   2.165
  300TIP3   OH222534   3.796   4.850   2.295
  300TIP3    H122535   3.881   4.883   2.265
  300TIP3    H222536   3.757   4.923   2.343
  301TIP3   OH222537   3.117   4.507   2.295
  301TIP3    H122538   3.201   4.461   2.292
  301TIP3    H222539   3.140   4.598   2.315
  302TIP3   OH222540   3.022   4.961   2.224
  302TIP3    H122541   2.950   5.007   2.268
  302TIP3    H222542   3.006   4.977   2.131
  303TIP3   OH222543   4.002   2.692   2.249
  303TIP3    H122544   3.917   2.651   2.232
  303TIP3    H222545   4.047   2.630   2.307
  304TIP3   OH222546   4.322   5.224   2.257
  304TIP3    H122547   4.314   5.293   2.322
  304TIP3    H222548   4.373   5.156   2.299
  305TIP3   OH222549   4.706   5.222   2.173
  305TIP3    H122550   4.706   5.317   2.190
  305TIP3    H222551   4.659   5.185   2.247
  306TIP3   OH222552   2.464   4.725   2.237
  306TIP3    H122553   2.465   4.644   2.186
  306TIP3    H222554   2.387   4.772   2.206
  307TIP3   OH222555   3.373   1.555   2.219
  307TIP3    H122556   3.325   1.499   2.158
  307TIP3    H222557   3.450   1.503   2.243
  308TIP3   OH222558   3.669   1.813   2.288
  308TIP3    H122559   3.712   1.738   2.329
  308TIP3    H222560   3.589   1.826   2.339
  309TIP3   OH222561   3.466   1.771   2.071
  309TIP3    H122562   3.457   1.687   2.117
  309TIP3    H222563   3.548   1.808   2.105
  310TIP3   OH222564   5.435   4.589   2.155
  310TIP3    H122565   5.452   4.587   2.061
  310TIP3    H222566   5.388   4.672   2.169
  311TIP3   OH222567   2.906   5.843   2.230
  311TIP3    H122568   2.841   5.896   2.278
  311TIP3    H222569   2.911   5.761   2.279
  312TIP3   OH222570   3.212   5.617   2.101
  312TIP3    H122571   3.200   5.523   2.094
  312TIP3    H222572   3.138   5.647   2.155
  313TIP3   OH222573   4.500   6.013   2.219
  313TIP3    H122574   4.414   6.016   2.261
  313TIP3    H222575   4.561   5.996   2.290
  314TIP3   OH222576   5.835   2.703   2.247
  314TIP3    H122577   5.768   2.635   2.257
  314TIP3    H222578   5.918   2.657   2.259
  315TIP3   OH222579   6.208   2.929   2.176
  315TIP3    H122580   6.149   2.932   2.251
  315TIP3    H222581   6.211   2.836   2.152
  316TIP3   OH222582   5.810   3.299   2.319
  316TIP3    H122583   5.822   3.388   2.287
  316TIP3    H222584   5.898   3.261   2.320
  317TIP3   OH222585   5.271   5.808   2.249
  317TIP3    H122586   5.337   5.878   2.250
  317TIP3    H222587   5.196   5.845   2.294
  318TIP3   OH222588   5.906   5.183   2.212
  318TIP3    H122589   5.930   5.104   2.259
  318TIP3    H222590   5.882   5.246   2.281
  319TIP3   OH222591   2.763   6.047   2.352
  319TIP3    H122592   2.716   6.130   2.348
  319TIP3    H222593   2.847   6.068   2.392
  320TIP3   OH222594   5.774   5.486   2.145
  320TIP3    H122595   5.798   5.394   2.141
  320TIP3    H222596   5.678   5.487   2.139
  321TIP3   OH222597   0.959   5.314   2.195
  321TIP3    H122598   0.872   5.299   2.158
  321TIP3    H222599   0.981   5.404   2.170
  322TIP3   OH222600   4.737   6.596   2.092
  322TIP3    H122601   4.770   6.575   2.179
  322TIP3    H222602   4.644   6.612   2.105
  323TIP3   OH222603   4.981   6.386   2.381
  323TIP3    H122604   5.038   6.390   2.458
  323TIP3    H222605   4.922   6.461   2.392
  324TIP3   OH222606   1.255   1.769   2.152
  324TIP3    H122607   1.177   1.791   2.202
  324TIP3    H222608   1.308   1.716   2.212
  325TIP3   OH222609   1.573   1.429   2.239
  325TIP3    H122610   1.548   1.448   2.149
  325TIP3    H222611   1.660   1.466   2.249
  326TIP3   OH222612   6.986   2.955   2.177
  326TIP3    H122613   7.013   2.907   2.099
  326TIP3    H222614   7.050   2.930   2.244
  327TIP3   OH222615   5.605   0.156   2.269
  327TIP3    H122616   5.600   0.199   2.354
  327TIP3    H222617   5.697   0.159   2.245
  328TIP3   OH222618   1.366   6.739   2.228
  328TIP3    H122619   1.308   6.750   2.304
  328TIP3    H222620   1.334   6.660   2.186
  329TIP3   OH222621   6.765   0.640   2.249
  329TIP3    H122622   6.824   0.716   2.245
  329TIP3    H222623   6.692   0.670   2.304
  330TIP3   OH222624   1.879   0.166   2.168
  330TIP3    H122625   1.822   0.243   2.168
  330TIP3    H222626   1.854   0.117   2.090
  331TIP3   OH222627   0.226   6.736   2.233
  331TIP3    H122628   0.139   6.774   2.245
  331TIP3    H222629   0.276   6.805   2.190
  332TIP3   OH222630   0.584   6.682   2.125
  332TIP3    H122631   0.641   6.631   2.069
  332TIP3    H222632   0.529   6.617   2.169
  333TIP3   OH222633   0.143   6.577   2.008
  333TIP3    H122634   0.069   6.527   2.042
  333TIP3    H222635   0.185   6.613   2.087
  334TIP3   OH222636   7.319   6.851   2.264
  334TIP3    H122637   7.233   6.809   2.274
  334TIP3    H222638   7.306   6.915   2.193
  335TIP3   OH222639   6.980   6.680   2.084
  335TIP3    H122640   6.908   6.624   2.056
  335TIP3    H222641   6.979   6.676   2.180
  336TIP3   OH222642   1.167   1.037   6.915
  336TIP3    H122643   1.158   1.129   6.889
  336TIP3    H222644   1.086   1.018   6.963
  337TIP3   OH222645   1.067   0.932   7.300
  337TIP3    H122646   1.093   0.894   7.383
  337TIP3    H222647   1.021   0.862   7.254
  338TIP3   OH222648   0.302   0.888   7.419
  338TIP3    H122649   0.290   0.812   7.477
  338TIP3    H222650   0.397   0.895   7.409
  339TIP3   OH222651   1.451   1.240   7.116
  339TIP3    H122652   1.412   1.161   7.154
  339TIP3    H222653   1.463   1.299   7.190
  340TIP3   OH222654   0.410   1.343   7.240
  340TIP3    H122655   0.382   1.254   7.219
  340TIP3    H222656   0.504   1.336   7.258
  341TIP3   OH222657   0.083   0.748   6.817
  341TIP3    H122658   0.140   0.819   6.848
  341TIP3    H222659   0.000   0.762   6.863
  342TIP3   OH222660   0.182   0.925   7.038
  342TIP3    H122661   0.194   0.842   7.084
  342TIP3    H222662   0.250   0.982   7.074
  343TIP3   OH222663   1.162   1.725   7.177
  343TIP3    H122664   1.201   1.668   7.111
  343TIP3    H222665   1.148   1.668   7.253
  344TIP3   OH222666   0.913   1.186   7.317
  344TIP3    H122667   0.948   1.104   7.282
  344TIP3    H222668   0.982   1.218   7.376
  345TIP3   OH222669   1.812   0.324   7.420
  345TIP3    H122670   1.823   0.392   7.487
  345TIP3    H222671   1.869   0.352   7.348
  346TIP3   OH222672   1.230   0.616   7.329
  346TIP3    H122673   1.249   0.524   7.344
  346TIP3    H222674   1.210   0.622   7.236
  347TIP3   OH222675   0.575   0.429   7.062
  347TIP3    H122676   0.593   0.512   7.018
  347TIP3    H222677   0.526   0.377   6.997
  348TIP3   OH222678   1.347   0.445   6.917
  348TIP3    H122679   1.398   0.417   6.993
  348TIP3    H222680   1.413   0.474   6.853
  349TIP3   OH222681   0.224   0.675   7.150
  349TIP3    H122682   0.288   0.626   7.202
  349TIP3    H222683   0.231   0.638   7.062
  350TIP3   OH222684   0.699   0.811   7.104
  350TIP3    H122685   0.783   0.775   7.132
  350TIP3    H222686   0.667   0.748   7.039
  351TIP3   OH222687   1.836   0.497   7.638
  351TIP3    H122688   1.759   0.551   7.619
  351TIP3    H222689   1.845   0.500   7.733
  352TIP3   OH222690   0.415   0.339   7.495
  352TIP3    H122691   0.392   0.395   7.421
  352TIP3    H222692   0.343   0.350   7.556
  353TIP3   OH222693   1.117   1.286   6.810
  353TIP3    H122694   1.101   1.292   6.716
  353TIP3    H222695   1.087   1.370   6.844
  354TIP3   OH222696   0.695   1.106   7.468
  354TIP3    H122697   0.641   1.175   7.505
  354TIP3    H222698   0.763   1.153   7.419
  355TIP3   OH222699   1.459   0.392   7.158
  355TIP3    H122700   1.396   0.361   7.222
  355TIP3    H222701   1.516   0.451   7.207
  356TIP3   OH222702   0.404   0.499   7.269
  356TIP3    H122703   0.461   0.553   7.323
  356TIP3    H222704   0.462   0.461   7.203
  357TIP3   OH222705   0.538   1.308   7.580
  357TIP3    H122706   0.542   1.403   7.568
  357TIP3    H222707   0.448   1.291   7.607
  358TIP3   OH222708   0.107   1.237   6.635
  358TIP3    H122709   0.110   1.278   6.549
  358TIP3    H222710   0.135   1.305   6.696
  359TIP3   OH222711   1.463   1.422   7.324
  359TIP3    H122712   1.370   1.413   7.344
  359TIP3    H222713   1.482   1.515   7.333
  360TIP3   OH222714   1.556   0.261   7.514
  360TIP3    H122715   1.482   0.271   7.454
  360TIP3    H222716   1.633   0.280   7.460
  361TIP3   OH222717   0.810   0.121   7.228
  361TIP3    H122718   0.791   0.027   7.231
  361TIP3    H222719   0.730   0.163   7.260
  362TIP3   OH222720   1.301   1.610   6.969
  362TIP3    H122721   1.344   1.527   6.948
  362TIP3    H222722   1.372   1.675   6.963
  363TIP3   OH222723   1.457   1.401   6.891
  363TIP3    H122724   1.452   1.336   6.821
  363TIP3    H222725   1.459   1.349   6.972
  364TIP3   OH222726   1.597   1.226   7.689
  364TIP3    H122727   1.584   1.174   7.610
  364TIP3    H222728   1.608   1.316   7.658
  365TIP3   OH222729   1.093   0.927   6.657
  365TIP3    H122730   1.020   0.989   6.661
  365TIP3    H222731   1.161   0.965   6.712
  366TIP3   OH222732   1.757   0.897   7.522
  366TIP3    H122733   1.684   0.957   7.504
  366TIP3    H222734   1.823   0.920   7.456
  367TIP3   OH222735   1.382   0.954   6.769
  367TIP3    H122736   1.318   0.972   6.838
  367TIP3    H222737   1.443   0.891   6.809
  368TIP3   OH222738   1.369   0.761   7.708
  368TIP3    H122739   1.360   0.831   7.773
  368TIP3    H222740   1.304   0.783   7.641
  369TIP3   OH222741   0.563   1.011   6.965
  369TIP3    H122742   0.538   0.976   6.880
  369TIP3    H222743   0.616   0.941   7.005
  370TIP3   OH222744   0.699   1.366   7.220
  370TIP3    H122745   0.696   1.372   7.124
  370TIP3    H222746   0.774   1.310   7.238
  371TIP3   OH222747   0.565   0.906   7.331
  371TIP3    H122748   0.618   0.881   7.255
  371TIP3    H222749   0.616   0.973   7.376
  372TIP3   OH222750   1.202   1.449   7.404
  372TIP3    H122751   1.199   1.507   7.481
  372TIP3    H222752   1.170   1.365   7.437
  373TIP3   OH222753   0.694   1.341   7.807
  373TIP3    H122754   0.632   1.400   7.850
  373TIP3    H222755   0.649   1.311   7.728
  374TIP3   OH222756   0.409   0.948   7.742
  374TIP3    H122757   0.403   1.023   7.802
  374TIP3    H222758   0.320   0.938   7.708
  375TIP3   OH222759   1.059   1.553   6.854
  375TIP3    H122760   1.138   1.575   6.903
  375TIP3    H222761   1.037   1.634   6.807
  376TIP3   OH222762   0.496   1.527   7.877
  376TIP3    H122763   0.502   1.551   7.784
  376TIP3    H222764   0.402   1.520   7.894
  377TIP3   OH222765   1.644   0.023   6.525
  377TIP3    H122766   1.570   0.060   6.572
  377TIP3    H222767   1.627   0.044   6.433
  378TIP3   OH222768   0.466   0.931   6.708
  378TIP3    H122769   0.416   0.994   6.655
  378TIP3    H222770   0.403   0.862   6.728
  379TIP3   OH222771   0.152   1.131   7.581
  379TIP3    H122772   0.088   1.128   7.510
  379TIP3    H222773   0.147   1.044   7.621
  380TIP3   OH222774   0.082   1.478   7.241
  380TIP3    H122775   0.166   1.437   7.260
  380TIP3    H222776   0.019   1.430   7.295
  381TIP3   OH222777   1.860   1.523   7.889
  381TIP3    H122778   1.848   1.429   7.880
  381TIP3    H222779   1.777   1.554   7.926
  382TIP3   OH222780   0.936   1.461   7.751
  382TIP3    H122781   0.933   1.546   7.794
  382TIP3    H222782   0.850   1.422   7.770
  383TIP3   OH222783   1.037   1.800   6.711
  383TIP3    H122784   1.010   1.788   6.620
  383TIP3    H222785   0.971   1.858   6.749
  384TIP3   OH222786   0.364   1.695   6.927
  384TIP3    H122787   0.384   1.663   7.015
  384TIP3    H222788   0.311   1.626   6.888
  385TIP3   OH222789   1.544   0.635   7.915
  385TIP3    H122790   1.490   0.671   7.845
  385TIP3    H222791   1.557   0.544   7.891
  386TIP3   OH222792   0.287   1.327   7.712
  386TIP3    H122793   0.319   1.274   7.785
  386TIP3    H222794   0.230   1.267   7.662
  387TIP3   OH222795   0.556   0.182   7.315
  387TIP3    H122796   0.490   0.127   7.273
  387TIP3    H222797   0.508   0.226   7.386
  388TIP3   OH222798   1.012   0.123   7.699
  388TIP3    H122799   1.016   0.086   7.787
  388TIP3    H222800   0.918   0.133   7.682
  389TIP3   OH222801   1.313   0.489   7.739
  389TIP3    H122802   1.244   0.478   7.805
  389TIP3    H222803   1.317   0.583   7.723
  390TIP3   OH222804   0.556   0.652   7.442
  390TIP3    H122805   0.487   0.653   7.509
  390TIP3    H222806   0.561   0.742   7.411
  391TIP3   OH222807   0.578   0.656   6.905
  391TIP3    H122808   0.483   0.645   6.900
  391TIP3    H222809   0.610   0.632   6.818
  392TIP3   OH222810   1.108   0.689   6.797
  392TIP3    H122811   1.092   0.771   6.750
  392TIP3    H222812   1.175   0.644   6.744
  393TIP3   OH222813   1.024   0.703   7.920
  393TIP3    H122814   0.967   0.635   7.957
  393TIP3    H222815   1.109   0.686   7.960
  394TIP3   OH222816   1.196   0.630   7.055
  394TIP3    H122817   1.155   0.674   6.981
  394TIP3    H222818   1.239   0.554   7.017
  395TIP3   OH222819   0.334   0.654   7.604
  395TIP3    H122820   0.327   0.704   7.685
  395TIP3    H222821   0.284   0.574   7.621
  396TIP3   OH222822   0.065   0.434   6.973
  396TIP3    H122823   0.079   0.414   7.065
  396TIP3    H222824   0.092   0.355   6.926
  397TIP3   OH222825   0.168   0.459   6.575
  397TIP3    H122826   0.226   0.468   6.500
  397TIP3    H222827   0.142   0.548   6.597
  398TIP3   OH222828   1.151   0.784   7.526
  398TIP3    H122829   1.186   0.728   7.456
  398TIP3    H222830   1.086   0.729   7.570
  399TIP3   OH222831   0.864   0.383   7.022
  399TIP3    H122832   0.776   0.380   7.062
  399TIP3    H222833   0.922   0.349   7.090
  400TIP3   OH222834   0.312   0.587   6.888
  400TIP3    H122835   0.223   0.605   6.858
  400TIP3    H222836   0.321   0.492   6.881
  401TIP3   OH222837   0.662   0.563   6.645
  401TIP3    H122838   0.741   0.538   6.694
  401TIP3    H222839   0.693   0.627   6.581
  402TIP3   OH222840   1.259   0.341   7.349
  402TIP3    H122841   1.214   0.341   7.434
  402TIP3    H222842   1.194   0.308   7.287
  403TIP3   OH222843   1.597   1.896   8.006
  403TIP3    H122844   1.622   1.913   7.915
  403TIP3    H222845   1.675   1.917   8.057
  404TIP3   OH222846   0.362   1.161   7.921
  404TIP3    H122847   0.426   1.156   7.992
  404TIP3    H222848   0.277   1.160   7.965
  405TIP3   OH222849   0.934   0.699   7.206
  405TIP3    H122850   0.997   0.643   7.160
  405TIP3    H222851   0.901   0.644   7.277
  406TIP3   OH222852   0.424   0.318   6.858
  406TIP3    H122853   0.389   0.234   6.887
  406TIP3    H222854   0.414   0.316   6.762
  407TIP3   OH222855   0.820   0.569   7.426
  407TIP3    H122856   0.733   0.606   7.439
  407TIP3    H222857   0.868   0.592   7.505
  408TIP3   OH222858   0.885   1.099   6.636
  408TIP3    H122859   0.813   1.055   6.591
  408TIP3    H222860   0.843   1.143   6.711
  409TIP3   OH222861   1.565   1.085   7.454
  409TIP3    H122862   1.624   1.138   7.402
  409TIP3    H222863   1.493   1.064   7.395
  410TIP3   OH222864   1.011   1.179   7.749
  410TIP3    H122865   1.027   1.145   7.837
  410TIP3    H222866   0.984   1.270   7.763
  411TIP3   OH222867   1.290   0.579   6.623
  411TIP3    H122868   1.386   0.575   6.628
  411TIP3    H222869   1.271   0.577   6.530
  412TIP3   OH222870   0.385   1.069   7.167
  412TIP3    H122871   0.448   1.060   7.095
  412TIP3    H222872   0.421   1.013   7.236
  413TIP3   OH222873   1.052   1.294   6.536
  413TIP3    H122874   0.979   1.350   6.510
  413TIP3    H222875   1.012   1.214   6.567
  414TIP3   OH222876   0.140   0.887   7.715
  414TIP3    H122877   0.150   0.864   7.808
  414TIP3    H222878   0.072   0.828   7.683
  415TIP3   OH222879   0.804   0.885   7.943
  415TIP3    H122880   0.738   0.850   7.883
  415TIP3    H222881   0.885   0.839   7.919
  416TIP3   OH222882   1.220   1.432   7.751
  416TIP3    H122883   1.129   1.447   7.722
  416TIP3    H222884   1.218   1.449   7.845
  417TIP3   OH222885   1.757   0.666   6.582
  417TIP3    H122886   1.743   0.681   6.489
  417TIP3    H222887   1.741   0.751   6.623
  418TIP3   OH222888   1.825   1.251   7.851
  418TIP3    H122889   1.732   1.243   7.827
  418TIP3    H222890   1.872   1.224   7.773
  419TIP3   OH222891   1.358   1.007   7.273
  419TIP3    H122892   1.263   0.996   7.271
  419TIP3    H222893   1.392   0.928   7.231
  420TIP3   OH222894   0.638   1.433   6.952
  420TIP3    H122895   0.663   1.514   6.907
  420TIP3    H222896   0.543   1.429   6.942
  421TIP3   OH222897   0.741   1.193   6.851
  421TIP3    H122898   0.720   1.282   6.879
  421TIP3    H222899   0.679   1.137   6.898
  422TIP3   OH222900   0.823   1.608   7.527
  422TIP3    H122901   0.881   1.680   7.501
  422TIP3    H222902   0.879   1.550   7.579
  423TIP3   OH222903   0.621   1.690   6.826
  423TIP3    H122904   0.532   1.706   6.856
  423TIP3    H222905   0.671   1.765   6.857
  424TIP3   OH222906   1.126   1.201   7.501
  424TIP3    H122907   1.088   1.188   7.588
  424TIP3    H222908   1.192   1.133   7.493
  425TIP3   OH222909   1.409   1.642   7.757
  425TIP3    H122910   1.346   1.571   7.746
  425TIP3    H222911   1.426   1.673   7.668
  426TIP3   OH222912   0.205   0.400   7.666
  426TIP3    H122913   0.109   0.405   7.665
  426TIP3    H222914   0.224   0.329   7.727
  427TIP3   OH222915   1.481   1.200   6.711
  427TIP3    H122916   1.438   1.115   6.720
  427TIP3    H222917   1.572   1.184   6.734
  428TIP3   OH222918   0.227   1.596   7.516
  428TIP3    H122919   0.234   1.507   7.551
  428TIP3    H222920   0.230   1.652   7.594
  429TIP3   OH222921   0.332   1.101   6.531
  429TIP3    H122922   0.248   1.125   6.571
  429TIP3    H222923   0.373   1.184   6.509
  430TIP3   OH222924   1.123   0.352   7.589
  430TIP3    H122925   1.195   0.376   7.648
  430TIP3    H222926   1.088   0.271   7.626
  431TIP3   OH222927   1.187   0.309   6.666
  431TIP3    H122928   1.147   0.327   6.581
  431TIP3    H222929   1.221   0.393   6.695
  432TIP3   OH222930   0.884   0.523   6.789
  432TIP3    H122931   0.964   0.575   6.791
  432TIP3    H222932   0.883   0.477   6.873
  433TIP3   OH222933   0.989   0.599   7.649
  433TIP3    H122934   0.995   0.616   7.743
  433TIP3    H222935   1.023   0.511   7.638
  434TIP3   OH222936   0.982   0.180   6.817
  434TIP3    H122937   0.958   0.249   6.878
  434TIP3    H222938   1.053   0.217   6.764
  435TIP3   OH222939   0.572   1.678   6.545
  435TIP3    H122940   0.638   1.742   6.520
  435TIP3    H222941   0.585   1.665   6.639
  436TIP3   OH222942   1.563   0.391   7.769
  436TIP3    H122943   1.470   0.415   7.761
  436TIP3    H222944   1.585   0.354   7.684
  437TIP3   OH222945   1.438   0.762   7.150
  437TIP3    H122946   1.355   0.719   7.131
  437TIP3    H222947   1.484   0.701   7.208
  438TIP3   OH222948   0.446   1.356   6.454
  438TIP3    H122949   0.458   1.442   6.493
  438TIP3    H222950   0.534   1.321   6.444
  439TIP3   OH222951   1.628   1.753   7.193
  439TIP3    H122952   1.564   1.745   7.263
  439TIP3    H222953   1.713   1.737   7.236
  440TIP3   OH222954   0.251   0.111   7.216
  440TIP3    H122955   0.313   0.066   7.159
  440TIP3    H222956   0.230   0.047   7.284
  441TIP3   OH222957   0.204   1.488   6.811
  441TIP3    H122958   0.117   1.489   6.851
  441TIP3    H222959   0.198   1.549   6.738
  442TIP3   OH222960   0.160   1.802   7.989
  442TIP3    H122961   0.218   1.799   8.065
  442TIP3    H222962   0.156   1.712   7.958
  443TIP3   OH222963   0.573   1.623   8.125
  443TIP3    H122964   0.648   1.567   8.144
  443TIP3    H222965   0.545   1.597   8.037
  444TIP3   OH222966   1.215   1.481   8.020
  444TIP3    H122967   1.206   1.395   8.062
  444TIP3    H222968   1.295   1.518   8.058
  445TIP3   OH222969   0.119   1.158   8.050
  445TIP3    H122970   0.107   1.063   8.041
  445TIP3    H222971   0.030   1.193   8.052
  446TIP3   OH222972   0.771   1.161   8.005
  446TIP3    H122973   0.753   1.206   7.922
  446TIP3    H222974   0.793   1.072   7.979
  447TIP3   OH222975   1.338   1.177   7.776
  447TIP3    H122976   1.428   1.199   7.752
  447TIP3    H222977   1.288   1.256   7.757
  448TIP3   OH222978   0.156   0.837   7.984
  448TIP3    H122979   0.158   0.741   7.985
  448TIP3    H222980   0.178   0.862   8.073
  449TIP3   OH222981   0.680   0.947   6.529
  449TIP3    H122982   0.619   0.943   6.603
  449TIP3    H222983   0.627   0.921   6.454
  450TIP3   OH222984   0.623   0.781   7.755
  450TIP3    H122985   0.547   0.838   7.749
  450TIP3    H222986   0.683   0.813   7.687
  451TIP3   OH222987   1.119   1.006   8.048
  451TIP3    H122988   1.191   0.967   7.999
  451TIP3    H222989   1.078   0.932   8.094
  452TIP3   OH222990   0.658   0.520   7.822
  452TIP3    H122991   0.660   0.464   7.744
  452TIP3    H222992   0.645   0.608   7.788
  453TIP3   OH222993   0.674   0.370   7.586
  453TIP3    H122994   0.724   0.409   7.515
  453TIP3    H222995   0.585   0.363   7.551
  454TIP3   OH222996   0.808   0.887   7.589
  454TIP3    H122997   0.903   0.903   7.592
  454TIP3    H222998   0.772   0.967   7.551
  455TIP3   OH222999   1.261   0.634   8.081
  455TIP3    H123000   1.276   0.540   8.085
  455TIP3    H223001   1.348   0.672   8.069
  456TIP3   OH223002   1.378   0.952   7.921
  456TIP3    H123003   1.352   1.032   7.876
  456TIP3    H223004   1.473   0.947   7.910
  457TIP3   OH223005   0.508   0.572   8.055
  457TIP3    H123006   0.418   0.543   8.041
  457TIP3    H223007   0.549   0.568   7.969
  458TIP3   OH223008   0.735   0.116   7.675
  458TIP3    H123009   0.711   0.204   7.646
  458TIP3    H223010   0.662   0.061   7.648
  459TIP3   OH223011   0.865   0.491   7.997
  459TIP3    H123012   0.821   0.452   8.072
  459TIP3    H223013   0.797   0.499   7.930
  460TIP3   OH223014   1.117   0.416   7.909
  460TIP3    H123015   1.028   0.423   7.942
  460TIP3    H223016   1.166   0.378   7.983
  461TIP3   OH223017   1.298   0.350   8.116
  461TIP3    H123018   1.309   0.260   8.087
  461TIP3    H223019   1.288   0.345   8.211
  462TIP3   OH223020   0.278   0.420   7.998
  462TIP3    H123021   0.277   0.343   7.942
  462TIP3    H223022   0.274   0.385   8.087
  463TIP3   OH223023   0.826   7.332   7.902
  463TIP3    H123024   0.755   7.303   7.960
  463TIP3    H223025   0.781   7.376   7.830
  464TIP3   OH223026   0.870   0.186   8.119
  464TIP3    H123027   0.866   0.112   8.058
  464TIP3    H223028   0.787   0.233   8.106
  465TIP3   OH223029   0.759   1.877   6.476
  465TIP3    H123030   0.847   1.854   6.446
  465TIP3    H223031   0.720   1.925   6.403
  466TIP3   OH223032   0.171   1.328   6.381
  466TIP3    H123033   0.256   1.365   6.404
  466TIP3    H223034   0.128   1.396   6.328
  467TIP3   OH223035   0.031   1.901   6.875
  467TIP3    H123036   0.001   1.856   6.796
  467TIP3    H223037   0.037   1.832   6.942
  468TIP3   OH223038   0.065   1.687   7.064
  468TIP3    H123039   0.060   1.599   7.101
  468TIP3    H223040   0.125   1.734   7.123
  469TIP3   OH223041   1.842   1.714   7.384
  469TIP3    H123042   1.812   1.715   7.474
  469TIP3    H223043   1.922   1.766   7.384
  470TIP3   OH223044   1.790   1.678   7.666
  470TIP3    H123045   1.728   1.615   7.629
  470TIP3    H223046   1.827   1.633   7.742
  471TIP3   OH223047   1.622   1.301   8.143
  471TIP3    H123048   1.548   1.301   8.203
  471TIP3    H223049   1.677   1.374   8.173
  472TIP3   OH223050   1.748   1.153   6.753
  472TIP3    H123051   1.741   1.144   6.658
  472TIP3    H223052   1.770   1.065   6.784
  473TIP3   OH223053   1.809   0.899   6.854
  473TIP3    H123054   1.724   0.866   6.881
  473TIP3    H223055   1.856   0.914   6.936
  474TIP3   OH223056   1.801   1.215   7.374
  474TIP3    H123057   1.852   1.143   7.336
  474TIP3    H223058   1.832   1.293   7.327
  475TIP3   OH223059   1.629   1.472   7.558
  475TIP3    H123060   1.567   1.543   7.541
  475TIP3    H223061   1.629   1.421   7.478
  476TIP3   OH223062   1.562   0.780   6.902
  476TIP3    H123063   1.553   0.691   6.868
  476TIP3    H223064   1.525   0.777   6.990
  477TIP3   OH223065   0.080   1.003   7.307
  477TIP3    H123066   0.092   1.005   7.212
  477TIP3    H223067   0.166   0.980   7.343
  478TIP3   OH223068   1.651   0.962   7.863
  478TIP3    H123069   1.712   0.889   7.856
  478TIP3    H223070   1.671   1.017   7.787
  479TIP3   OH223071   1.800   0.728   7.866
  479TIP3    H123072   1.714   0.692   7.889
  479TIP3    H223073   1.862   0.661   7.893
  480TIP3   OH223074   1.564   0.530   6.745
  480TIP3    H123075   1.590   0.438   6.753
  480TIP3    H223076   1.629   0.568   6.686
  481TIP3   OH223077   1.592   0.584   7.307
  481TIP3    H123078   1.685   0.597   7.287
  481TIP3    H223079   1.586   0.597   7.402
  482TIP3   OH223080   1.616   0.666   7.576
  482TIP3    H123081   1.534   0.698   7.613
  482TIP3    H223082   1.668   0.745   7.561
  483TIP3   OH223083   0.052   0.548   7.909
  483TIP3    H123084   0.131   0.504   7.942
  483TIP3    H223085   0.019   0.490   7.841
  484TIP3   OH223086   1.933   0.072   8.049
  484TIP3    H123087   1.889  -0.013   8.055
  484TIP3    H223088   1.869   0.129   8.007
  485TIP3   OH223089   1.625   0.259   6.767
  485TIP3    H123090   1.642   0.216   6.851
  485TIP3    H223091   1.550   0.212   6.731
  486TIP3   OH223092   0.148   0.373   7.231
  486TIP3    H123093   0.173   0.281   7.233
  486TIP3    H223094   0.228   0.420   7.252
  487TIP3   OH223095   0.049   0.732   7.370
  487TIP3    H123096   0.102   0.702   7.296
  487TIP3    H223097   0.044   0.827   7.357
  488TIP3   OH223098   1.764   0.241   7.918
  488TIP3    H123099   1.693   0.297   7.949
  488TIP3    H223100   1.737   0.214   7.831
  489TIP3   OH223101   0.133   0.250   6.775
  489TIP3    H123102   0.061   0.194   6.745
  489TIP3    H223103   0.149   0.309   6.702
  490TIP3   OH223104   1.510   1.788   6.949
  490TIP3    H123105   1.577   1.762   6.886
  490TIP3    H223106   1.551   1.776   7.034
  491TIP3   OH223107   0.041   0.081   7.602
  491TIP3    H123108  -0.033   0.029   7.632
  491TIP3    H223109   0.002   0.149   7.546
  492TIP3   OH223110   0.222   1.513   7.953
  492TIP3    H123111   0.190   1.453   7.886
  492TIP3    H223112   0.192   1.476   8.035
  493TIP3   OH223113   0.562   1.584   7.608
  493TIP3    H123114   0.528   1.667   7.577
  493TIP3    H223115   0.655   1.586   7.587
  494TIP3   OH223116   0.937   1.705   7.888
  494TIP3    H123117   0.953   1.676   7.978
  494TIP3    H223118   1.015   1.755   7.864
  495TIP3   OH223119   1.166   1.848   7.835
  495TIP3    H123120   1.219   1.793   7.778
  495TIP3    H223121   1.223   1.867   7.910
  496TIP3   OH223122   1.690   0.096   7.688
  496TIP3    H123123   1.635   0.148   7.629
  496TIP3    H223124   1.668   0.005   7.669
  497TIP3   OH223125   0.268   1.899   7.621
  497TIP3    H123126   0.185   1.933   7.590
  497TIP3    H223127   0.280   1.940   7.707
  498TIP3   OH223128   0.520   1.846   7.528
  498TIP3    H123129   0.430   1.861   7.555
  498TIP3    H223130   0.528   1.890   7.443
  499TIP3   OH223131   0.965   1.825   7.432
  499TIP3    H123132   0.918   1.861   7.357
  499TIP3    H223133   0.975   1.899   7.492
  500TIP3   OH223134   1.172   1.695   7.565
  500TIP3    H123135   1.108   1.742   7.512
  500TIP3    H223136   1.256   1.711   7.522
  501TIP3   OH223137   1.503   1.989   7.594
  501TIP3    H123138   1.477   2.048   7.522
  501TIP3    H223139   1.486   1.901   7.560
  502TIP3   OH223140   0.230   1.751   7.285
  502TIP3    H123141   0.216   1.707   7.369
  502TIP3    H223142   0.303   1.704   7.245
  503TIP3   OH223143   0.436   1.609   7.177
  503TIP3    H123144   0.421   1.517   7.200
  503TIP3    H223145   0.523   1.628   7.211
  504TIP3   OH223146   0.698   1.642   7.277
  504TIP3    H123147   0.709   1.553   7.244
  504TIP3    H223148   0.729   1.638   7.367
  505TIP3   OH223149   1.047   0.255   7.190
  505TIP3    H123150   0.971   0.199   7.210
  505TIP3    H223151   1.108   0.197   7.145
  506TIP3   OH223152   1.510   0.030   7.187
  506TIP3    H123153   1.575   0.068   7.128
  506TIP3    H223154   1.428   0.074   7.163
  507TIP3   OH223155   1.704   0.136   7.005
  507TIP3    H123156   1.768   0.067   7.021
  507TIP3    H223157   1.753   0.217   7.016
  508TIP3   OH223158   0.317   0.068   6.906
  508TIP3    H123159   0.240   0.113   6.870
  508TIP3    H223160   0.295  -0.025   6.902
  509TIP3   OH223161   0.304   0.151   6.452
  509TIP3    H123162   0.275   0.113   6.369
  509TIP3    H223163   0.273   0.088   6.518
  510TIP3   OH223164   1.261   0.129   7.069
  510TIP3    H123165   1.276   0.191   6.998
  510TIP3    H223166   1.270   0.043   7.029
  511TIP3   OH223167   1.398   0.120   6.673
  511TIP3    H123168   1.329   0.186   6.681
  511TIP3    H223169   1.373   0.069   6.596
  512TIP3   OH223170   0.161   1.674   6.621
  512TIP3    H123171   0.075   1.640   6.596
  512TIP3    H223172   0.171   1.754   6.570
  513TIP3   OH223173   1.010   1.817   6.367
  513TIP3    H123174   1.054   1.888   6.321
  513TIP3    H223175   0.962   1.770   6.299
  514TIP3   OH223176   1.703   1.664   6.747
  514TIP3    H123177   1.673   1.588   6.796
  514TIP3    H223178   1.768   1.629   6.686
  515TIP3   OH223179   0.249   0.190   7.846
  515TIP3    H123180   0.201   0.122   7.798
  515TIP3    H223181   0.307   0.142   7.904
  516TIP3   OH223182   0.413   0.081   8.049
  516TIP3    H123183   0.506   0.061   8.062
  516TIP3    H223184   0.370  -0.005   8.050
  517TIP3   OH223185   0.397   1.642   6.330
  517TIP3    H123186   0.334   1.711   6.347
  517TIP3    H223187   0.464   1.653   6.399
  518TIP3   OH223188   1.329   0.088   8.051
  518TIP3    H123189   1.378   0.027   8.106
  518TIP3    H223190   1.281   0.033   7.989
  519TIP3   OH223191   1.610   1.625   7.944
  519TIP3    H123192   1.542   1.618   7.877
  519TIP3    H223193   1.600   1.713   7.979
  520TIP3   OH223194   3.063   1.012   6.922
  520TIP3    H123195   3.034   1.103   6.924
  520TIP3    H223196   3.013   0.972   6.851
  521TIP3   OH223197   2.965   0.953   7.305
  521TIP3    H123198   2.972   0.893   7.380
  521TIP3    H223199   2.933   0.897   7.234
  522TIP3   OH223200   2.170   0.879   7.439
  522TIP3    H123201   2.172   0.805   7.500
  522TIP3    H223202   2.258   0.916   7.443
  523TIP3   OH223203   3.332   1.242   7.125
  523TIP3    H123204   3.305   1.165   7.173
  523TIP3    H223205   3.357   1.305   7.192
  524TIP3   OH223206   2.307   1.353   7.262
  524TIP3    H123207   2.276   1.265   7.240
  524TIP3    H223208   2.402   1.344   7.270
  525TIP3   OH223209   1.970   0.679   6.788
  525TIP3    H123210   1.922   0.758   6.812
  525TIP3    H223211   1.917   0.639   6.718
  526TIP3   OH223212   2.003   0.918   7.065
  526TIP3    H123213   2.031   0.829   7.084
  526TIP3    H223214   2.084   0.969   7.061
  527TIP3   OH223215   3.059   1.722   7.179
  527TIP3    H123216   3.102   1.671   7.111
  527TIP3    H223217   3.026   1.657   7.241
  528TIP3   OH223218   2.795   1.195   7.314
  528TIP3    H123219   2.833   1.117   7.273
  528TIP3    H223220   2.866   1.232   7.365
  529TIP3   OH223221   3.662   0.339   7.411
  529TIP3    H123222   3.683   0.400   7.481
  529TIP3    H223223   3.724   0.360   7.341
  530TIP3   OH223224   3.114   0.606   7.346
  530TIP3    H123225   3.147   0.517   7.356
  530TIP3    H223226   3.097   0.616   7.253
  531TIP3   OH223227   2.439   0.417   7.066
  531TIP3    H123228   2.457   0.502   7.026
  531TIP3    H223229   2.398   0.366   6.996
  532TIP3   OH223230   3.234   0.446   6.916
  532TIP3    H123231   3.284   0.418   6.993
  532TIP3    H223232   3.299   0.485   6.858
  533TIP3   OH223233   2.093   0.666   7.135
  533TIP3    H123234   2.155   0.627   7.195
  533TIP3    H223235   2.115   0.629   7.049
  534TIP3   OH223236   2.583   0.817   7.113
  534TIP3    H123237   2.669   0.781   7.133
  534TIP3    H223238   2.544   0.752   7.054
  535TIP3   OH223239   3.690   0.495   7.641
  535TIP3    H123240   3.639   0.575   7.635
  535TIP3    H223241   3.749   0.508   7.715
  536TIP3   OH223242   2.298   0.328   7.487
  536TIP3    H123243   2.275   0.384   7.413
  536TIP3    H223244   2.229   0.345   7.552
  537TIP3   OH223245   2.981   1.268   6.849
  537TIP3    H123246   3.055   1.276   6.789
  537TIP3    H223247   2.951   1.358   6.862
  538TIP3   OH223248   2.590   1.102   7.473
  538TIP3    H123249   2.532   1.170   7.508
  538TIP3    H223250   2.652   1.149   7.418
  539TIP3   OH223251   3.369   0.387   7.141
  539TIP3    H123252   3.400   0.300   7.170
  539TIP3    H223253   3.421   0.448   7.193
  540TIP3   OH223254   2.276   0.500   7.270
  540TIP3    H123255   2.334   0.557   7.321
  540TIP3    H223256   2.332   0.466   7.200
  541TIP3   OH223257   2.429   1.303   7.576
  541TIP3    H123258   2.430   1.398   7.561
  541TIP3    H223259   2.339   1.284   7.603
  542TIP3   OH223260   1.976   1.207   6.597
  542TIP3    H123261   1.898   1.188   6.544
  542TIP3    H223262   1.942   1.214   6.686
  543TIP3   OH223263   3.371   1.459   7.311
  543TIP3    H123264   3.277   1.460   7.324
  543TIP3    H223265   3.392   1.547   7.280
  544TIP3   OH223266   3.414   0.244   7.513
  544TIP3    H123267   3.338   0.258   7.457
  544TIP3    H223268   3.490   0.261   7.456
  545TIP3   OH223269   2.725   0.091   7.275
  545TIP3    H123270   2.707   0.038   7.198
  545TIP3    H223271   2.639   0.119   7.307
  546TIP3   OH223272   3.191   1.604   6.973
  546TIP3    H123273   3.225   1.519   6.944
  546TIP3    H223274   3.261   1.666   6.952
  547TIP3   OH223275   3.296   1.370   6.881
  547TIP3    H123276   3.341   1.323   6.811
  547TIP3    H223277   3.310   1.316   6.959
  548TIP3   OH223278   3.471   1.282   7.707
  548TIP3    H123279   3.467   1.208   7.647
  548TIP3    H223280   3.498   1.356   7.652
  549TIP3   OH223281   2.948   0.927   6.685
  549TIP3    H123282   2.896   1.001   6.651
  549TIP3    H223283   3.013   0.911   6.616
  550TIP3   OH223284   3.645   0.897   7.530
  550TIP3    H123285   3.580   0.967   7.523
  550TIP3    H223286   3.706   0.913   7.458
  551TIP3   OH223287   3.296   0.979   6.769
  551TIP3    H123288   3.221   0.987   6.829
  551TIP3    H223289   3.354   0.916   6.811
  552TIP3   OH223290   3.208   0.780   7.716
  552TIP3    H123291   3.232   0.853   7.774
  552TIP3    H223292   3.159   0.821   7.645
  553TIP3   OH223293   2.449   1.023   6.977
  553TIP3    H123294   2.410   0.988   6.897
  553TIP3    H223295   2.500   0.950   7.012
  554TIP3   OH223296   2.587   1.366   7.227
  554TIP3    H123297   2.579   1.369   7.132
  554TIP3    H223298   2.661   1.307   7.243
  555TIP3   OH223299   2.446   0.911   7.335
  555TIP3    H123300   2.497   0.884   7.258
  555TIP3    H223301   2.501   0.975   7.380
  556TIP3   OH223302   3.108   1.469   7.385
  556TIP3    H123303   3.094   1.533   7.456
  556TIP3    H223304   3.074   1.387   7.420
  557TIP3   OH223305   2.581   1.338   7.804
  557TIP3    H123306   2.519   1.397   7.846
  557TIP3    H223307   2.536   1.308   7.725
  558TIP3   OH223308   3.167   0.882   6.518
  558TIP3    H123309   3.229   0.943   6.556
  558TIP3    H223310   3.158   0.910   6.427
  559TIP3   OH223311   2.278   0.957   7.725
  559TIP3    H123312   2.276   1.023   7.794
  559TIP3    H223313   2.186   0.943   7.703
  560TIP3   OH223314   2.948   1.547   6.849
  560TIP3    H123315   3.029   1.567   6.895
  560TIP3    H223316   2.911   1.632   6.826
  561TIP3   OH223317   2.381   1.521   7.869
  561TIP3    H123318   2.379   1.545   7.776
  561TIP3    H223319   2.289   1.508   7.892
  562TIP3   OH223320   3.623   0.105   6.525
  562TIP3    H123321   3.606   0.011   6.529
  562TIP3    H223322   3.539   0.146   6.546
  563TIP3   OH223323   2.319   0.937   6.747
  563TIP3    H123324   2.227   0.954   6.726
  563TIP3    H223325   2.334   0.848   6.716
  564TIP3   OH223326   1.945   1.169   7.619
  564TIP3    H123327   1.894   1.175   7.538
  564TIP3    H223328   1.961   1.076   7.631
  565TIP3   OH223329   1.918   1.462   7.288
  565TIP3    H123330   2.002   1.457   7.333
  565TIP3    H223331   1.875   1.539   7.325
  566TIP3   OH223332   3.698   1.499   7.855
  566TIP3    H123333   3.761   1.427   7.857
  566TIP3    H223334   3.702   1.536   7.943
  567TIP3   OH223335   2.823   1.457   7.750
  567TIP3    H123336   2.824   1.541   7.795
  567TIP3    H223337   2.737   1.419   7.771
  568TIP3   OH223338   2.890   1.804   6.745
  568TIP3    H123339   2.882   1.819   6.650
  568TIP3    H223340   2.869   1.889   6.784
  569TIP3   OH223341   2.257   1.731   6.935
  569TIP3    H123342   2.270   1.683   7.016
  569TIP3    H223343   2.200   1.674   6.883
  570TIP3   OH223344   3.173   1.790   6.712
  570TIP3    H123345   3.081   1.771   6.732
  570TIP3    H223346   3.186   1.758   6.623
  571TIP3   OH223347   3.420   0.615   7.896
  571TIP3    H123348   3.404   0.639   7.805
  571TIP3    H223349   3.433   0.520   7.894
  572TIP3   OH223350   2.175   1.306   7.683
  572TIP3    H123351   2.198   1.267   7.767
  572TIP3    H223352   2.095   1.262   7.657
  573TIP3   OH223353   2.457   0.158   7.336
  573TIP3    H123354   2.423   0.162   7.247
  573TIP3    H223355   2.397   0.211   7.388
  574TIP3   OH223356   2.913   0.092   7.682
  574TIP3    H123357   2.922   0.002   7.712
  574TIP3    H223358   2.819   0.108   7.683
  575TIP3   OH223359   3.206   0.465   7.706
  575TIP3    H123360   3.260   0.412   7.764
  575TIP3    H223361   3.259   0.477   7.627
  576TIP3   OH223362   2.873   0.375   6.393
  576TIP3    H123363   2.826   0.337   6.467
  576TIP3    H223364   2.838   0.328   6.317
  577TIP3   OH223365   2.427   0.657   7.438
  577TIP3    H123366   2.363   0.660   7.509
  577TIP3    H223367   2.431   0.746   7.405
  578TIP3   OH223368   2.436   0.662   6.939
  578TIP3    H123369   2.344   0.639   6.929
  578TIP3    H223370   2.471   0.657   6.850
  579TIP3   OH223371   2.978   0.681   6.808
  579TIP3    H123372   2.956   0.767   6.772
  579TIP3    H223373   3.050   0.650   6.754
  580TIP3   OH223374   2.901   0.728   7.948
  580TIP3    H123375   2.844   0.654   7.969
  580TIP3    H223376   2.943   0.751   8.031
  581TIP3   OH223377   3.093   0.632   7.065
  581TIP3    H123378   3.044   0.675   6.996
  581TIP3    H223379   3.133   0.556   7.023
  582TIP3   OH223380   2.217   0.666   7.617
  582TIP3    H123381   2.213   0.709   7.703
  582TIP3    H223382   2.177   0.580   7.632
  583TIP3   OH223383   1.879   0.346   7.011
  583TIP3    H123384   1.922   0.366   7.094
  583TIP3    H223385   1.939   0.381   6.944
  584TIP3   OH223386   1.957   0.469   6.559
  584TIP3    H123387   1.985   0.450   6.469
  584TIP3    H223388   1.887   0.533   6.549
  585TIP3   OH223389   2.992   0.778   7.520
  585TIP3    H123390   3.039   0.722   7.458
  585TIP3    H223391   2.942   0.717   7.575
  586TIP3   OH223392   2.725   0.450   7.044
  586TIP3    H123393   2.640   0.414   7.066
  586TIP3    H223394   2.788   0.386   7.078
  587TIP3   OH223395   2.185   0.555   6.901
  587TIP3    H123396   2.115   0.587   6.844
  587TIP3    H223397   2.213   0.473   6.860
  588TIP3   OH223398   2.507   0.638   6.677
  588TIP3    H123399   2.592   0.597   6.690
  588TIP3    H223400   2.496   0.643   6.582
  589TIP3   OH223401   3.174   0.329   7.379
  589TIP3    H123402   3.086   0.317   7.416
  589TIP3    H223403   3.168   0.288   7.292
  590TIP3   OH223404   2.451   0.681   6.402
  590TIP3    H123405   2.391   0.662   6.330
  590TIP3    H223406   2.522   0.731   6.361
  591TIP3   OH223407   3.476   1.885   7.992
  591TIP3    H123408   3.503   1.916   7.905
  591TIP3    H223409   3.551   1.903   8.049
  592TIP3   OH223410   2.240   1.163   7.919
  592TIP3    H123411   2.306   1.153   7.988
  592TIP3    H223412   2.157   1.175   7.965
  593TIP3   OH223413   2.819   0.700   7.207
  593TIP3    H123414   2.860   0.642   7.144
  593TIP3    H223415   2.782   0.642   7.273
  594TIP3   OH223416   2.306   0.301   6.849
  594TIP3    H123417   2.249   0.230   6.878
  594TIP3    H223418   2.377   0.258   6.801
  595TIP3   OH223419   2.689   0.569   7.425
  595TIP3    H123420   2.599   0.604   7.425
  595TIP3    H223421   2.731   0.613   7.499
  596TIP3   OH223422   2.763   1.133   6.611
  596TIP3    H123423   2.698   1.064   6.595
  596TIP3    H223424   2.740   1.169   6.697
  597TIP3   OH223425   3.455   1.103   7.489
  597TIP3    H123426   3.521   1.148   7.437
  597TIP3    H223427   3.389   1.075   7.425
  598TIP3   OH223428   3.135   0.410   6.477
  598TIP3    H123429   3.048   0.402   6.438
  598TIP3    H223430   3.135   0.498   6.516
  599TIP3   OH223431   2.941   1.198   7.755
  599TIP3    H123432   2.911   1.144   7.829
  599TIP3    H223433   2.888   1.277   7.761
  600TIP3   OH223434   3.187   0.634   6.634
  600TIP3    H123435   3.278   0.620   6.660
  600TIP3    H223436   3.187   0.720   6.591
  601TIP3   OH223437   2.274   1.083   7.182
  601TIP3    H123438   2.332   1.074   7.106
  601TIP3    H223439   2.306   1.017   7.244
  602TIP3   OH223440   1.996   0.912   7.717
  602TIP3    H123441   2.019   0.886   7.806
  602TIP3    H223442   1.920   0.857   7.695
  603TIP3   OH223443   2.675   0.896   7.940
  603TIP3    H123444   2.609   0.856   7.884
  603TIP3    H223445   2.756   0.849   7.921
  604TIP3   OH223446   3.148   1.431   7.749
  604TIP3    H123447   3.063   1.413   7.709
  604TIP3    H223448   3.127   1.452   7.840
  605TIP3   OH223449   3.634   0.625   6.580
  605TIP3    H123450   3.666   0.558   6.520
  605TIP3    H223451   3.661   0.708   6.539
  606TIP3   OH223452   3.702   1.200   7.848
  606TIP3    H123453   3.625   1.246   7.814
  606TIP3    H223454   3.759   1.191   7.771
  607TIP3   OH223455   3.567   1.496   6.615
  607TIP3    H123456   3.521   1.412   6.620
  607TIP3    H223457   3.520   1.545   6.547
  608TIP3   OH223458   3.254   1.010   7.296
  608TIP3    H123459   3.160   1.001   7.283
  608TIP3    H223460   3.292   0.935   7.249
  609TIP3   OH223461   2.525   1.430   6.965
  609TIP3    H123462   2.546   1.522   6.945
  609TIP3    H223463   2.438   1.417   6.927
  610TIP3   OH223464   2.621   1.197   6.841
  610TIP3    H123465   2.609   1.281   6.885
  610TIP3    H223466   2.568   1.136   6.892
  611TIP3   OH223467   2.706   1.606   7.532
  611TIP3    H123468   2.766   1.677   7.508
  611TIP3    H223469   2.758   1.547   7.586
  612TIP3   OH223470   2.530   1.704   6.892
  612TIP3    H123471   2.437   1.724   6.897
  612TIP3    H223472   2.555   1.725   6.803
  613TIP3   OH223473   3.016   1.225   7.487
  613TIP3    H123474   2.986   1.200   7.574
  613TIP3    H223475   3.052   1.145   7.449
  614TIP3   OH223476   3.317   1.664   7.695
  614TIP3    H123477   3.232   1.627   7.669
  614TIP3    H223478   3.326   1.743   7.642
  615TIP3   OH223479   2.104   0.415   7.664
  615TIP3    H123480   2.012   0.434   7.642
  615TIP3    H223481   2.101   0.379   7.753
  616TIP3   OH223482   3.413   1.212   6.681
  616TIP3    H123483   3.363   1.135   6.706
  616TIP3    H223484   3.502   1.179   6.666
  617TIP3   OH223485   2.108   1.549   7.505
  617TIP3    H123486   2.170   1.478   7.518
  617TIP3    H223487   2.059   1.554   7.588
  618TIP3   OH223488   2.978   0.345   7.590
  618TIP3    H123489   3.057   0.370   7.638
  618TIP3    H223490   2.958   0.257   7.621
  619TIP3   OH223491   3.105   0.290   6.725
  619TIP3    H123492   3.116   0.322   6.635
  619TIP3    H223493   3.146   0.357   6.779
  620TIP3   OH223494   2.746   0.525   6.772
  620TIP3    H123495   2.827   0.576   6.773
  620TIP3    H223496   2.739   0.489   6.860
  621TIP3   OH223497   2.870   0.584   7.671
  621TIP3    H123498   2.797   0.563   7.730
  621TIP3    H223499   2.895   0.500   7.633
  622TIP3   OH223500   2.867   0.240   6.852
  622TIP3    H123501   2.897   0.258   6.941
  622TIP3    H223502   2.946   0.242   6.799
  623TIP3   OH223503   3.466   0.375   7.747
  623TIP3    H123504   3.441   0.317   7.675
  623TIP3    H223505   3.550   0.411   7.720
  624TIP3   OH223506   3.324   0.769   7.163
  624TIP3    H123507   3.243   0.725   7.137
  624TIP3    H223508   3.372   0.703   7.213
  625TIP3   OH223509   3.454   1.743   7.315
  625TIP3    H123510   3.435   1.817   7.257
  625TIP3    H223511   3.548   1.749   7.332
  626TIP3   OH223512   2.145   0.119   7.198
  626TIP3    H123513   2.156   0.126   7.103
  626TIP3    H223514   2.192   0.040   7.222
  627TIP3   OH223515   2.100   1.575   6.768
  627TIP3    H123516   2.073   1.484   6.772
  627TIP3    H223517   2.134   1.587   6.680
  628TIP3   OH223518   2.033   1.797   7.989
  628TIP3    H123519   2.098   1.777   8.056
  628TIP3    H223520   2.002   1.711   7.960
  629TIP3   OH223521   2.457   1.623   8.113
  629TIP3    H123522   2.527   1.563   8.139
  629TIP3    H223523   2.431   1.594   8.026
  630TIP3   OH223524   3.175   1.458   8.018
  630TIP3    H123525   3.122   1.394   8.064
  630TIP3    H223526   3.219   1.508   8.087
  631TIP3   OH223527   2.004   1.207   8.063
  631TIP3    H123528   2.007   1.119   8.101
  631TIP3    H223529   1.930   1.205   8.002
  632TIP3   OH223530   2.654   1.167   8.007
  632TIP3    H123531   2.633   1.209   7.924
  632TIP3    H223532   2.668   1.075   7.985
  633TIP3   OH223533   3.211   1.137   7.758
  633TIP3    H123534   3.256   1.191   7.693
  633TIP3    H223535   3.120   1.166   7.756
  634TIP3   OH223536   2.093   0.838   7.961
  634TIP3    H123537   2.075   0.758   8.010
  634TIP3    H223538   2.110   0.904   8.028
  635TIP3   OH223539   2.498   0.789   7.745
  635TIP3    H123540   2.423   0.847   7.734
  635TIP3    H223541   2.562   0.819   7.680
  636TIP3   OH223542   2.653   0.837   6.277
  636TIP3    H123543   2.701   0.880   6.206
  636TIP3    H223544   2.716   0.775   6.314
  637TIP3   OH223545   3.016   1.017   8.055
  637TIP3    H123546   3.099   0.981   8.024
  637TIP3    H223547   2.981   0.950   8.114
  638TIP3   OH223548   3.579   1.043   6.275
  638TIP3    H123549   3.506   1.104   6.282
  638TIP3    H223550   3.652   1.096   6.244
  639TIP3   OH223551   2.556   0.528   7.805
  639TIP3    H123552   2.545   0.470   7.729
  639TIP3    H223553   2.526   0.614   7.774
  640TIP3   OH223554   2.557   0.367   7.580
  640TIP3    H123555   2.608   0.405   7.510
  640TIP3    H223556   2.470   0.353   7.542
  641TIP3   OH223557   2.702   0.875   7.583
  641TIP3    H123558   2.794   0.875   7.557
  641TIP3    H223559   2.667   0.956   7.546
  642TIP3   OH223560   3.174   0.647   8.039
  642TIP3    H123561   3.165   0.593   8.118
  642TIP3    H223562   3.268   0.653   8.023
  643TIP3   OH223563   3.279   0.956   7.943
  643TIP3    H123564   3.255   1.027   7.884
  643TIP3    H223565   3.375   0.954   7.940
  644TIP3   OH223566   2.416   0.617   8.067
  644TIP3    H123567   2.325   0.616   8.098
  644TIP3    H223568   2.408   0.606   7.972
  645TIP3   OH223569   2.638   0.123   7.686
  645TIP3    H123570   2.616   0.213   7.659
  645TIP3    H223571   2.594   0.067   7.622
  646TIP3   OH223572   2.742   0.516   8.001
  646TIP3    H123573   2.701   0.475   8.078
  646TIP3    H223574   2.673   0.517   7.935
  647TIP3   OH223575   2.995   0.423   7.919
  647TIP3    H123576   2.912   0.414   7.965
  647TIP3    H223577   3.059   0.377   7.975
  648TIP3   OH223578   3.217   0.337   8.076
  648TIP3    H123579   3.208   0.242   8.077
  648TIP3    H223580   3.185   0.365   8.162
  649TIP3   OH223581   2.172   0.396   8.022
  649TIP3    H123582   2.214   0.311   8.024
  649TIP3    H223583   2.185   0.431   8.110
  650TIP3   OH223584   2.648   0.023   7.946
  650TIP3    H123585   2.729  -0.027   7.956
  650TIP3    H223586   2.649   0.053   7.855
  651TIP3   OH223587   2.744   0.211   8.125
  651TIP3    H123588   2.716   0.141   8.066
  651TIP3    H223589   2.668   0.268   8.134
  652TIP3   OH223590   2.711   1.946   6.495
  652TIP3    H123591   2.794   1.907   6.467
  652TIP3    H223592   2.644   1.890   6.456
  653TIP3   OH223593   1.872   1.842   6.892
  653TIP3    H123594   1.823   1.779   6.839
  653TIP3    H223595   1.905   1.791   6.966
  654TIP3   OH223596   1.953   1.681   7.094
  654TIP3    H123597   1.923   1.592   7.114
  654TIP3    H223598   2.006   1.706   7.169
  655TIP3   OH223599   3.716   1.792   7.394
  655TIP3    H123600   3.724   1.757   7.483
  655TIP3    H223601   3.801   1.777   7.354
  656TIP3   OH223602   3.664   1.695   7.658
  656TIP3    H123603   3.614   1.631   7.608
  656TIP3    H223604   3.699   1.645   7.732
  657TIP3   OH223605   3.449   1.326   8.089
  657TIP3    H123606   3.402   1.297   8.168
  657TIP3    H223607   3.522   1.378   8.122
  658TIP3   OH223608   3.664   1.098   6.663
  658TIP3    H123609   3.739   1.157   6.667
  658TIP3    H223610   3.676   1.039   6.737
  659TIP3   OH223611   3.691   0.914   6.863
  659TIP3    H123612   3.607   0.875   6.887
  659TIP3    H223613   3.741   0.915   6.945
  660TIP3   OH223614   3.692   1.206   7.381
  660TIP3    H123615   3.738   1.133   7.340
  660TIP3    H223616   3.731   1.284   7.342
  661TIP3   OH223617   3.497   1.503   7.551
  661TIP3    H123618   3.425   1.555   7.586
  661TIP3    H223619   3.469   1.479   7.463
  662TIP3   OH223620   3.681   0.884   6.478
  662TIP3    H123621   3.645   0.928   6.401
  662TIP3    H223622   3.676   0.950   6.548
  663TIP3   OH223623   3.447   0.788   6.911
  663TIP3    H123624   3.447   0.698   6.877
  663TIP3    H223625   3.410   0.781   6.999
  664TIP3   OH223626   1.941   0.978   7.329
  664TIP3    H123627   1.950   0.961   7.235
  664TIP3    H223628   2.025   0.952   7.366
  665TIP3   OH223629   3.552   0.985   7.941
  665TIP3    H123630   3.598   0.903   7.926
  665TIP3    H223631   3.606   1.051   7.896
  666TIP3   OH223632   3.661   0.739   7.917
  666TIP3    H123633   3.579   0.693   7.904
  666TIP3    H223634   3.727   0.670   7.922
  667TIP3   OH223635   3.439   0.538   6.752
  667TIP3    H123636   3.457   0.444   6.754
  667TIP3    H223637   3.508   0.574   6.696
  668TIP3   OH223638   3.482   0.587   7.304
  668TIP3    H123639   3.574   0.608   7.285
  668TIP3    H223640   3.482   0.563   7.396
  669TIP3   OH223641   3.486   0.687   7.611
  669TIP3    H123642   3.398   0.723   7.600
  669TIP3    H223643   3.544   0.755   7.577
  670TIP3   OH223644   1.927   0.475   7.910
  670TIP3    H123645   2.011   0.463   7.953
  670TIP3    H223646   1.878   0.394   7.928
  671TIP3   OH223647   3.771   0.069   8.095
  671TIP3    H123648   3.769  -0.020   8.060
  671TIP3    H223649   3.748   0.125   8.021
  672TIP3   OH223650   3.473   0.252   6.768
  672TIP3    H123651   3.509   0.208   6.845
  672TIP3    H223652   3.403   0.194   6.738
  673TIP3   OH223653   2.030   0.363   7.245
  673TIP3    H123654   2.064   0.274   7.239
  673TIP3    H223655   2.107   0.419   7.254
  674TIP3   OH223656   1.859   0.647   7.293
  674TIP3    H123657   1.930   0.642   7.229
  674TIP3    H223658   1.890   0.710   7.358
  675TIP3   OH223659   3.671   0.245   7.909
  675TIP3    H123660   3.598   0.288   7.955
  675TIP3    H223661   3.632   0.212   7.829
  676TIP3   OH223662   3.709   0.406   6.418
  676TIP3    H123663   3.680   0.317   6.437
  676TIP3    H223664   3.803   0.397   6.400
  677TIP3   OH223665   1.903   0.238   6.695
  677TIP3    H123666   1.810   0.244   6.719
  677TIP3    H223667   1.925   0.325   6.663
  678TIP3   OH223668   3.404   1.780   6.941
  678TIP3    H123669   3.429   1.778   6.848
  678TIP3    H223670   3.486   1.769   6.988
  679TIP3   OH223671   1.914   0.085   7.527
  679TIP3    H123672   1.849   0.089   7.596
  679TIP3    H223673   1.894   0.160   7.470
  680TIP3   OH223674   2.123   1.493   7.968
  680TIP3    H123675   2.033   1.497   7.935
  680TIP3    H223676   2.121   1.425   8.035
  681TIP3   OH223677   2.439   1.582   7.598
  681TIP3    H123678   2.409   1.669   7.570
  681TIP3    H223679   2.533   1.583   7.581
  682TIP3   OH223680   2.836   1.701   7.890
  682TIP3    H123681   2.853   1.661   7.975
  682TIP3    H223682   2.914   1.753   7.871
  683TIP3   OH223683   3.066   1.849   7.847
  683TIP3    H123684   3.135   1.805   7.797
  683TIP3    H223685   3.107   1.875   7.929
  684TIP3   OH223686   3.584   0.087   7.683
  684TIP3    H123687   3.520   0.125   7.622
  684TIP3    H223688   3.584  -0.006   7.664
  685TIP3   OH223689   2.167   1.940   7.601
  685TIP3    H123690   2.078   1.960   7.571
  685TIP3    H223691   2.162   1.946   7.696
  686TIP3   OH223692   2.412   1.849   7.524
  686TIP3    H123693   2.323   1.875   7.549
  686TIP3    H223694   2.424   1.886   7.436
  687TIP3   OH223695   2.860   1.817   7.443
  687TIP3    H123696   2.813   1.852   7.367
  687TIP3    H223697   2.869   1.893   7.502
  688TIP3   OH223698   3.092   1.704   7.535
  688TIP3    H123699   3.008   1.737   7.502
  688TIP3    H223700   3.157   1.767   7.503
  689TIP3   OH223701   3.343   1.875   7.529
  689TIP3    H123702   3.356   1.968   7.509
  689TIP3    H223703   3.381   1.829   7.454
  690TIP3   OH223704   2.127   1.744   7.307
  690TIP3    H123705   2.119   1.690   7.386
  690TIP3    H223706   2.199   1.704   7.258
  691TIP3   OH223707   2.325   1.614   7.177
  691TIP3    H123708   2.311   1.522   7.202
  691TIP3    H223709   2.416   1.631   7.204
  692TIP3   OH223710   2.588   1.639   7.279
  692TIP3    H123711   2.597   1.549   7.247
  692TIP3    H223712   2.618   1.635   7.370
  693TIP3   OH223713   2.902   0.256   7.138
  693TIP3    H123714   2.847   0.200   7.192
  693TIP3    H223715   2.984   0.207   7.128
  694TIP3   OH223716   3.403   0.114   7.197
  694TIP3    H123717   3.467   0.103   7.127
  694TIP3    H223718   3.318   0.099   7.155
  695TIP3   OH223719   3.594   0.133   6.994
  695TIP3    H123720   3.665   0.069   6.998
  695TIP3    H223721   3.635   0.216   7.019
  696TIP3   OH223722   2.156   0.086   6.929
  696TIP3    H123723   2.067   0.086   6.892
  696TIP3    H223724   2.184  -0.005   6.924
  697TIP3   OH223725   2.037   0.181   6.450
  697TIP3    H123726   2.123   0.193   6.491
  697TIP3    H223727   1.974   0.198   6.520
  698TIP3   OH223728   2.692   0.056   6.955
  698TIP3    H123729   2.740   0.130   6.918
  698TIP3    H223730   2.748  -0.020   6.938
  699TIP3   OH223731   3.146   0.141   7.073
  699TIP3    H123732   3.170   0.199   7.002
  699TIP3    H223733   3.148   0.053   7.034
  700TIP3   OH223734   3.262   0.065   6.696
  700TIP3    H123735   3.190   0.129   6.695
  700TIP3    H223736   3.235  -0.003   6.634
  701TIP3   OH223737   2.726   0.293   6.610
  701TIP3    H123738   2.773   0.229   6.663
  701TIP3    H223739   2.726   0.372   6.663
  702TIP3   OH223740   2.942   1.792   6.463
  702TIP3    H123741   3.034   1.812   6.449
  702TIP3    H223742   2.940   1.697   6.479
  703TIP3   OH223743   3.575   1.751   6.705
  703TIP3    H123744   3.587   1.656   6.701
  703TIP3    H223745   3.525   1.772   6.626
  704TIP3   OH223746   2.157   0.092   7.869
  704TIP3    H123747   2.071   0.079   7.908
  704TIP3    H223748   2.216   0.104   7.943
  705TIP3   OH223749   2.339   0.129   8.069
  705TIP3    H123750   2.417   0.183   8.073
  705TIP3    H223751   2.369   0.041   8.094
  706TIP3   OH223752   3.202   0.068   8.058
  706TIP3    H123753   3.246   0.006   8.115
  706TIP3    H223754   3.184   0.018   7.978
  707TIP3   OH223755   3.430   1.616   7.934
  707TIP3    H123756   3.402   1.646   7.847
  707TIP3    H223757   3.458   1.695   7.979
  708TIP3   OH223758   4.869   0.923   7.315
  708TIP3    H123759   4.887   0.870   7.393
  708TIP3    H223760   4.828   0.862   7.254
  709TIP3   OH223761   4.061   0.880   7.447
  709TIP3    H123762   4.068   0.801   7.500
  709TIP3    H223763   4.151   0.899   7.421
  710TIP3   OH223764   5.222   1.243   7.140
  710TIP3    H123765   5.186   1.164   7.180
  710TIP3    H223766   5.237   1.303   7.213
  711TIP3   OH223767   4.163   1.350   7.255
  711TIP3    H123768   4.147   1.260   7.226
  711TIP3    H223769   4.257   1.352   7.275
  712TIP3   OH223770   3.825   0.671   6.792
  712TIP3    H123771   3.788   0.759   6.800
  712TIP3    H223772   3.764   0.625   6.733
  713TIP3   OH223773   3.880   0.907   7.070
  713TIP3    H123774   3.909   0.817   7.087
  713TIP3    H223775   3.955   0.948   7.028
  714TIP3   OH223776   4.951   1.734   7.152
  714TIP3    H123777   4.986   1.680   7.081
  714TIP3    H223778   4.893   1.675   7.200
  715TIP3   OH223779   4.662   1.199   7.295
  715TIP3    H123780   4.684   1.159   7.211
  715TIP3    H223781   4.746   1.204   7.341
  716TIP3   OH223782   5.601   0.311   7.410
  716TIP3    H123783   5.599   0.387   7.469
  716TIP3    H223784   5.649   0.341   7.333
  717TIP3   OH223785   4.998   0.616   7.315
  717TIP3    H123786   5.021   0.523   7.320
  717TIP3    H223787   4.913   0.617   7.272
  718TIP3   OH223788   4.318   0.404   7.061
  718TIP3    H123789   4.334   0.491   7.026
  718TIP3    H223790   4.284   0.354   6.987
  719TIP3   OH223791   3.976   0.657   7.135
  719TIP3    H123792   4.046   0.621   7.189
  719TIP3    H223793   3.993   0.623   7.047
  720TIP3   OH223794   5.595   0.493   7.630
  720TIP3    H123795   5.550   0.567   7.590
  720TIP3    H223796   5.529   0.454   7.687
  721TIP3   OH223797   4.200   0.341   7.487
  721TIP3    H123798   4.173   0.397   7.414
  721TIP3    H223799   4.129   0.350   7.551
  722TIP3   OH223800   4.469   1.109   7.468
  722TIP3    H123801   4.415   1.184   7.494
  722TIP3    H223802   4.536   1.147   7.411
  723TIP3   OH223803   5.237   0.357   7.142
  723TIP3    H123804   5.179   0.367   7.218
  723TIP3    H223805   5.305   0.422   7.154
  724TIP3   OH223806   4.167   0.503   7.266
  724TIP3    H123807   4.231   0.557   7.313
  724TIP3    H223808   4.217   0.465   7.193
  725TIP3   OH223809   4.311   1.322   7.554
  725TIP3    H123810   4.323   1.417   7.554
  725TIP3    H223811   4.218   1.308   7.572
  726TIP3   OH223812   3.883   1.273   6.664
  726TIP3    H123813   3.879   1.309   6.575
  726TIP3    H223814   3.922   1.342   6.717
  727TIP3   OH223815   5.265   1.448   7.343
  727TIP3    H123816   5.171   1.446   7.360
  727TIP3    H223817   5.282   1.536   7.311
  728TIP3   OH223818   5.314   0.314   7.505
  728TIP3    H123819   5.238   0.308   7.447
  728TIP3    H223820   5.388   0.291   7.450
  729TIP3   OH223821   4.591   0.088   7.230
  729TIP3    H123822   4.558  -0.001   7.218
  729TIP3    H223823   4.524   0.131   7.283
  730TIP3   OH223824   5.074   1.604   6.940
  730TIP3    H123825   5.105   1.515   6.924
  730TIP3    H223826   5.154   1.658   6.942
  731TIP3   OH223827   5.195   1.364   6.890
  731TIP3    H123828   5.211   1.303   6.818
  731TIP3    H223829   5.208   1.312   6.969
  732TIP3   OH223830   5.376   1.223   7.689
  732TIP3    H123831   5.360   1.172   7.610
  732TIP3    H223832   5.390   1.312   7.658
  733TIP3   OH223833   5.538   0.916   7.513
  733TIP3    H123834   5.463   0.973   7.497
  733TIP3    H223835   5.595   0.930   7.438
  734TIP3   OH223836   5.155   0.774   7.709
  734TIP3    H123837   5.133   0.848   7.766
  734TIP3    H223838   5.086   0.774   7.643
  735TIP3   OH223839   4.447   1.368   7.232
  735TIP3    H123840   4.443   1.375   7.137
  735TIP3    H223841   4.523   1.312   7.249
  736TIP3   OH223842   4.329   0.913   7.338
  736TIP3    H123843   4.386   0.889   7.265
  736TIP3    H223844   4.378   0.979   7.387
  737TIP3   OH223845   5.005   1.453   7.418
  737TIP3    H123846   4.979   1.514   7.487
  737TIP3    H223847   4.958   1.372   7.438
  738TIP3   OH223848   4.478   1.329   7.778
  738TIP3    H123849   4.402   1.346   7.835
  738TIP3    H223850   4.440   1.309   7.693
  739TIP3   OH223851   4.137   0.899   7.762
  739TIP3    H123852   4.148   0.965   7.830
  739TIP3    H223853   4.051   0.917   7.724
  740TIP3   OH223854   4.728   1.595   6.926
  740TIP3    H123855   4.788   1.522   6.935
  740TIP3    H223856   4.751   1.635   6.842
  741TIP3   OH223857   4.269   1.641   7.860
  741TIP3    H123858   4.297   1.634   7.769
  741TIP3    H223859   4.240   1.552   7.883
  742TIP3   OH223860   5.465   0.133   6.544
  742TIP3    H123861   5.456   0.037   6.537
  742TIP3    H223862   5.419   0.166   6.467
  743TIP3   OH223863   3.843   1.163   7.621
  743TIP3    H123864   3.798   1.170   7.536
  743TIP3    H223865   3.857   1.070   7.633
  744TIP3   OH223866   3.869   1.427   7.298
  744TIP3    H123867   3.955   1.394   7.272
  744TIP3    H223868   3.885   1.478   7.377
  745TIP3   OH223869   5.632   1.541   7.896
  745TIP3    H123870   5.622   1.447   7.884
  745TIP3    H223871   5.548   1.570   7.932
  746TIP3   OH223872   4.710   1.470   7.744
  746TIP3    H123873   4.704   1.552   7.791
  746TIP3    H223874   4.626   1.427   7.758
  747TIP3   OH223875   4.777   1.802   6.662
  747TIP3    H123876   4.773   1.829   6.570
  747TIP3    H223877   4.749   1.879   6.711
  748TIP3   OH223878   4.131   1.698   6.935
  748TIP3    H123879   4.161   1.663   7.018
  748TIP3    H223880   4.085   1.626   6.893
  749TIP3   OH223881   5.065   1.774   6.420
  749TIP3    H123882   5.116   1.709   6.371
  749TIP3    H223883   5.076   1.750   6.512
  750TIP3   OH223884   5.044   1.745   6.698
  750TIP3    H123885   4.949   1.753   6.690
  750TIP3    H223886   5.056   1.682   6.770
  751TIP3   OH223887   5.323   0.654   7.900
  751TIP3    H123888   5.266   0.700   7.839
  751TIP3    H223889   5.338   0.569   7.859
  752TIP3   OH223890   4.045   1.352   7.651
  752TIP3    H123891   4.089   1.341   7.735
  752TIP3    H223892   3.981   1.281   7.648
  753TIP3   OH223893   4.350   0.162   7.348
  753TIP3    H123894   4.320   0.179   7.259
  753TIP3    H223895   4.296   0.218   7.403
  754TIP3   OH223896   4.794   0.115   7.683
  754TIP3    H123897   4.820   0.110   7.774
  754TIP3    H223898   4.698   0.115   7.685
  755TIP3   OH223899   5.053   0.496   7.696
  755TIP3    H123900   5.009   0.480   7.780
  755TIP3    H223901   5.111   0.570   7.714
  756TIP3   OH223902   4.321   0.655   7.440
  756TIP3    H123903   4.251   0.653   7.506
  756TIP3    H223904   4.323   0.746   7.411
  757TIP3   OH223905   4.303   0.649   6.942
  757TIP3    H123906   4.213   0.630   6.914
  757TIP3    H223907   4.351   0.661   6.861
  758TIP3   OH223908   4.800   0.732   7.962
  758TIP3    H123909   4.742   0.656   7.970
  758TIP3    H223910   4.888   0.697   7.980
  759TIP3   OH223911   4.100   0.650   7.607
  759TIP3    H123912   4.114   0.694   7.691
  759TIP3    H223913   4.061   0.566   7.630
  760TIP3   OH223914   3.723   0.366   7.051
  760TIP3    H123915   3.797   0.391   7.105
  760TIP3    H223916   3.748   0.391   6.962
  761TIP3   OH223917   4.933   0.762   7.537
  761TIP3    H123918   4.967   0.708   7.466
  761TIP3    H223919   4.871   0.706   7.582
  762TIP3   OH223920   4.625   0.456   7.074
  762TIP3    H123921   4.541   0.411   7.061
  762TIP3    H223922   4.687   0.385   7.095
  763TIP3   OH223923   4.048   0.548   6.897
  763TIP3    H123924   3.973   0.575   6.843
  763TIP3    H223925   4.073   0.462   6.862
  764TIP3   OH223926   4.434   0.635   6.696
  764TIP3    H123927   4.521   0.600   6.713
  764TIP3    H223928   4.444   0.685   6.614
  765TIP3   OH223929   5.043   0.340   7.338
  765TIP3    H123930   4.978   0.338   7.408
  765TIP3    H223931   5.010   0.277   7.273
  766TIP3   OH223932   5.362   1.897   7.993
  766TIP3    H123933   5.386   1.926   7.905
  766TIP3    H223934   5.437   1.920   8.048
  767TIP3   OH223935   4.128   1.062   7.984
  767TIP3    H123936   4.162   1.148   7.958
  767TIP3    H223937   4.047   1.081   8.031
  768TIP3   OH223938   4.739   0.652   7.230
  768TIP3    H123939   4.707   0.601   7.156
  768TIP3    H223940   4.687   0.621   7.304
  769TIP3   OH223941   4.172   0.299   6.840
  769TIP3    H123942   4.139   0.209   6.847
  769TIP3    H223943   4.229   0.297   6.764
  770TIP3   OH223944   4.583   0.568   7.443
  770TIP3    H123945   4.496   0.607   7.446
  770TIP3    H223946   4.625   0.597   7.524
  771TIP3   OH223947   5.335   1.090   7.454
  771TIP3    H123948   5.390   1.144   7.397
  771TIP3    H223949   5.262   1.064   7.397
  772TIP3   OH223950   4.790   1.187   7.737
  772TIP3    H123951   4.782   1.146   7.823
  772TIP3    H223952   4.753   1.274   7.749
  773TIP3   OH223953   4.168   1.083   7.174
  773TIP3    H123954   4.222   1.070   7.096
  773TIP3    H223955   4.202   1.019   7.237
  774TIP3   OH223956   3.855   0.907   7.732
  774TIP3    H123957   3.855   0.862   7.816
  774TIP3    H223958   3.781   0.869   7.684
  775TIP3   OH223959   4.570   0.891   7.933
  775TIP3    H123960   4.509   0.854   7.869
  775TIP3    H223961   4.653   0.847   7.915
  776TIP3   OH223962   4.993   1.450   7.748
  776TIP3    H123963   4.900   1.452   7.726
  776TIP3    H223964   4.996   1.455   7.844
  777TIP3   OH223965   5.530   0.646   6.586
  777TIP3    H123966   5.437   0.636   6.568
  777TIP3    H223967   5.553   0.731   6.549
  778TIP3   OH223968   5.604   1.267   7.850
  778TIP3    H123969   5.509   1.256   7.840
  778TIP3    H223970   5.640   1.234   7.768
  779TIP3   OH223971   5.393   1.493   6.655
  779TIP3    H123972   5.351   1.438   6.721
  779TIP3    H223973   5.383   1.444   6.573
  780TIP3   OH223974   5.135   1.009   7.277
  780TIP3    H123975   5.041   0.993   7.279
  780TIP3    H223976   5.171   0.930   7.235
  781TIP3   OH223977   4.419   1.446   6.970
  781TIP3    H123978   4.494   1.497   6.939
  781TIP3    H223979   4.390   1.398   6.892
  782TIP3   OH223980   3.956   0.857   6.403
  782TIP3    H123981   4.002   0.928   6.449
  782TIP3    H223982   3.866   0.864   6.434
  783TIP3   OH223983   4.607   1.611   7.517
  783TIP3    H123984   4.667   1.682   7.495
  783TIP3    H223985   4.659   1.552   7.571
  784TIP3   OH223986   4.363   1.761   6.792
  784TIP3    H123987   4.292   1.735   6.851
  784TIP3    H223988   4.419   1.817   6.847
  785TIP3   OH223989   4.887   1.206   7.479
  785TIP3    H123990   4.856   1.191   7.568
  785TIP3    H223991   4.930   1.125   7.453
  786TIP3   OH223992   5.202   1.639   7.723
  786TIP3    H123993   5.123   1.587   7.713
  786TIP3    H223994   5.192   1.711   7.660
  787TIP3   OH223995   4.001   0.386   7.672
  787TIP3    H123996   3.928   0.339   7.632
  787TIP3    H223997   4.030   0.330   7.743
  788TIP3   OH223998   5.294   1.219   6.672
  788TIP3    H123999   5.296   1.248   6.581
  788TIP3    H224000   5.369   1.160   6.680
  789TIP3   OH224001   3.971   1.584   7.518
  789TIP3    H124002   4.001   1.503   7.559
  789TIP3    H224003   3.997   1.652   7.580
  790TIP3   OH224004   4.050   1.082   6.543
  790TIP3    H124005   3.993   1.133   6.601
  790TIP3    H224006   4.108   1.147   6.504
  791TIP3   OH224007   4.873   0.349   7.555
  791TIP3    H124008   4.947   0.383   7.606
  791TIP3    H224009   4.854   0.264   7.595
  792TIP3   OH224010   4.678   1.554   6.534
  792TIP3    H124011   4.733   1.621   6.574
  792TIP3    H224012   4.740   1.495   6.491
  793TIP3   OH224013   4.759   0.582   7.658
  793TIP3    H124014   4.787   0.565   7.748
  793TIP3    H224015   4.786   0.504   7.610
  794TIP3   OH224016   4.750   0.217   6.835
  794TIP3    H124017   4.792   0.291   6.879
  794TIP3    H224018   4.821   0.153   6.824
  795TIP3   OH224019   4.337   0.304   6.617
  795TIP3    H124020   4.316   0.374   6.555
  795TIP3    H224021   4.433   0.307   6.624
  796TIP3   OH224022   5.354   0.426   7.753
  796TIP3    H124023   5.318   0.357   7.809
  796TIP3    H224024   5.329   0.399   7.664
  797TIP3   OH224025   5.203   0.756   7.183
  797TIP3    H124026   5.123   0.712   7.210
  797TIP3    H224027   5.273   0.696   7.210
  798TIP3   OH224028   4.198   1.290   6.411
  798TIP3    H124029   4.280   1.248   6.436
  798TIP3    H224030   4.199   1.289   6.315
  799TIP3   OH224031   5.339   1.724   7.326
  799TIP3    H124032   5.327   1.794   7.262
  799TIP3    H224033   5.434   1.716   7.335
  800TIP3   OH224034   4.028   0.134   7.198
  800TIP3    H124035   4.064   0.157   7.112
  800TIP3    H224036   4.074   0.054   7.222
  801TIP3   OH224037   3.961   1.516   6.805
  801TIP3    H124038   3.881   1.521   6.857
  801TIP3    H224039   3.942   1.569   6.727
  802TIP3   OH224040   3.938   1.805   8.013
  802TIP3    H124041   3.999   1.804   8.086
  802TIP3    H224042   3.929   1.713   7.988
  803TIP3   OH224043   4.352   1.635   8.126
  803TIP3    H124044   4.409   1.558   8.129
  803TIP3    H224045   4.328   1.643   8.033
  804TIP3   OH224046   4.986   1.469   8.025
  804TIP3    H124047   4.978   1.384   8.068
  804TIP3    H224048   5.064   1.509   8.064
  805TIP3   OH224049   5.212   1.584   6.291
  805TIP3    H124050   5.176   1.499   6.316
  805TIP3    H224051   5.306   1.569   6.282
  806TIP3   OH224052   3.852   1.110   8.062
  806TIP3    H124053   3.860   1.017   8.039
  806TIP3    H224054   3.808   1.149   7.987
  807TIP3   OH224055   4.561   1.171   7.991
  807TIP3    H124056   4.535   1.207   7.906
  807TIP3    H224057   4.563   1.076   7.977
  808TIP3   OH224058   5.115   1.182   7.780
  808TIP3    H124059   5.202   1.204   7.748
  808TIP3    H224060   5.059   1.253   7.749
  809TIP3   OH224061   3.951   0.834   7.993
  809TIP3    H124062   4.037   0.842   7.951
  809TIP3    H224063   3.970   0.839   8.087
  810TIP3   OH224064   4.384   0.775   7.750
  810TIP3    H124065   4.303   0.827   7.744
  810TIP3    H224066   4.442   0.813   7.684
  811TIP3   OH224067   4.899   0.990   8.063
  811TIP3    H124068   4.984   0.978   8.019
  811TIP3    H224069   4.849   0.911   8.040
  812TIP3   OH224070   4.411   0.519   7.831
  812TIP3    H124071   4.425   0.460   7.757
  812TIP3    H224072   4.405   0.606   7.792
  813TIP3   OH224073   4.450   0.371   7.598
  813TIP3    H124074   4.507   0.413   7.532
  813TIP3    H224075   4.365   0.364   7.555
  814TIP3   OH224076   4.574   0.890   7.598
  814TIP3    H124077   4.669   0.886   7.584
  814TIP3    H224078   4.547   0.972   7.557
  815TIP3   OH224079   5.034   0.625   8.079
  815TIP3    H124080   5.029   0.530   8.092
  815TIP3    H224081   5.127   0.640   8.060
  816TIP3   OH224082   5.153   0.973   7.946
  816TIP3    H124083   5.131   1.048   7.891
  816TIP3    H224084   5.248   0.962   7.934
  817TIP3   OH224085   4.251   0.588   8.049
  817TIP3    H124086   4.172   0.538   8.029
  817TIP3    H224087   4.305   0.578   7.971
  818TIP3   OH224088   4.515   0.121   7.691
  818TIP3    H124089   4.498   0.211   7.661
  818TIP3    H224090   4.453   0.067   7.643
  819TIP3   OH224091   4.628   0.515   8.001
  819TIP3    H124092   4.597   0.469   8.078
  819TIP3    H224093   4.555   0.512   7.940
  820TIP3   OH224094   4.872   0.438   7.897
  820TIP3    H124095   4.784   0.444   7.935
  820TIP3    H224096   4.924   0.396   7.965
  821TIP3   OH224097   5.007   0.348   8.118
  821TIP3    H124098   5.013   0.253   8.104
  821TIP3    H224099   5.026   0.359   8.212
  822TIP3   OH224100   4.030   0.426   8.029
  822TIP3    H124101   4.038   0.359   7.960
  822TIP3    H224102   4.034   0.377   8.111
  823TIP3   OH224103   4.509   0.067   7.959
  823TIP3    H124104   4.525  -0.027   7.965
  823TIP3    H224105   4.514   0.086   7.866
  824TIP3   OH224106   4.621   0.222   8.165
  824TIP3    H124107   4.609   0.152   8.101
  824TIP3    H224108   4.541   0.275   8.158
  825TIP3   OH224109   3.915   1.358   6.403
  825TIP3    H124110   4.009   1.341   6.396
  825TIP3    H224111   3.877   1.316   6.326
  826TIP3   OH224112   3.766   1.847   6.890
  826TIP3    H124113   3.710   1.813   6.821
  826TIP3    H224114   3.783   1.772   6.947
  827TIP3   OH224115   3.814   1.646   7.078
  827TIP3    H124116   3.792   1.561   7.116
  827TIP3    H224117   3.875   1.685   7.141
  828TIP3   OH224118   5.608   1.722   7.390
  828TIP3    H124119   5.606   1.726   7.486
  828TIP3    H224120   5.684   1.775   7.366
  829TIP3   OH224121   5.557   1.691   7.667
  829TIP3    H124122   5.501   1.623   7.631
  829TIP3    H224123   5.598   1.651   7.744
  830TIP3   OH224124   5.398   1.284   8.168
  830TIP3    H124125   5.320   1.295   8.222
  830TIP3    H224126   5.451   1.361   8.186
  831TIP3   OH224127   5.539   1.081   6.677
  831TIP3    H124128   5.607   1.148   6.679
  831TIP3    H224129   5.559   1.024   6.751
  832TIP3   OH224130   5.594   0.907   6.887
  832TIP3    H124131   5.507   0.868   6.895
  832TIP3    H224132   5.619   0.927   6.977
  833TIP3   OH224133   5.583   1.209   7.375
  833TIP3    H124134   5.632   1.140   7.330
  833TIP3    H224135   5.602   1.289   7.325
  834TIP3   OH224136   5.389   1.483   7.588
  834TIP3    H124137   5.316   1.528   7.631
  834TIP3    H224138   5.358   1.465   7.499
  835TIP3   OH224139   5.550   0.894   6.475
  835TIP3    H124140   5.489   0.927   6.408
  835TIP3    H224141   5.548   0.960   6.544
  836TIP3   OH224142   5.358   0.787   6.943
  836TIP3    H124143   5.351   0.705   6.895
  836TIP3    H224144   5.290   0.782   7.010
  837TIP3   OH224145   3.829   0.969   7.334
  837TIP3    H124146   3.838   0.954   7.240
  837TIP3    H224147   3.914   0.948   7.370
  838TIP3   OH224148   5.426   0.979   7.886
  838TIP3    H124149   5.487   0.906   7.874
  838TIP3    H224150   5.435   1.030   7.806
  839TIP3   OH224151   5.583   0.748   7.889
  839TIP3    H124152   5.494   0.713   7.887
  839TIP3    H224153   5.636   0.678   7.927
  840TIP3   OH224154   5.377   0.550   6.805
  840TIP3    H124155   5.373   0.454   6.804
  840TIP3    H224156   5.446   0.571   6.742
  841TIP3   OH224157   5.378   0.573   7.295
  841TIP3    H124158   5.472   0.586   7.280
  841TIP3    H224159   5.367   0.585   7.389
  842TIP3   OH224160   5.397   0.682   7.559
  842TIP3    H124161   5.315   0.709   7.600
  842TIP3    H224162   5.443   0.764   7.540
  843TIP3   OH224163   3.795   0.498   7.902
  843TIP3    H124164   3.880   0.492   7.944
  843TIP3    H224165   3.757   0.411   7.911
  844TIP3   OH224166   5.643   0.055   8.095
  844TIP3    H124167   5.652  -0.022   8.039
  844TIP3    H224168   5.629   0.127   8.034
  845TIP3   OH224169   5.409   0.276   6.771
  845TIP3    H124170   5.393   0.216   6.843
  845TIP3    H224171   5.406   0.221   6.692
  846TIP3   OH224172   3.911   0.373   7.264
  846TIP3    H124173   3.944   0.284   7.252
  846TIP3    H224174   3.990   0.427   7.265
  847TIP3   OH224175   3.748   0.655   7.301
  847TIP3    H124176   3.811   0.631   7.233
  847TIP3    H224177   3.793   0.722   7.353
  848TIP3   OH224178   5.581   0.264   7.916
  848TIP3    H124179   5.488   0.262   7.940
  848TIP3    H224180   5.585   0.220   7.831
  849TIP3   OH224181   3.745   0.359   6.774
  849TIP3    H124182   3.657   0.327   6.754
  849TIP3    H224183   3.804   0.294   6.734
  850TIP3   OH224184   5.289   1.772   6.927
  850TIP3    H124185   5.353   1.757   6.857
  850TIP3    H224186   5.340   1.810   6.999
  851TIP3   OH224187   3.825   0.188   7.586
  851TIP3    H124188   3.753   0.145   7.633
  851TIP3    H224189   3.787   0.215   7.503
  852TIP3   OH224190   3.957   1.527   7.993
  852TIP3    H124191   4.011   1.487   7.925
  852TIP3    H224192   3.998   1.500   8.075
  853TIP3   OH224193   4.345   1.596   7.593
  853TIP3    H124194   4.317   1.683   7.563
  853TIP3    H224195   4.439   1.593   7.572
  854TIP3   OH224196   4.710   1.708   7.891
  854TIP3    H124197   4.725   1.675   7.980
  854TIP3    H224198   4.790   1.757   7.870
  855TIP3   OH224199   4.944   1.847   7.843
  855TIP3    H124200   5.004   1.796   7.789
  855TIP3    H224201   4.994   1.870   7.920
  856TIP3   OH224202   5.497   0.088   7.703
  856TIP3    H124203   5.417   0.136   7.726
  856TIP3    H224204   5.466   0.003   7.673
  857TIP3   OH224205   4.030   1.882   7.613
  857TIP3    H124206   3.953   1.932   7.587
  857TIP3    H224207   4.047   1.911   7.703
  858TIP3   OH224208   4.293   1.857   7.529
  858TIP3    H124209   4.200   1.866   7.551
  858TIP3    H224210   4.300   1.897   7.442
  859TIP3   OH224211   4.753   1.830   7.434
  859TIP3    H124212   4.701   1.866   7.362
  859TIP3    H224213   4.762   1.904   7.495
  860TIP3   OH224214   4.978   1.715   7.549
  860TIP3    H124215   4.901   1.746   7.501
  860TIP3    H224216   5.050   1.767   7.515
  861TIP3   OH224217   5.230   1.858   7.539
  861TIP3    H124218   5.242   1.949   7.514
  861TIP3    H224219   5.267   1.808   7.466
  862TIP3   OH224220   3.983   1.737   7.290
  862TIP3    H124221   3.980   1.690   7.373
  862TIP3    H224222   4.062   1.704   7.247
  863TIP3   OH224223   4.204   1.618   7.188
  863TIP3    H124224   4.192   1.524   7.203
  863TIP3    H224225   4.296   1.634   7.211
  864TIP3   OH224226   4.474   1.645   7.273
  864TIP3    H124227   4.478   1.557   7.235
  864TIP3    H224228   4.512   1.635   7.361
  865TIP3   OH224229   4.799   0.251   7.144
  865TIP3    H124230   4.741   0.184   7.181
  865TIP3    H224231   4.879   0.203   7.122
  866TIP3   OH224232   5.290   0.012   7.200
  866TIP3    H124233   5.351   0.049   7.136
  866TIP3    H224234   5.207   0.056   7.182
  867TIP3   OH224235   5.464   0.119   7.011
  867TIP3    H124236   5.533   0.055   6.994
  867TIP3    H224237   5.510   0.202   7.019
  868TIP3   OH224238   4.086   0.037   6.934
  868TIP3    H124239   3.991   0.029   6.944
  868TIP3    H224240   4.123  -0.021   7.000
  869TIP3   OH224241   3.876   0.163   6.631
  869TIP3    H124242   3.926   0.202   6.558
  869TIP3    H224243   3.796   0.130   6.590
  870TIP3   OH224244   4.517   0.142   6.963
  870TIP3    H124245   4.593   0.164   6.910
  870TIP3    H224246   4.553   0.124   7.050
  871TIP3   OH224247   5.051   0.147   7.094
  871TIP3    H124248   5.119   0.210   7.071
  871TIP3    H224249   5.061   0.076   7.030
  872TIP3   OH224250   5.155   0.051   6.667
  872TIP3    H124251   5.109   0.115   6.613
  872TIP3    H224252   5.205  -0.001   6.605
  873TIP3   OH224253   3.887   1.659   6.584
  873TIP3    H124254   3.859   1.592   6.522
  873TIP3    H224255   3.825   1.731   6.571
  874TIP3   OH224256   4.611   0.310   6.615
  874TIP3    H124257   4.649   0.264   6.690
  874TIP3    H224258   4.686   0.354   6.574
  875TIP3   OH224259   5.487   1.738   6.726
  875TIP3    H124260   5.456   1.652   6.698
  875TIP3    H224261   5.465   1.796   6.653
  876TIP3   OH224262   4.049   0.200   7.873
  876TIP3    H124263   3.983   0.132   7.863
  876TIP3    H224264   4.118   0.160   7.926
  877TIP3   OH224265   4.244   0.108   8.050
  877TIP3    H124266   4.330   0.126   8.014
  877TIP3    H224267   4.253   0.022   8.092
  878TIP3   OH224268   5.035   0.069   8.078
  878TIP3    H124269   5.083  -0.000   8.124
  878TIP3    H224270   5.101   0.109   8.020
  879TIP3   OH224271   5.374   1.626   7.941
  879TIP3    H124272   5.314   1.619   7.867
  879TIP3    H224273   5.365   1.717   7.970
  880TIP3   OH224274   6.814   1.005   6.867
  880TIP3    H124275   6.796   1.099   6.874
  880TIP3    H224276   6.755   0.974   6.799
  881TIP3   OH224277   6.710   0.926   7.295
  881TIP3    H124278   6.735   0.883   7.377
  881TIP3    H224279   6.668   0.857   7.244
  882TIP3   OH224280   5.955   0.885   7.448
  882TIP3    H124281   5.959   0.799   7.490
  882TIP3    H224282   6.040   0.894   7.406
  883TIP3   OH224283   7.099   1.246   7.137
  883TIP3    H124284   7.061   1.169   7.179
  883TIP3    H224285   7.119   1.305   7.210
  884TIP3   OH224286   6.088   1.362   7.273
  884TIP3    H124287   6.056   1.277   7.242
  884TIP3    H224288   6.183   1.354   7.269
  885TIP3   OH224289   5.731   0.678   6.786
  885TIP3    H124290   5.686   0.758   6.816
  885TIP3    H224291   5.676   0.646   6.715
  886TIP3   OH224292   5.827   0.924   7.074
  886TIP3    H124293   5.845   0.831   7.089
  886TIP3    H224294   5.835   0.934   6.980
  887TIP3   OH224295   6.825   1.719   7.174
  887TIP3    H124296   6.853   1.660   7.104
  887TIP3    H224297   6.798   1.661   7.245
  888TIP3   OH224298   6.564   1.172   7.321
  888TIP3    H124299   6.599   1.090   7.284
  888TIP3    H224300   6.636   1.207   7.373
  889TIP3   OH224301   6.873   0.612   7.326
  889TIP3    H124302   6.894   0.520   7.341
  889TIP3    H224303   6.855   0.618   7.232
  890TIP3   OH224304   6.225   0.415   7.046
  890TIP3    H124305   6.230   0.501   7.004
  890TIP3    H224306   6.191   0.357   6.978
  891TIP3   OH224307   6.978   0.441   6.873
  891TIP3    H124308   7.004   0.400   6.956
  891TIP3    H224309   7.060   0.478   6.839
  892TIP3   OH224310   5.882   0.660   7.126
  892TIP3    H124311   5.948   0.616   7.181
  892TIP3    H224312   5.895   0.624   7.039
  893TIP3   OH224313   6.333   0.822   7.112
  893TIP3    H124314   6.417   0.784   7.135
  893TIP3    H224315   6.295   0.761   7.049
  894TIP3   OH224316   6.074   0.343   7.494
  894TIP3    H124317   6.049   0.389   7.414
  894TIP3    H224318   5.997   0.349   7.551
  895TIP3   OH224319   6.758   1.268   6.813
  895TIP3    H124320   6.785   1.299   6.727
  895TIP3    H224321   6.717   1.343   6.855
  896TIP3   OH224322   6.344   1.110   7.473
  896TIP3    H124323   6.290   1.189   7.480
  896TIP3    H224324   6.418   1.137   7.418
  897TIP3   OH224325   7.093   0.363   7.100
  897TIP3    H124326   7.094   0.279   7.145
  897TIP3    H224327   7.130   0.424   7.164
  898TIP3   OH224328   6.069   0.497   7.260
  898TIP3    H124329   6.131   0.545   7.314
  898TIP3    H224330   6.122   0.459   7.190
  899TIP3   OH224331   6.176   1.317   7.564
  899TIP3    H124332   6.198   1.409   7.550
  899TIP3    H224333   6.084   1.311   7.541
  900TIP3   OH224334   5.724   1.286   6.662
  900TIP3    H124335   5.687   1.311   6.577
  900TIP3    H224336   5.777   1.361   6.688
  901TIP3   OH224337   7.135   1.451   7.342
  901TIP3    H124338   7.040   1.449   7.355
  901TIP3    H224339   7.155   1.542   7.322
  902TIP3   OH224340   7.170   0.258   7.462
  902TIP3    H124341   7.082   0.294   7.452
  902TIP3    H224342   7.183   0.205   7.384
  903TIP3   OH224343   6.463   0.108   7.232
  903TIP3    H124344   6.439   0.016   7.231
  903TIP3    H224345   6.386   0.152   7.267
  904TIP3   OH224346   6.924   1.579   6.954
  904TIP3    H124347   6.968   1.495   6.939
  904TIP3    H224348   6.994   1.644   6.948
  905TIP3   OH224349   7.101   1.374   6.888
  905TIP3    H124350   7.104   1.308   6.819
  905TIP3    H224351   7.104   1.324   6.970
  906TIP3   OH224352   7.229   1.184   7.714
  906TIP3    H124353   7.225   1.139   7.629
  906TIP3    H224354   7.257   1.273   7.692
  907TIP3   OH224355   6.668   0.905   6.642
  907TIP3    H124356   6.574   0.897   6.626
  907TIP3    H224357   6.708   0.839   6.586
  908TIP3   OH224358   7.082   1.002   6.809
  908TIP3    H124359   6.993   1.004   6.845
  908TIP3    H224360   7.127   0.935   6.861
  909TIP3   OH224361   7.002   0.765   7.706
  909TIP3    H124362   6.986   0.832   7.773
  909TIP3    H224363   6.936   0.783   7.638
  910TIP3   OH224364   6.197   1.032   6.969
  910TIP3    H124365   6.168   1.001   6.883
  910TIP3    H224366   6.251   0.960   7.003
  911TIP3   OH224367   6.365   1.361   7.233
  911TIP3    H124368   6.355   1.367   7.138
  911TIP3    H224369   6.436   1.298   7.246
  912TIP3   OH224370   6.215   0.891   7.353
  912TIP3    H124371   6.250   0.877   7.265
  912TIP3    H224372   6.261   0.969   7.385
  913TIP3   OH224373   6.868   1.467   7.405
  913TIP3    H124374   6.859   1.525   7.480
  913TIP3    H224375   6.833   1.383   7.435
  914TIP3   OH224376   6.325   1.312   7.799
  914TIP3    H124377   6.275   1.379   7.846
  914TIP3    H224378   6.307   1.330   7.707
  915TIP3   OH224379   7.024   0.896   6.567
  915TIP3    H124380   7.051   0.935   6.650
  915TIP3    H224381   6.935   0.930   6.552
  916TIP3   OH224382   6.021   0.947   7.742
  916TIP3    H124383   5.991   0.921   7.829
  916TIP3    H224384   5.946   0.931   7.685
  917TIP3   OH224385   6.667   1.515   6.883
  917TIP3    H124386   6.750   1.549   6.916
  917TIP3    H224387   6.625   1.589   6.841
  918TIP3   OH224388   6.155   1.514   7.872
  918TIP3    H124389   6.156   1.553   7.785
  918TIP3    H224390   6.062   1.498   7.890
  919TIP3   OH224391   6.116   0.938   6.722
  919TIP3    H124392   6.100   0.954   6.629
  919TIP3    H224393   6.112   0.843   6.732
  920TIP3   OH224394   5.711   1.165   7.621
  920TIP3    H124395   5.662   1.177   7.540
  920TIP3    H224396   5.718   1.070   7.631
  921TIP3   OH224397   5.695   1.458   7.283
  921TIP3    H124398   5.786   1.448   7.308
  921TIP3    H224399   5.662   1.530   7.336
  922TIP3   OH224400   6.582   1.455   7.759
  922TIP3    H124401   6.581   1.540   7.802
  922TIP3    H224402   6.500   1.413   7.785
  923TIP3   OH224403   6.629   1.875   6.655
  923TIP3    H124404   6.590   1.938   6.595
  923TIP3    H224405   6.629   1.920   6.740
  924TIP3   OH224406   6.013   1.712   6.928
  924TIP3    H124407   6.036   1.672   7.013
  924TIP3    H224408   5.958   1.646   6.885
  925TIP3   OH224409   6.885   1.777   6.722
  925TIP3    H124410   6.797   1.792   6.685
  925TIP3    H224411   6.887   1.684   6.741
  926TIP3   OH224412   7.162   0.684   7.956
  926TIP3    H124413   7.134   0.710   7.869
  926TIP3    H224414   7.243   0.635   7.942
  927TIP3   OH224415   5.933   1.297   7.703
  927TIP3    H124416   5.911   1.337   7.787
  927TIP3    H224417   5.853   1.254   7.674
  928TIP3   OH224418   6.215   0.182   7.321
  928TIP3    H124419   6.146   0.162   7.258
  928TIP3    H224420   6.170   0.223   7.394
  929TIP3   OH224421   6.660   0.121   7.694
  929TIP3    H124422   6.667   0.080   7.781
  929TIP3    H224423   6.566   0.129   7.680
  930TIP3   OH224424   7.015   0.491   7.748
  930TIP3    H124425   6.945   0.475   7.811
  930TIP3    H224426   7.006   0.584   7.725
  931TIP3   OH224427   6.213   0.639   7.455
  931TIP3    H124428   6.140   0.639   7.517
  931TIP3    H224429   6.217   0.729   7.422
  932TIP3   OH224430   6.214   0.663   6.922
  932TIP3    H124431   6.124   0.636   6.900
  932TIP3    H224432   6.264   0.646   6.843
  933TIP3   OH224433   6.774   0.680   6.771
  933TIP3    H124434   6.732   0.766   6.768
  933TIP3    H224435   6.784   0.655   6.679
  934TIP3   OH224436   6.677   0.704   7.927
  934TIP3    H124437   6.628   0.630   7.963
  934TIP3    H224438   6.764   0.695   7.965
  935TIP3   OH224439   6.886   0.650   7.047
  935TIP3    H124440   6.833   0.707   6.993
  935TIP3    H224441   6.900   0.571   6.993
  936TIP3   OH224442   5.982   0.654   7.608
  936TIP3    H124443   5.954   0.692   7.691
  936TIP3    H224444   5.944   0.566   7.608
  937TIP3   OH224445   6.208   0.455   6.326
  937TIP3    H124446   6.272   0.406   6.378
  937TIP3    H224447   6.241   0.544   6.323
  938TIP3   OH224448   5.641   0.326   7.014
  938TIP3    H124449   5.708   0.363   7.071
  938TIP3    H224450   5.674   0.339   6.925
  939TIP3   OH224451   6.789   0.780   7.520
  939TIP3    H124452   6.825   0.724   7.452
  939TIP3    H224453   6.730   0.723   7.570
  940TIP3   OH224454   6.511   0.453   7.080
  940TIP3    H124455   6.422   0.418   7.079
  940TIP3    H224456   6.562   0.386   7.127
  941TIP3   OH224457   5.960   0.556   6.881
  941TIP3    H124458   5.884   0.589   6.834
  941TIP3    H224459   5.979   0.471   6.842
  942TIP3   OH224460   6.357   0.608   6.698
  942TIP3    H124461   6.401   0.531   6.661
  942TIP3    H224462   6.312   0.647   6.623
  943TIP3   OH224463   6.908   0.342   7.378
  943TIP3    H124464   6.856   0.348   7.458
  943TIP3    H224465   6.847   0.311   7.312
  944TIP3   OH224466   7.243   1.905   7.985
  944TIP3    H124467   7.249   1.990   7.941
  944TIP3    H224468   7.334   1.879   7.998
  945TIP3   OH224469   6.045   1.171   7.954
  945TIP3    H124470   6.096   1.162   8.035
  945TIP3    H224471   5.954   1.160   7.983
  946TIP3   OH224472   6.567   0.693   7.205
  946TIP3    H124473   6.564   0.619   7.144
  946TIP3    H224474   6.546   0.654   7.290
  947TIP3   OH224475   6.093   0.290   6.826
  947TIP3    H124476   6.033   0.223   6.860
  947TIP3    H224477   6.130   0.250   6.747
  948TIP3   OH224478   6.479   0.570   7.438
  948TIP3    H124479   6.389   0.602   7.451
  948TIP3    H224480   6.524   0.589   7.520
  949TIP3   OH224481   7.208   1.079   7.460
  949TIP3    H124482   7.276   1.050   7.399
  949TIP3    H224483   7.126   1.063   7.414
  950TIP3   OH224484   6.909   0.412   6.454
  950TIP3    H124485   6.838   0.442   6.396
  950TIP3    H224486   6.943   0.492   6.493
  951TIP3   OH224487   6.658   1.172   7.737
  951TIP3    H124488   6.705   1.133   7.811
  951TIP3    H224489   6.643   1.262   7.763
  952TIP3   OH224490   7.051   0.615   6.574
  952TIP3    H124491   7.074   0.607   6.667
  952TIP3    H224492   7.014   0.703   6.567
  953TIP3   OH224493   6.035   1.110   7.175
  953TIP3    H124494   6.099   1.091   7.107
  953TIP3    H224495   5.964   1.047   7.161
  954TIP3   OH224496   5.736   0.891   7.703
  954TIP3    H124497   5.704   0.841   7.778
  954TIP3    H224498   5.671   0.876   7.634
  955TIP3   OH224499   6.456   0.879   7.950
  955TIP3    H124500   6.392   0.844   7.889
  955TIP3    H224501   6.538   0.836   7.927
  956TIP3   OH224502   6.867   1.449   7.734
  956TIP3    H124503   6.772   1.451   7.721
  956TIP3    H224504   6.879   1.466   7.828
  957TIP3   OH224505   7.275   1.505   6.620
  957TIP3    H124506   7.220   1.469   6.689
  957TIP3    H224507   7.239   1.468   6.539
  958TIP3   OH224508   6.991   1.014   7.291
  958TIP3    H124509   6.897   0.998   7.278
  958TIP3    H224510   7.033   0.933   7.262
  959TIP3   OH224511   6.292   1.434   6.977
  959TIP3    H124512   6.306   1.522   6.941
  959TIP3    H224513   6.203   1.412   6.952
  960TIP3   OH224514   6.485   1.607   7.527
  960TIP3    H124515   6.543   1.680   7.503
  960TIP3    H224516   6.540   1.549   7.579
  961TIP3   OH224517   6.287   1.691   6.878
  961TIP3    H124518   6.194   1.712   6.875
  961TIP3    H224519   6.331   1.776   6.887
  962TIP3   OH224520   6.781   1.214   7.492
  962TIP3    H124521   6.742   1.191   7.576
  962TIP3    H224522   6.848   1.148   7.477
  963TIP3   OH224523   7.050   1.192   6.350
  963TIP3    H124524   7.065   1.219   6.441
  963TIP3    H224525   6.991   1.259   6.316
  964TIP3   OH224526   7.097   1.641   7.703
  964TIP3    H124527   7.013   1.597   7.687
  964TIP3    H224528   7.096   1.717   7.645
  965TIP3   OH224529   5.860   0.410   7.656
  965TIP3    H124530   5.767   0.432   7.647
  965TIP3    H224531   5.862   0.336   7.716
  966TIP3   OH224532   7.162   1.217   6.656
  966TIP3    H124533   7.133   1.138   6.703
  966TIP3    H224534   7.257   1.208   6.650
  967TIP3   OH224535   5.868   1.593   7.515
  967TIP3    H124536   5.880   1.511   7.562
  967TIP3    H224537   5.878   1.661   7.581
  968TIP3   OH224538   6.772   0.358   7.615
  968TIP3    H124539   6.830   0.373   7.690
  968TIP3    H224540   6.731   0.274   7.634
  969TIP3   OH224541   6.891   0.261   6.683
  969TIP3    H124542   6.878   0.306   6.600
  969TIP3    H224543   6.906   0.331   6.747
  970TIP3   OH224544   6.596   1.559   6.538
  970TIP3    H124545   6.584   1.653   6.555
  970TIP3    H224546   6.576   1.549   6.445
  971TIP3   OH224547   6.621   0.456   6.827
  971TIP3    H124548   6.669   0.536   6.810
  971TIP3    H224549   6.569   0.475   6.905
  972TIP3   OH224550   6.638   0.602   7.663
  972TIP3    H124551   6.652   0.625   7.755
  972TIP3    H224552   6.677   0.515   7.653
  973TIP3   OH224553   6.704   0.199   6.875
  973TIP3    H124554   6.672   0.290   6.871
  973TIP3    H224555   6.758   0.190   6.796
  974TIP3   OH224556   7.266   0.385   7.702
  974TIP3    H124557   7.183   0.424   7.732
  974TIP3    H224558   7.242   0.336   7.623
  975TIP3   OH224559   7.096   0.768   7.202
  975TIP3    H124560   7.016   0.728   7.168
  975TIP3    H224561   7.142   0.696   7.245
  976TIP3   OH224562   7.235   1.718   7.323
  976TIP3    H124563   7.225   1.782   7.253
  976TIP3    H224564   7.321   1.679   7.308
  977TIP3   OH224565   5.951   0.127   7.189
  977TIP3    H124566   5.951   0.126   7.094
  977TIP3    H224567   5.981   0.039   7.214
  978TIP3   OH224568   5.830   1.552   6.781
  978TIP3    H124569   5.753   1.543   6.837
  978TIP3    H224570   5.805   1.615   6.714
  979TIP3   OH224571   5.791   1.797   7.987
  979TIP3    H124572   5.857   1.774   8.052
  979TIP3    H224573   5.746   1.715   7.968
  980TIP3   OH224574   6.229   1.618   8.119
  980TIP3    H124575   6.303   1.564   8.145
  980TIP3    H224576   6.205   1.586   8.032
  981TIP3   OH224577   6.871   1.486   8.005
  981TIP3    H124578   6.853   1.400   8.043
  981TIP3    H224579   6.947   1.518   8.054
  982TIP3   OH224580   5.780   1.143   8.028
  982TIP3    H124581   5.755   1.051   8.032
  982TIP3    H224582   5.711   1.184   7.975
  983TIP3   OH224583   6.429   1.156   8.010
  983TIP3    H124584   6.412   1.193   7.923
  983TIP3    H224585   6.459   1.067   7.992
  984TIP3   OH224586   6.963   1.185   7.776
  984TIP3    H124587   7.057   1.187   7.757
  984TIP3    H224588   6.931   1.271   7.748
  985TIP3   OH224589   5.932   0.845   7.982
  985TIP3    H124590   5.957   0.753   7.993
  985TIP3    H224591   5.914   0.875   8.071
  986TIP3   OH224592   6.264   0.785   7.761
  986TIP3    H124593   6.182   0.828   7.738
  986TIP3    H224594   6.326   0.813   7.694
  987TIP3   OH224595   6.758   1.009   8.052
  987TIP3    H124596   6.834   0.974   8.005
  987TIP3    H224597   6.731   0.937   8.109
  988TIP3   OH224598   6.317   0.524   7.831
  988TIP3    H124599   6.318   0.465   7.756
  988TIP3    H224600   6.300   0.611   7.793
  989TIP3   OH224601   6.328   0.374   7.596
  989TIP3    H124602   6.381   0.410   7.525
  989TIP3    H224603   6.240   0.368   7.559
  990TIP3   OH224604   6.454   0.888   7.600
  990TIP3    H124605   6.549   0.884   7.589
  990TIP3    H224606   6.427   0.968   7.554
  991TIP3   OH224607   6.912   0.653   8.082
  991TIP3    H124608   6.925   0.570   8.128
  991TIP3    H224609   6.997   0.670   8.040
  992TIP3   OH224610   6.995   0.954   7.917
  992TIP3    H124611   6.973   1.035   7.871
  992TIP3    H224612   7.090   0.954   7.922
  993TIP3   OH224613   6.159   0.587   8.055
  993TIP3    H124614   6.079   0.537   8.034
  993TIP3    H224615   6.211   0.581   7.975
  994TIP3   OH224616   6.385   0.121   7.686
  994TIP3    H124617   6.361   0.209   7.656
  994TIP3    H224618   6.312   0.066   7.658
  995TIP3   OH224619   6.533   0.482   7.998
  995TIP3    H124620   6.492   0.440   8.073
  995TIP3    H224621   6.462   0.492   7.934
  996TIP3   OH224622   6.795   0.420   7.899
  996TIP3    H124623   6.707   0.424   7.937
  996TIP3    H224624   6.851   0.389   7.970
  997TIP3   OH224625   6.986   0.342   8.088
  997TIP3    H124626   6.980   0.248   8.076
  997TIP3    H224627   6.949   0.358   8.175
  998TIP3   OH224628   5.950   0.424   7.991
  998TIP3    H124629   5.942   0.354   7.926
  998TIP3    H224630   5.949   0.379   8.076
  999TIP3   OH224631   6.491  -0.005   7.903
  999TIP3    H124632   6.423  -0.029   7.966
  999TIP3    H224633   6.445   0.041   7.834
 1000TIP3   OH224634   6.521   0.194   8.140
 1000TIP3    H124635   6.526   0.123   8.076
 1000TIP3    H224636   6.436   0.235   8.124
 1001TIP3   OH224637   5.658   1.858   6.898
 1001TIP3    H124638   5.603   1.821   6.830
 1001TIP3    H224639   5.674   1.786   6.959
 1002TIP3   OH224640   5.713   1.655   7.073
 1002TIP3    H124641   5.678   1.574   7.108
 1002TIP3    H224642   5.766   1.692   7.144
 1003TIP3   OH224643   7.227   1.260   8.165
 1003TIP3    H124644   7.153   1.271   8.225
 1003TIP3    H224645   7.298   1.310   8.205
 1004TIP3   OH224646   7.256   1.434   7.597
 1004TIP3    H124647   7.212   1.509   7.637
 1004TIP3    H224648   7.218   1.429   7.509
 1005TIP3   OH224649   7.184   0.785   6.944
 1005TIP3    H124650   7.147   0.699   6.925
 1005TIP3    H224651   7.168   0.798   7.038
 1006TIP3   OH224652   5.729   0.974   7.324
 1006TIP3    H124653   5.751   0.963   7.232
 1006TIP3    H224654   5.809   0.952   7.371
 1007TIP3   OH224655   7.262   0.990   7.922
 1007TIP3    H124656   7.334   0.927   7.917
 1007TIP3    H224657   7.276   1.049   7.848
 1008TIP3   OH224658   7.224   0.542   6.803
 1008TIP3    H124659   7.272   0.497   6.872
 1008TIP3    H224660   7.285   0.607   6.769
 1009TIP3   OH224661   7.215   0.516   7.286
 1009TIP3    H124662   7.308   0.497   7.274
 1009TIP3    H224663   7.198   0.493   7.378
 1010TIP3   OH224664   7.282   0.725   7.626
 1010TIP3    H124665   7.187   0.734   7.621
 1010TIP3    H224666   7.310   0.714   7.535
 1011TIP3   OH224667   5.697   0.521   7.995
 1011TIP3    H124668   5.787   0.491   7.985
 1011TIP3    H224669   5.644   0.444   7.974
 1012TIP3   OH224670   5.820   0.367   7.231
 1012TIP3    H124671   5.853   0.277   7.225
 1012TIP3    H224672   5.899   0.420   7.239
 1013TIP3   OH224673   5.648   0.639   7.299
 1013TIP3    H124674   5.707   0.606   7.232
 1013TIP3    H224675   5.682   0.726   7.322
 1014TIP3   OH224676   5.688   0.288   6.729
 1014TIP3    H124677   5.593   0.289   6.732
 1014TIP3    H224678   5.709   0.292   6.635
 1015TIP3   OH224679   7.147   1.731   6.960
 1015TIP3    H124680   7.224   1.676   6.972
 1015TIP3    H224681   7.161   1.805   7.019
 1016TIP3   OH224682   5.725   0.094   7.552
 1016TIP3    H124683   5.647   0.090   7.606
 1016TIP3    H224684   5.705   0.162   7.487
 1017TIP3   OH224685   5.891   1.455   7.937
 1017TIP3    H124686   5.803   1.493   7.923
 1017TIP3    H224687   5.889   1.424   8.027
 1018TIP3   OH224688   6.224   1.588   7.606
 1018TIP3    H124689   6.191   1.673   7.580
 1018TIP3    H224690   6.318   1.591   7.584
 1019TIP3   OH224691   6.595   1.702   7.887
 1019TIP3    H124692   6.609   1.674   7.978
 1019TIP3    H224693   6.673   1.752   7.864
 1020TIP3   OH224694   6.827   1.844   7.843
 1020TIP3    H124695   6.890   1.794   7.791
 1020TIP3    H224696   6.874   1.868   7.922
 1021TIP3   OH224697   5.915   1.879   7.621
 1021TIP3    H124698   5.836   1.918   7.584
 1021TIP3    H224699   5.927   1.922   7.705
 1022TIP3   OH224700   6.176   1.850   7.535
 1022TIP3    H124701   6.084   1.862   7.559
 1022TIP3    H224702   6.184   1.893   7.450
 1023TIP3   OH224703   6.633   1.825   7.439
 1023TIP3    H124704   6.588   1.861   7.362
 1023TIP3    H224705   6.643   1.900   7.498
 1024TIP3   OH224706   6.863   1.715   7.548
 1024TIP3    H124707   6.785   1.749   7.504
 1024TIP3    H224708   6.933   1.775   7.522
 1025TIP3   OH224709   7.107   1.860   7.519
 1025TIP3    H124710   7.108   1.950   7.488
 1025TIP3    H224711   7.150   1.810   7.450
 1026TIP3   OH224712   5.881   1.746   7.286
 1026TIP3    H124713   5.874   1.697   7.368
 1026TIP3    H224714   5.958   1.709   7.243
 1027TIP3   OH224715   6.096   1.620   7.178
 1027TIP3    H124716   6.085   1.529   7.207
 1027TIP3    H224717   6.187   1.641   7.201
 1028TIP3   OH224718   6.364   1.643   7.274
 1028TIP3    H124719   6.374   1.555   7.237
 1028TIP3    H224720   6.396   1.635   7.363
 1029TIP3   OH224721   6.696   0.256   7.205
 1029TIP3    H124722   6.622   0.200   7.224
 1029TIP3    H224723   6.758   0.200   7.158
 1030TIP3   OH224724   7.146   0.113   7.222
 1030TIP3    H124725   7.213   0.076   7.164
 1030TIP3    H224726   7.063   0.094   7.178
 1031TIP3   OH224727   5.943   0.078   6.921
 1031TIP3    H124728   5.855   0.070   6.883
 1031TIP3    H224729   5.988  -0.001   6.893
 1032TIP3   OH224730   5.793   0.246   6.453
 1032TIP3    H124731   5.844   0.178   6.496
 1032TIP3    H224732   5.738   0.198   6.390
 1033TIP3   OH224733   6.440   0.141   6.957
 1033TIP3    H124734   6.528   0.159   6.925
 1033TIP3    H224735   6.449   0.136   7.052
 1034TIP3   OH224736   6.901   0.115   7.068
 1034TIP3    H124737   6.855   0.161   6.997
 1034TIP3    H224738   6.920   0.028   7.032
 1035TIP3   OH224739   6.501   0.324   6.619
 1035TIP3    H124740   6.507   0.232   6.645
 1035TIP3    H224741   6.548   0.372   6.687
 1036TIP3   OH224742   5.904   0.197   7.842
 1036TIP3    H124743   5.850   0.129   7.803
 1036TIP3    H224744   5.961   0.150   7.904
 1037TIP3   OH224745   6.053   0.069   8.047
 1037TIP3    H124746   6.143   0.042   8.065
 1037TIP3    H224747   6.003  -0.013   8.044
 1038TIP3   OH224748   6.979   0.073   8.044
 1038TIP3    H124749   7.019   0.013   8.107
 1038TIP3    H224750   6.922   0.018   7.991
 1039TIP3   OH224751   7.228   1.626   7.948
 1039TIP3    H124752   7.190   1.614   7.861
 1039TIP3    H224753   7.233   1.721   7.959
 1040TIP3   OH224754   1.130   2.900   6.875
 1040TIP3    H124755   1.157   2.987   6.846
 1040TIP3    H224756   1.061   2.916   6.939
 1041TIP3   OH224757   1.078   2.812   7.291
 1041TIP3    H124758   1.096   2.779   7.379
 1041TIP3    H224759   1.024   2.744   7.251
 1042TIP3   OH224760   0.308   2.758   7.416
 1042TIP3    H124761   0.309   2.685   7.478
 1042TIP3    H224762   0.400   2.776   7.398
 1043TIP3   OH224763   1.466   3.118   7.143
 1043TIP3    H124764   1.416   3.052   7.192
 1043TIP3    H224765   1.478   3.190   7.205
 1044TIP3   OH224766   0.427   3.249   7.259
 1044TIP3    H124767   0.402   3.158   7.242
 1044TIP3    H224768   0.522   3.246   7.271
 1045TIP3   OH224769   0.099   2.579   6.834
 1045TIP3    H124770   0.023   2.637   6.840
 1045TIP3    H224771   0.067   2.494   6.866
 1046TIP3   OH224772   0.178   2.802   7.078
 1046TIP3    H124773   0.180   2.708   7.098
 1046TIP3    H224774   0.178   2.806   6.983
 1047TIP3   OH224775   1.182   3.627   7.173
 1047TIP3    H124776   1.232   3.572   7.112
 1047TIP3    H224777   1.121   3.566   7.216
 1048TIP3   OH224778   0.910   3.079   7.315
 1048TIP3    H124779   0.943   3.001   7.270
 1048TIP3    H224780   0.980   3.102   7.376
 1049TIP3   OH224781   1.823   2.255   7.418
 1049TIP3    H124782   1.874   2.308   7.479
 1049TIP3    H224783   1.880   2.247   7.341
 1050TIP3   OH224784   1.243   2.499   7.331
 1050TIP3    H124785   1.234   2.405   7.343
 1050TIP3    H224786   1.221   2.513   7.239
 1051TIP3   OH224787   0.590   2.300   7.055
 1051TIP3    H124788   0.590   2.387   7.016
 1051TIP3    H224789   0.541   2.245   6.993
 1052TIP3   OH224790   1.338   2.359   6.886
 1052TIP3    H124791   1.381   2.328   6.966
 1052TIP3    H224792   1.410   2.390   6.831
 1053TIP3   OH224793   0.184   2.535   7.150
 1053TIP3    H124794   0.268   2.496   7.173
 1053TIP3    H224795   0.152   2.480   7.078
 1054TIP3   OH224796   0.702   2.706   7.107
 1054TIP3    H124797   0.783   2.667   7.140
 1054TIP3    H224798   0.667   2.642   7.046
 1055TIP3   OH224799   1.836   2.377   7.673
 1055TIP3    H124800   1.827   2.463   7.712
 1055TIP3    H224801   1.803   2.316   7.739
 1056TIP3   OH224802   0.425   2.219   7.484
 1056TIP3    H124803   0.398   2.272   7.409
 1056TIP3    H224804   0.353   2.228   7.547
 1057TIP3   OH224805   1.171   3.171   6.831
 1057TIP3    H124806   1.145   3.168   6.739
 1057TIP3    H224807   1.129   3.250   6.865
 1058TIP3   OH224808   0.696   2.992   7.472
 1058TIP3    H124809   0.638   3.060   7.506
 1058TIP3    H224810   0.759   3.040   7.418
 1059TIP3   OH224811   1.498   2.318   7.102
 1059TIP3    H124812   1.503   2.225   7.124
 1059TIP3    H224813   1.536   2.363   7.178
 1060TIP3   OH224814   0.402   2.377   7.252
 1060TIP3    H124815   0.456   2.433   7.307
 1060TIP3    H224816   0.462   2.341   7.187
 1061TIP3   OH224817   0.541   3.195   7.580
 1061TIP3    H124818   0.543   3.290   7.567
 1061TIP3    H224819   0.450   3.177   7.605
 1062TIP3   OH224820   0.143   3.167   6.617
 1062TIP3    H124821   0.177   3.198   6.534
 1062TIP3    H224822   0.192   3.087   6.635
 1063TIP3   OH224823   1.496   3.333   7.328
 1063TIP3    H124824   1.403   3.331   7.351
 1063TIP3    H224825   1.512   3.423   7.300
 1064TIP3   OH224826   1.470   2.192   7.401
 1064TIP3    H124827   1.376   2.208   7.389
 1064TIP3    H224828   1.495   2.137   7.327
 1065TIP3   OH224829   0.786   1.911   7.221
 1065TIP3    H124830   0.760   1.819   7.224
 1065TIP3    H224831   0.709   1.959   7.252
 1066TIP3   OH224832   1.332   3.497   6.985
 1066TIP3    H124833   1.369   3.414   6.953
 1066TIP3    H224834   1.401   3.561   6.969
 1067TIP3   OH224835   1.430   3.251   6.901
 1067TIP3    H124836   1.349   3.216   6.865
 1067TIP3    H224837   1.448   3.197   6.978
 1068TIP3   OH224838   1.597   3.123   7.686
 1068TIP3    H124839   1.587   3.066   7.610
 1068TIP3    H224840   1.608   3.211   7.649
 1069TIP3   OH224841   1.773   2.789   7.542
 1069TIP3    H124842   1.699   2.849   7.530
 1069TIP3    H224843   1.826   2.800   7.463
 1070TIP3   OH224844   1.343   2.723   6.796
 1070TIP3    H124845   1.289   2.799   6.816
 1070TIP3    H224846   1.431   2.748   6.823
 1071TIP3   OH224847   1.366   2.667   7.699
 1071TIP3    H124848   1.360   2.735   7.766
 1071TIP3    H224849   1.295   2.686   7.638
 1072TIP3   OH224850   0.556   2.905   6.974
 1072TIP3    H124851   0.519   2.870   6.893
 1072TIP3    H224852   0.604   2.832   7.012
 1073TIP3   OH224853   0.709   3.266   7.224
 1073TIP3    H124854   0.700   3.265   7.128
 1073TIP3    H224855   0.779   3.203   7.242
 1074TIP3   OH224856   0.579   2.773   7.351
 1074TIP3    H124857   0.618   2.768   7.264
 1074TIP3    H224858   0.614   2.853   7.388
 1075TIP3   OH224859   1.242   3.333   7.417
 1075TIP3    H124860   1.215   3.408   7.470
 1075TIP3    H224861   1.189   3.260   7.449
 1076TIP3   OH224862   0.696   3.226   7.806
 1076TIP3    H124863   0.634   3.284   7.850
 1076TIP3    H224864   0.650   3.199   7.726
 1077TIP3   OH224865   0.412   2.830   7.746
 1077TIP3    H124866   0.406   2.906   7.803
 1077TIP3    H224867   0.325   2.823   7.707
 1078TIP3   OH224868   1.074   3.430   6.889
 1078TIP3    H124869   1.160   3.465   6.913
 1078TIP3    H224870   1.036   3.497   6.832
 1079TIP3   OH224871   0.496   3.406   7.886
 1079TIP3    H124872   0.496   3.432   7.794
 1079TIP3    H224873   0.404   3.392   7.907
 1080TIP3   OH224874   0.453   2.822   6.729
 1080TIP3    H124875   0.431   2.897   6.674
 1080TIP3    H224876   0.411   2.747   6.687
 1081TIP3   OH224877   0.155   3.010   7.586
 1081TIP3    H124878   0.107   3.005   7.503
 1081TIP3    H224879   0.146   2.923   7.624
 1082TIP3   OH224880   0.094   3.371   7.267
 1082TIP3    H124881   0.156   3.302   7.242
 1082TIP3    H224882   0.109   3.384   7.360
 1083TIP3   OH224883   1.857   3.405   7.892
 1083TIP3    H124884   1.842   3.311   7.892
 1083TIP3    H224885   1.775   3.443   7.925
 1084TIP3   OH224886   0.937   3.348   7.755
 1084TIP3    H124887   0.933   3.432   7.801
 1084TIP3    H224888   0.851   3.308   7.771
 1085TIP3   OH224889   1.006   3.689   6.731
 1085TIP3    H124890   0.961   3.689   6.646
 1085TIP3    H224891   0.975   3.769   6.774
 1086TIP3   OH224892   0.360   3.584   6.927
 1086TIP3    H124893   0.385   3.555   7.015
 1086TIP3    H224894   0.304   3.514   6.893
 1087TIP3   OH224895   1.269   3.634   6.658
 1087TIP3    H124896   1.182   3.653   6.694
 1087TIP3    H224897   1.253   3.568   6.591
 1088TIP3   OH224898   1.554   2.534   7.933
 1088TIP3    H124899   1.486   2.569   7.876
 1088TIP3    H224900   1.535   2.440   7.939
 1089TIP3   OH224901   0.291   3.213   7.704
 1089TIP3    H124902   0.319   3.167   7.783
 1089TIP3    H224903   0.233   3.151   7.660
 1090TIP3   OH224904   0.544   2.025   7.317
 1090TIP3    H124905   0.468   2.017   7.260
 1090TIP3    H224906   0.520   2.093   7.380
 1091TIP3   OH224907   1.004   1.990   7.650
 1091TIP3    H124908   1.053   1.940   7.716
 1091TIP3    H224909   0.912   1.976   7.674
 1092TIP3   OH224910   1.356   2.400   7.775
 1092TIP3    H124911   1.276   2.370   7.817
 1092TIP3    H224912   1.335   2.486   7.739
 1093TIP3   OH224913   0.939   2.237   6.321
 1093TIP3    H124914   0.933   2.216   6.414
 1093TIP3    H224915   0.850   2.261   6.297
 1094TIP3   OH224916   0.555   2.518   7.438
 1094TIP3    H124917   0.487   2.521   7.505
 1094TIP3    H224918   0.566   2.609   7.411
 1095TIP3   OH224919   0.591   2.540   6.922
 1095TIP3    H124920   0.496   2.532   6.922
 1095TIP3    H224921   0.617   2.514   6.833
 1096TIP3   OH224922   1.087   2.628   6.804
 1096TIP3    H124923   1.067   2.720   6.820
 1096TIP3    H224924   1.181   2.627   6.784
 1097TIP3   OH224925   1.024   2.580   7.920
 1097TIP3    H124926   0.970   2.509   7.954
 1097TIP3    H224927   1.107   2.573   7.968
 1098TIP3   OH224928   1.201   2.533   7.057
 1098TIP3    H124929   1.150   2.587   6.997
 1098TIP3    H224930   1.239   2.465   7.002
 1099TIP3   OH224931   0.337   2.533   7.604
 1099TIP3    H124932   0.324   2.590   7.680
 1099TIP3    H224933   0.292   2.451   7.627
 1100TIP3   OH224934   0.672   2.310   6.292
 1100TIP3    H124935   0.630   2.270   6.368
 1100TIP3    H224936   0.602   2.357   6.248
 1101TIP3   OH224937   0.076   2.339   6.975
 1101TIP3    H124938   0.083   2.282   7.052
 1101TIP3    H224939   0.096   2.281   6.901
 1102TIP3   OH224940   0.074   2.397   6.531
 1102TIP3    H124941   0.158   2.436   6.506
 1102TIP3    H224942   0.013   2.426   6.464
 1103TIP3   OH224943   1.150   2.671   7.522
 1103TIP3    H124944   1.188   2.612   7.456
 1103TIP3    H224945   1.083   2.618   7.566
 1104TIP3   OH224946   0.871   2.279   7.017
 1104TIP3    H124947   0.779   2.281   7.041
 1104TIP3    H224948   0.914   2.233   7.089
 1105TIP3   OH224949   0.341   2.459   6.887
 1105TIP3    H124950   0.260   2.501   6.858
 1105TIP3    H224951   0.331   2.367   6.860
 1106TIP3   OH224952   0.661   2.466   6.663
 1106TIP3    H124953   0.753   2.460   6.689
 1106TIP3    H224954   0.654   2.551   6.620
 1107TIP3   OH224955   1.200   2.229   7.358
 1107TIP3    H124956   1.159   2.228   7.444
 1107TIP3    H224957   1.137   2.184   7.301
 1108TIP3   OH224958   1.591   3.778   7.994
 1108TIP3    H124959   1.618   3.813   7.909
 1108TIP3    H224960   1.664   3.799   8.052
 1109TIP3   OH224961   0.363   3.047   7.922
 1109TIP3    H124962   0.425   3.050   7.995
 1109TIP3    H224963   0.277   3.045   7.963
 1110TIP3   OH224964   0.929   2.578   7.212
 1110TIP3    H124965   0.982   2.512   7.168
 1110TIP3    H224966   0.892   2.532   7.288
 1111TIP3   OH224967   0.446   2.180   6.852
 1111TIP3    H124968   0.391   2.107   6.880
 1111TIP3    H224969   0.459   2.166   6.759
 1112TIP3   OH224970   0.821   2.446   7.432
 1112TIP3    H124971   0.732   2.478   7.440
 1112TIP3    H224972   0.865   2.476   7.511
 1113TIP3   OH224973   0.804   3.033   6.609
 1113TIP3    H124974   0.719   3.073   6.591
 1113TIP3    H224975   0.812   3.036   6.704
 1114TIP3   OH224976   1.575   2.965   7.460
 1114TIP3    H124977   1.629   3.022   7.406
 1114TIP3    H224978   1.498   2.947   7.405
 1115TIP3   OH224979   1.010   3.063   7.751
 1115TIP3    H124980   1.025   3.027   7.839
 1115TIP3    H224981   0.980   3.152   7.767
 1116TIP3   OH224982   0.401   2.985   7.191
 1116TIP3    H124983   0.452   2.966   7.113
 1116TIP3    H224984   0.340   2.911   7.199
 1117TIP3   OH224985   1.065   3.169   6.583
 1117TIP3    H124986   1.082   3.250   6.535
 1117TIP3    H224987   0.972   3.152   6.569
 1118TIP3   OH224988   0.144   2.762   7.709
 1118TIP3    H124989   0.154   2.740   7.802
 1118TIP3    H224990   0.073   2.706   7.679
 1119TIP3   OH224991   0.802   2.761   7.938
 1119TIP3    H124992   0.737   2.725   7.878
 1119TIP3    H224993   0.883   2.716   7.916
 1120TIP3   OH224994   1.221   3.325   7.751
 1120TIP3    H124995   1.126   3.331   7.736
 1120TIP3    H224996   1.231   3.344   7.844
 1121TIP3   OH224997   1.794   2.559   6.561
 1121TIP3    H124998   1.840   2.513   6.491
 1121TIP3    H224999   1.809   2.652   6.544
 1122TIP3   OH225000   1.813   3.105   7.851
 1122TIP3    H125001   1.726   3.127   7.818
 1122TIP3    H225002   1.868   3.096   7.773
 1123TIP3   OH225003   1.358   2.895   7.287
 1123TIP3    H125004   1.263   2.884   7.285
 1123TIP3    H225005   1.392   2.819   7.239
 1124TIP3   OH225006   0.651   3.308   6.953
 1124TIP3    H125007   0.670   3.395   6.921
 1124TIP3    H225008   0.558   3.295   6.932
 1125TIP3   OH225009   0.766   3.062   6.881
 1125TIP3    H125010   0.746   3.153   6.903
 1125TIP3    H225011   0.694   3.011   6.918
 1126TIP3   OH225012   0.825   3.498   7.533
 1126TIP3    H125013   0.885   3.569   7.508
 1126TIP3    H225014   0.878   3.438   7.585
 1127TIP3   OH225015   0.637   3.574   6.864
 1127TIP3    H125016   0.544   3.595   6.875
 1127TIP3    H225017   0.683   3.655   6.889
 1128TIP3   OH225018   1.120   3.094   7.501
 1128TIP3    H125019   1.080   3.080   7.587
 1128TIP3    H225020   1.195   3.035   7.500
 1129TIP3   OH225021   1.427   3.527   7.716
 1129TIP3    H125022   1.346   3.477   7.701
 1129TIP3    H225023   1.420   3.601   7.655
 1130TIP3   OH225024   0.217   2.270   7.670
 1130TIP3    H125025   0.124   2.291   7.680
 1130TIP3    H225026   0.229   2.190   7.722
 1131TIP3   OH225027   0.215   3.468   7.511
 1131TIP3    H125028   0.240   3.387   7.556
 1131TIP3    H225029   0.213   3.534   7.581
 1132TIP3   OH225030   0.366   3.000   6.536
 1132TIP3    H125031   0.395   2.934   6.473
 1132TIP3    H225032   0.351   3.078   6.482
 1133TIP3   OH225033   1.107   2.238   7.621
 1133TIP3    H125034   1.135   2.249   7.712
 1133TIP3    H225035   1.066   2.151   7.619
 1134TIP3   OH225036   1.212   2.266   6.654
 1134TIP3    H125037   1.121   2.237   6.665
 1134TIP3    H225038   1.241   2.287   6.742
 1135TIP3   OH225039   0.910   2.418   6.773
 1135TIP3    H125040   0.974   2.487   6.787
 1135TIP3    H225041   0.896   2.381   6.861
 1136TIP3   OH225042   0.988   2.492   7.652
 1136TIP3    H125043   0.994   2.515   7.744
 1136TIP3    H225044   1.021   2.402   7.648
 1137TIP3   OH225045   0.970   2.078   6.843
 1137TIP3    H125046   0.947   2.149   6.904
 1137TIP3    H225047   1.054   2.046   6.876
 1138TIP3   OH225048   0.636   3.591   6.581
 1138TIP3    H125049   0.724   3.618   6.555
 1138TIP3    H225050   0.643   3.571   6.674
 1139TIP3   OH225051   0.595   2.222   6.547
 1139TIP3    H125052   0.597   2.306   6.593
 1139TIP3    H225053   0.681   2.183   6.565
 1140TIP3   OH225054   1.559   2.238   7.703
 1140TIP3    H125055   1.485   2.285   7.739
 1140TIP3    H225056   1.527   2.148   7.692
 1141TIP3   OH225057   1.438   2.657   7.151
 1141TIP3    H125058   1.354   2.623   7.123
 1141TIP3    H225059   1.476   2.587   7.205
 1142TIP3   OH225060   1.565   3.610   7.319
 1142TIP3    H125061   1.552   3.676   7.250
 1142TIP3    H225062   1.659   3.605   7.331
 1143TIP3   OH225063   0.293   2.005   7.202
 1143TIP3    H125064   0.296   1.991   7.107
 1143TIP3    H225065   0.264   1.921   7.238
 1144TIP3   OH225066   0.197   3.372   6.831
 1144TIP3    H125067   0.102   3.376   6.841
 1144TIP3    H225068   0.212   3.301   6.769
 1145TIP3   OH225069   0.152   3.699   7.979
 1145TIP3    H125070   0.214   3.678   8.049
 1145TIP3    H225071   0.116   3.614   7.954
 1146TIP3   OH225072   0.563   3.496   8.141
 1146TIP3    H125073   0.654   3.467   8.145
 1146TIP3    H225074   0.533   3.466   8.055
 1147TIP3   OH225075   1.237   3.371   8.023
 1147TIP3    H125076   1.216   3.286   8.062
 1147TIP3    H225077   1.313   3.402   8.071
 1148TIP3   OH225078   0.120   3.037   8.051
 1148TIP3    H125079   0.104   2.943   8.045
 1148TIP3    H225080   0.032   3.076   8.059
 1149TIP3   OH225081   0.763   3.036   7.996
 1149TIP3    H125082   0.746   3.079   7.913
 1149TIP3    H225083   0.785   2.946   7.972
 1150TIP3   OH225084   1.338   3.065   7.764
 1150TIP3    H125085   1.428   3.092   7.744
 1150TIP3    H225086   1.286   3.145   7.754
 1151TIP3   OH225087   0.158   2.714   7.977
 1151TIP3    H125088   0.159   2.619   7.980
 1151TIP3    H225089   0.182   2.741   8.065
 1152TIP3   OH225090   0.624   2.657   7.747
 1152TIP3    H125091   0.548   2.715   7.745
 1152TIP3    H225092   0.684   2.694   7.682
 1153TIP3   OH225093   1.111   2.899   8.044
 1153TIP3    H125094   1.184   2.856   8.000
 1153TIP3    H225095   1.074   2.832   8.102
 1154TIP3   OH225096   0.664   2.397   7.820
 1154TIP3    H125097   0.664   2.339   7.744
 1154TIP3    H225098   0.649   2.484   7.784
 1155TIP3   OH225099   0.679   2.239   7.587
 1155TIP3    H125100   0.730   2.285   7.521
 1155TIP3    H225101   0.590   2.237   7.551
 1156TIP3   OH225102   0.814   2.776   7.594
 1156TIP3    H125103   0.905   2.804   7.603
 1156TIP3    H225104   0.770   2.851   7.553
 1157TIP3   OH225105   1.243   2.540   8.097
 1157TIP3    H125106   1.247   2.459   8.148
 1157TIP3    H225107   1.329   2.580   8.109
 1158TIP3   OH225108   1.386   2.846   7.918
 1158TIP3    H125109   1.358   2.926   7.872
 1158TIP3    H225110   1.482   2.849   7.914
 1159TIP3   OH225111   0.506   2.454   8.048
 1159TIP3    H125112   0.417   2.420   8.036
 1159TIP3    H225113   0.546   2.445   7.962
 1160TIP3   OH225114   0.728   1.974   7.665
 1160TIP3    H125115   0.708   2.064   7.640
 1160TIP3    H225116   0.663   1.921   7.620
 1161TIP3   OH225117   0.878   2.360   7.989
 1161TIP3    H125118   0.834   2.336   8.071
 1161TIP3    H225119   0.807   2.366   7.925
 1162TIP3   OH225120   1.136   2.287   7.892
 1162TIP3    H125121   1.050   2.297   7.933
 1162TIP3    H225122   1.189   2.243   7.958
 1163TIP3   OH225123   1.330   2.183   8.074
 1163TIP3    H125124   1.317   2.088   8.078
 1163TIP3    H225125   1.294   2.216   8.156
 1164TIP3   OH225126   0.283   2.279   7.998
 1164TIP3    H125127   0.287   2.204   7.939
 1164TIP3    H225128   0.288   2.241   8.085
 1165TIP3   OH225129   0.743   1.902   7.929
 1165TIP3    H125130   0.796   1.823   7.922
 1165TIP3    H225131   0.732   1.932   7.839
 1166TIP3   OH225132   0.812   2.054   8.152
 1166TIP3    H125133   0.795   2.002   8.074
 1166TIP3    H225134   0.755   2.131   8.142
 1167TIP3   OH225135   0.867   3.734   6.489
 1167TIP3    H125136   0.928   3.694   6.427
 1167TIP3    H225137   0.807   3.784   6.435
 1168TIP3   OH225138   0.039   3.763   6.855
 1168TIP3    H125139  -0.048   3.737   6.825
 1168TIP3    H225140   0.062   3.699   6.922
 1169TIP3   OH225141   0.065   3.568   7.069
 1169TIP3    H125142   0.063   3.478   7.104
 1169TIP3    H225143   0.123   3.615   7.128
 1170TIP3   OH225144   1.832   3.606   7.388
 1170TIP3    H125145   1.831   3.615   7.483
 1170TIP3    H225146   1.909   3.655   7.360
 1171TIP3   OH225147   1.779   3.582   7.667
 1171TIP3    H125148   1.725   3.512   7.632
 1171TIP3    H225149   1.826   3.542   7.740
 1172TIP3   OH225150   1.624   3.162   8.169
 1172TIP3    H125151   1.542   3.173   8.218
 1172TIP3    H225152   1.671   3.244   8.182
 1173TIP3   OH225153   1.776   3.027   6.684
 1173TIP3    H125154   1.785   2.967   6.759
 1173TIP3    H225155   1.695   3.000   6.641
 1174TIP3   OH225156   1.831   2.812   6.860
 1174TIP3    H125157   1.749   2.773   6.890
 1174TIP3    H225158   1.881   2.827   6.940
 1175TIP3   OH225159   1.814   3.099   7.378
 1175TIP3    H125160   1.854   3.044   7.311
 1175TIP3    H225161   1.831   3.189   7.349
 1176TIP3   OH225162   1.614   3.375   7.578
 1176TIP3    H125163   1.542   3.420   7.622
 1176TIP3    H225164   1.582   3.360   7.489
 1177TIP3   OH225165   1.856   2.830   6.495
 1177TIP3    H125166   1.785   2.872   6.447
 1177TIP3    H225167   1.865   2.883   6.575
 1178TIP3   OH225168   1.598   2.678   6.926
 1178TIP3    H125169   1.573   2.594   6.887
 1178TIP3    H225170   1.549   2.682   7.008
 1179TIP3   OH225171   0.084   2.882   7.326
 1179TIP3    H125172   0.099   2.880   7.232
 1179TIP3    H225173   0.165   2.851   7.365
 1180TIP3   OH225174   1.667   2.858   7.903
 1180TIP3    H125175   1.722   2.786   7.871
 1180TIP3    H225176   1.711   2.937   7.873
 1181TIP3   OH225177   1.803   2.612   7.853
 1181TIP3    H125178   1.715   2.587   7.883
 1181TIP3    H225179   1.862   2.561   7.908
 1182TIP3   OH225180   1.592   2.425   6.774
 1182TIP3    H125181   1.639   2.371   6.838
 1182TIP3    H225182   1.661   2.464   6.720
 1183TIP3   OH225183   1.609   2.480   7.307
 1183TIP3    H125184   1.700   2.499   7.284
 1183TIP3    H225185   1.589   2.542   7.377
 1184TIP3   OH225186   1.595   2.567   7.567
 1184TIP3    H125187   1.517   2.600   7.612
 1184TIP3    H225188   1.658   2.638   7.575
 1185TIP3   OH225189   0.067   2.432   7.921
 1185TIP3    H125190   0.141   2.382   7.955
 1185TIP3    H225191   0.020   2.370   7.865
 1186TIP3   OH225192   1.850   1.983   8.079
 1186TIP3    H125193   1.909   1.909   8.066
 1186TIP3    H225194   1.874   2.045   8.011
 1187TIP3   OH225195   0.155   2.239   7.230
 1187TIP3    H125196   0.191   2.150   7.229
 1187TIP3    H225197   0.231   2.296   7.241
 1188TIP3   OH225198   0.005   2.612   7.347
 1188TIP3    H125199   0.072   2.585   7.284
 1188TIP3    H225200   0.013   2.707   7.351
 1189TIP3   OH225201   1.795   2.188   7.884
 1189TIP3    H125202   1.722   2.208   7.942
 1189TIP3    H225203   1.767   2.112   7.834
 1190TIP3   OH225204   0.136   2.216   6.732
 1190TIP3    H125205   0.057   2.162   6.734
 1190TIP3    H225206   0.125   2.272   6.655
 1191TIP3   OH225207   1.535   3.687   6.955
 1191TIP3    H125208   1.571   3.656   6.871
 1191TIP3    H225209   1.585   3.767   6.974
 1192TIP3   OH225210   7.355   2.006   7.580
 1192TIP3    H125211   7.296   1.932   7.596
 1192TIP3    H225212   7.310   2.058   7.513
 1193TIP3   OH225213   0.234   3.377   7.979
 1193TIP3    H125214   0.169   3.345   7.916
 1193TIP3    H225215   0.202   3.347   8.064
 1194TIP3   OH225216   0.562   3.471   7.613
 1194TIP3    H125217   0.527   3.554   7.581
 1194TIP3    H225218   0.655   3.474   7.592
 1195TIP3   OH225219   0.944   3.589   7.895
 1195TIP3    H125220   0.959   3.554   7.983
 1195TIP3    H225221   1.024   3.637   7.874
 1196TIP3   OH225222   1.177   3.725   7.843
 1196TIP3    H125223   1.243   3.673   7.798
 1196TIP3    H225224   1.220   3.754   7.924
 1197TIP3   OH225225   1.718   1.937   7.750
 1197TIP3    H125226   1.639   1.950   7.698
 1197TIP3    H225227   1.745   1.847   7.732
 1198TIP3   OH225228   0.264   3.768   7.620
 1198TIP3    H125229   0.182   3.804   7.587
 1198TIP3    H225230   0.279   3.813   7.703
 1199TIP3   OH225231   0.521   3.732   7.528
 1199TIP3    H125232   0.429   3.743   7.554
 1199TIP3    H225233   0.528   3.779   7.445
 1200TIP3   OH225234   0.977   3.712   7.438
 1200TIP3    H125235   0.925   3.750   7.367
 1200TIP3    H225236   0.985   3.783   7.502
 1201TIP3   OH225237   1.203   3.586   7.533
 1201TIP3    H125238   1.125   3.625   7.495
 1201TIP3    H225239   1.273   3.649   7.513
 1202TIP3   OH225240   1.444   3.740   7.527
 1202TIP3    H125241   1.469   3.831   7.512
 1202TIP3    H225242   1.484   3.691   7.456
 1203TIP3   OH225243   0.231   3.641   7.283
 1203TIP3    H125244   0.214   3.596   7.366
 1203TIP3    H225245   0.307   3.596   7.246
 1204TIP3   OH225246   0.444   3.509   7.179
 1204TIP3    H125247   0.430   3.418   7.206
 1204TIP3    H225248   0.533   3.529   7.209
 1205TIP3   OH225249   0.709   3.539   7.279
 1205TIP3    H125250   0.718   3.450   7.245
 1205TIP3    H225251   0.734   3.531   7.372
 1206TIP3   OH225252   1.021   2.093   7.170
 1206TIP3    H125253   0.957   2.024   7.187
 1206TIP3    H225254   1.096   2.047   7.133
 1207TIP3   OH225255   1.513   2.052   7.172
 1207TIP3    H125256   1.580   2.027   7.108
 1207TIP3    H225257   1.447   1.983   7.166
 1208TIP3   OH225258   1.706   2.055   6.963
 1208TIP3    H125259   1.760   1.977   6.953
 1208TIP3    H225260   1.768   2.126   6.974
 1209TIP3   OH225261   0.294   1.962   6.931
 1209TIP3    H125262   0.205   1.959   6.896
 1209TIP3    H225263   0.327   1.873   6.918
 1210TIP3   OH225264   0.177   1.909   6.480
 1210TIP3    H125265   0.230   1.988   6.480
 1210TIP3    H225266   0.087   1.941   6.473
 1211TIP3   OH225267   0.755   1.911   6.932
 1211TIP3    H125268   0.818   1.975   6.898
 1211TIP3    H225269   0.764   1.916   7.027
 1212TIP3   OH225270   1.238   1.954   7.055
 1212TIP3    H125271   1.304   1.922   6.993
 1212TIP3    H225272   1.210   1.877   7.103
 1213TIP3   OH225273   0.881   2.200   6.601
 1213TIP3    H125274   0.895   2.128   6.662
 1213TIP3    H225275   0.885   2.279   6.655
 1214TIP3   OH225276   1.668   3.623   6.716
 1214TIP3    H125277   1.600   3.563   6.686
 1214TIP3    H225278   1.677   3.686   6.645
 1215TIP3   OH225279   0.280   2.027   7.870
 1215TIP3    H125280   0.222   1.960   7.905
 1215TIP3    H225281   0.364   2.010   7.912
 1216TIP3   OH225282   0.489   1.951   8.034
 1216TIP3    H125283   0.576   1.927   8.003
 1216TIP3    H225284   0.458   1.874   8.081
 1217TIP3   OH225285   1.327   1.905   8.075
 1217TIP3    H125286   1.317   1.855   8.156
 1217TIP3    H225287   1.419   1.892   8.051
 1218TIP3   OH225288   1.605   3.508   7.935
 1218TIP3    H125289   1.540   3.502   7.865
 1218TIP3    H225290   1.596   3.598   7.968
 1219TIP3   OH225291   3.067   2.902   6.911
 1219TIP3    H125292   3.052   2.996   6.902
 1219TIP3    H225293   3.006   2.863   6.849
 1220TIP3   OH225294   2.953   2.818   7.304
 1220TIP3    H125295   2.978   2.778   7.387
 1220TIP3    H225296   2.913   2.747   7.254
 1221TIP3   OH225297   2.184   2.786   7.466
 1221TIP3    H125298   2.151   2.776   7.555
 1221TIP3    H225299   2.264   2.838   7.477
 1222TIP3   OH225300   3.337   3.135   7.127
 1222TIP3    H125301   3.296   3.060   7.171
 1222TIP3    H225302   3.357   3.197   7.197
 1223TIP3   OH225303   2.309   3.226   7.238
 1223TIP3    H125304   2.279   3.136   7.224
 1223TIP3    H225305   2.403   3.218   7.254
 1224TIP3   OH225306   1.972   2.579   6.779
 1224TIP3    H125307   1.934   2.661   6.813
 1224TIP3    H225308   1.910   2.551   6.711
 1225TIP3   OH225309   2.025   2.815   7.068
 1225TIP3    H125310   2.052   2.724   7.076
 1225TIP3    H225311   2.104   2.865   7.087
 1226TIP3   OH225312   3.042   3.623   7.166
 1226TIP3    H125313   3.093   3.559   7.115
 1226TIP3    H225314   3.009   3.573   7.241
 1227TIP3   OH225315   2.799   3.065   7.319
 1227TIP3    H125316   2.841   2.987   7.282
 1227TIP3    H225317   2.864   3.101   7.379
 1228TIP3   OH225318   3.656   2.248   7.392
 1228TIP3    H125319   3.690   2.279   7.476
 1228TIP3    H225320   3.733   2.242   7.335
 1229TIP3   OH225321   3.118   2.493   7.339
 1229TIP3    H125322   3.150   2.404   7.352
 1229TIP3    H225323   3.101   2.497   7.245
 1230TIP3   OH225324   2.454   2.307   7.072
 1230TIP3    H125325   2.470   2.387   7.021
 1230TIP3    H225326   2.419   2.245   7.009
 1231TIP3   OH225327   3.230   2.340   6.898
 1231TIP3    H125328   3.277   2.297   6.970
 1231TIP3    H225329   3.299   2.376   6.843
 1232TIP3   OH225330   2.095   2.549   7.112
 1232TIP3    H125331   2.153   2.499   7.169
 1232TIP3    H225332   2.115   2.517   7.024
 1233TIP3   OH225333   2.600   2.690   7.097
 1233TIP3    H125334   2.686   2.656   7.118
 1233TIP3    H225335   2.562   2.626   7.038
 1234TIP3   OH225336   3.728   2.375   7.635
 1234TIP3    H125337   3.656   2.437   7.627
 1234TIP3    H225338   3.744   2.368   7.729
 1235TIP3   OH225339   2.316   2.247   7.495
 1235TIP3    H125340   2.276   2.276   7.413
 1235TIP3    H225341   2.242   2.214   7.547
 1236TIP3   OH225342   3.012   3.154   6.815
 1236TIP3    H125343   3.022   3.162   6.720
 1236TIP3    H225344   2.978   3.239   6.843
 1237TIP3   OH225345   2.583   2.984   7.474
 1237TIP3    H125346   2.529   3.057   7.507
 1237TIP3    H225347   2.652   3.027   7.423
 1238TIP3   OH225348   3.378   2.257   7.114
 1238TIP3    H125349   3.376   2.168   7.150
 1238TIP3    H225350   3.470   2.283   7.120
 1239TIP3   OH225351   2.263   2.376   7.253
 1239TIP3    H125352   2.308   2.442   7.306
 1239TIP3    H225353   2.330   2.346   7.191
 1240TIP3   OH225354   2.427   3.190   7.576
 1240TIP3    H125355   2.435   3.284   7.562
 1240TIP3    H225356   2.336   3.178   7.605
 1241TIP3   OH225357   3.376   3.337   7.329
 1241TIP3    H125358   3.282   3.336   7.348
 1241TIP3    H225359   3.395   3.427   7.302
 1242TIP3   OH225360   3.410   2.140   7.490
 1242TIP3    H125361   3.337   2.174   7.439
 1242TIP3    H225362   3.488   2.165   7.440
 1243TIP3   OH225363   2.688   1.905   7.238
 1243TIP3    H125364   2.660   1.814   7.227
 1243TIP3    H225365   2.607   1.952   7.254
 1244TIP3   OH225366   3.185   3.493   6.968
 1244TIP3    H125367   3.220   3.406   6.947
 1244TIP3    H225368   3.179   3.537   6.883
 1245TIP3   OH225369   3.316   3.270   6.884
 1245TIP3    H125370   3.334   3.211   6.811
 1245TIP3    H225371   3.325   3.214   6.962
 1246TIP3   OH225372   3.482   3.135   7.686
 1246TIP3    H125373   3.469   3.083   7.607
 1246TIP3    H225374   3.496   3.224   7.654
 1247TIP3   OH225375   2.931   2.812   6.682
 1247TIP3    H125376   2.875   2.883   6.650
 1247TIP3    H225377   3.001   2.806   6.617
 1248TIP3   OH225378   3.658   2.803   7.491
 1248TIP3    H125379   3.619   2.880   7.448
 1248TIP3    H225380   3.739   2.787   7.442
 1249TIP3   OH225381   3.299   2.860   6.770
 1249TIP3    H125382   3.225   2.871   6.830
 1249TIP3    H225383   3.361   2.804   6.818
 1250TIP3   OH225384   3.252   2.736   7.675
 1250TIP3    H125385   3.223   2.772   7.759
 1250TIP3    H225386   3.172   2.730   7.623
 1251TIP3   OH225387   2.450   2.881   6.963
 1251TIP3    H125388   2.438   2.842   6.877
 1251TIP3    H225389   2.509   2.822   7.009
 1252TIP3   OH225390   2.589   3.241   7.225
 1252TIP3    H125391   2.587   3.250   7.130
 1252TIP3    H225392   2.666   3.186   7.242
 1253TIP3   OH225393   2.466   2.790   7.318
 1253TIP3    H125394   2.523   2.769   7.244
 1253TIP3    H225395   2.515   2.856   7.367
 1254TIP3   OH225396   3.116   3.338   7.405
 1254TIP3    H125397   3.097   3.413   7.461
 1254TIP3    H225398   3.068   3.265   7.445
 1255TIP3   OH225399   2.584   3.218   7.805
 1255TIP3    H125400   2.523   3.277   7.849
 1255TIP3    H225401   2.538   3.192   7.725
 1256TIP3   OH225402   3.166   2.779   6.537
 1256TIP3    H125403   3.228   2.824   6.594
 1256TIP3    H225404   3.181   2.817   6.450
 1257TIP3   OH225405   2.267   2.835   7.748
 1257TIP3    H125406   2.277   2.913   7.803
 1257TIP3    H225407   2.174   2.815   7.753
 1258TIP3   OH225408   2.934   3.417   6.841
 1258TIP3    H125409   2.976   3.454   6.919
 1258TIP3    H225410   2.886   3.491   6.803
 1259TIP3   OH225411   2.383   3.395   7.874
 1259TIP3    H125412   2.381   3.428   7.784
 1259TIP3    H225413   2.291   3.384   7.898
 1260TIP3   OH225414   2.340   2.800   6.686
 1260TIP3    H125415   2.323   2.883   6.643
 1260TIP3    H225416   2.260   2.780   6.735
 1261TIP3   OH225417   3.634   3.362   6.342
 1261TIP3    H125418   3.654   3.450   6.308
 1261TIP3    H225419   3.582   3.321   6.273
 1262TIP3   OH225420   1.946   3.048   7.618
 1262TIP3    H125421   1.897   3.075   7.540
 1262TIP3    H225422   1.954   2.953   7.609
 1263TIP3   OH225423   1.915   3.351   7.306
 1263TIP3    H125424   2.002   3.357   7.347
 1263TIP3    H225425   1.869   3.429   7.336
 1264TIP3   OH225426   3.740   3.404   7.897
 1264TIP3    H125427   3.724   3.309   7.901
 1264TIP3    H225428   3.658   3.443   7.926
 1265TIP3   OH225429   2.822   3.345   7.750
 1265TIP3    H125430   2.820   3.429   7.796
 1265TIP3    H225431   2.738   3.305   7.771
 1266TIP3   OH225432   2.879   3.665   6.712
 1266TIP3    H125433   2.821   3.625   6.647
 1266TIP3    H225434   2.834   3.746   6.738
 1267TIP3   OH225435   2.249   3.598   6.923
 1267TIP3    H125436   2.274   3.559   7.007
 1267TIP3    H225437   2.199   3.529   6.879
 1268TIP3   OH225438   3.182   3.647   6.422
 1268TIP3    H125439   3.255   3.597   6.386
 1268TIP3    H225440   3.190   3.635   6.517
 1269TIP3   OH225441   3.144   3.602   6.705
 1269TIP3    H125442   3.054   3.636   6.707
 1269TIP3    H225443   3.133   3.509   6.687
 1270TIP3   OH225444   3.436   2.504   7.903
 1270TIP3    H125445   3.354   2.505   7.853
 1270TIP3    H225446   3.460   2.412   7.908
 1271TIP3   OH225447   2.173   3.196   7.683
 1271TIP3    H125448   2.194   3.169   7.772
 1271TIP3    H225449   2.092   3.151   7.662
 1272TIP3   OH225450   2.433   2.019   7.303
 1272TIP3    H125451   2.356   2.005   7.248
 1272TIP3    H225452   2.413   2.098   7.353
 1273TIP3   OH225453   2.902   1.986   7.659
 1273TIP3    H125454   2.952   1.940   7.727
 1273TIP3    H225455   2.810   1.969   7.682
 1274TIP3   OH225456   3.215   2.436   7.747
 1274TIP3    H125457   3.146   2.397   7.800
 1274TIP3    H225458   3.172   2.506   7.698
 1275TIP3   OH225459   2.363   2.561   7.424
 1275TIP3    H125460   2.284   2.600   7.460
 1275TIP3    H225461   2.410   2.634   7.384
 1276TIP3   OH225462   2.453   2.535   6.916
 1276TIP3    H125463   2.361   2.515   6.903
 1276TIP3    H225464   2.494   2.519   6.831
 1277TIP3   OH225465   2.995   2.572   6.804
 1277TIP3    H125466   2.967   2.655   6.765
 1277TIP3    H225467   3.065   2.542   6.747
 1278TIP3   OH225468   2.912   2.572   7.924
 1278TIP3    H125469   2.861   2.506   7.971
 1278TIP3    H225470   2.996   2.575   7.970
 1279TIP3   OH225471   3.084   2.513   7.062
 1279TIP3    H125472   3.050   2.563   6.987
 1279TIP3    H225473   3.128   2.438   7.022
 1280TIP3   OH225474   2.181   2.513   7.649
 1280TIP3    H125475   2.120   2.584   7.673
 1280TIP3    H225476   2.132   2.433   7.666
 1281TIP3   OH225477   2.540   2.350   6.246
 1281TIP3    H125478   2.515   2.321   6.334
 1281TIP3    H225479   2.494   2.289   6.187
 1282TIP3   OH225480   1.911   2.236   6.979
 1282TIP3    H125481   1.936   2.247   7.071
 1282TIP3    H225482   1.992   2.213   6.934
 1283TIP3   OH225483   2.038   2.346   6.533
 1283TIP3    H125484   2.067   2.301   6.454
 1283TIP3    H225485   2.066   2.437   6.521
 1284TIP3   OH225486   3.028   2.665   7.527
 1284TIP3    H125487   3.066   2.608   7.460
 1284TIP3    H225488   2.964   2.609   7.572
 1285TIP3   OH225489   2.742   2.311   7.065
 1285TIP3    H125490   2.651   2.282   7.077
 1285TIP3    H225491   2.795   2.233   7.085
 1286TIP3   OH225492   2.196   2.446   6.869
 1286TIP3    H125493   2.117   2.477   6.825
 1286TIP3    H225494   2.209   2.357   6.836
 1287TIP3   OH225495   2.535   2.485   6.651
 1287TIP3    H125496   2.620   2.473   6.692
 1287TIP3    H225497   2.518   2.402   6.606
 1288TIP3   OH225498   3.167   2.223   7.380
 1288TIP3    H125499   3.104   2.220   7.451
 1288TIP3    H225500   3.128   2.167   7.312
 1289TIP3   OH225501   3.474   3.779   7.988
 1289TIP3    H125502   3.497   3.821   7.906
 1289TIP3    H225503   3.547   3.797   8.046
 1290TIP3   OH225504   2.246   3.048   7.922
 1290TIP3    H125505   2.311   3.046   7.992
 1290TIP3    H225506   2.162   3.050   7.968
 1291TIP3   OH225507   2.835   2.574   7.198
 1291TIP3    H125508   2.911   2.552   7.143
 1291TIP3    H225509   2.799   2.489   7.222
 1292TIP3   OH225510   2.334   2.158   6.871
 1292TIP3    H125511   2.267   2.090   6.879
 1292TIP3    H225512   2.417   2.109   6.866
 1293TIP3   OH225513   2.668   2.453   7.478
 1293TIP3    H125514   2.657   2.537   7.433
 1293TIP3    H225515   2.745   2.464   7.533
 1294TIP3   OH225516   2.759   3.033   6.614
 1294TIP3    H125517   2.699   3.084   6.559
 1294TIP3    H225518   2.725   3.044   6.703
 1295TIP3   OH225519   3.433   2.969   7.466
 1295TIP3    H125520   3.492   3.025   7.416
 1295TIP3    H225521   3.362   2.948   7.406
 1296TIP3   OH225522   3.092   2.315   6.471
 1296TIP3    H125523   3.039   2.354   6.401
 1296TIP3    H225524   3.136   2.390   6.513
 1297TIP3   OH225525   2.895   3.050   7.759
 1297TIP3    H125526   2.924   3.017   7.844
 1297TIP3    H225527   2.869   3.140   7.776
 1298TIP3   OH225528   3.202   2.517   6.621
 1298TIP3    H125529   3.293   2.505   6.651
 1298TIP3    H225530   3.201   2.606   6.585
 1299TIP3   OH225531   2.265   2.929   7.165
 1299TIP3    H125532   2.325   2.929   7.091
 1299TIP3    H225533   2.310   2.879   7.233
 1300TIP3   OH225534   2.967   3.203   6.540
 1300TIP3    H125535   2.919   3.286   6.541
 1300TIP3    H225536   2.902   3.137   6.562
 1301TIP3   OH225537   2.006   2.745   7.698
 1301TIP3    H125538   1.984   2.729   7.790
 1301TIP3    H225539   1.921   2.742   7.653
 1302TIP3   OH225540   2.716   2.777   7.923
 1302TIP3    H125541   2.695   2.786   7.830
 1302TIP3    H225542   2.796   2.725   7.925
 1303TIP3   OH225543   3.101   3.317   7.745
 1303TIP3    H125544   3.007   3.327   7.730
 1303TIP3    H225545   3.113   3.341   7.837
 1304TIP3   OH225546   3.631   2.549   6.566
 1304TIP3    H125547   3.614   2.515   6.478
 1304TIP3    H225548   3.663   2.638   6.551
 1305TIP3   OH225549   3.692   3.095   7.856
 1305TIP3    H125550   3.608   3.125   7.820
 1305TIP3    H225551   3.750   3.088   7.780
 1306TIP3   OH225552   3.556   3.351   6.607
 1306TIP3    H125553   3.486   3.285   6.612
 1306TIP3    H225554   3.584   3.349   6.516
 1307TIP3   OH225555   3.241   2.892   7.280
 1307TIP3    H125556   3.146   2.884   7.271
 1307TIP3    H225557   3.276   2.816   7.233
 1308TIP3   OH225558   2.524   3.306   6.962
 1308TIP3    H125559   2.550   3.395   6.937
 1308TIP3    H225560   2.429   3.306   6.954
 1309TIP3   OH225561   2.132   2.760   6.487
 1309TIP3    H125562   2.166   2.849   6.481
 1309TIP3    H225563   2.037   2.770   6.475
 1310TIP3   OH225564   2.612   3.075   6.838
 1310TIP3    H125565   2.598   3.163   6.872
 1310TIP3    H225566   2.560   3.019   6.895
 1311TIP3   OH225567   2.712   3.493   7.528
 1311TIP3    H125568   2.768   3.567   7.506
 1311TIP3    H225569   2.766   3.439   7.586
 1312TIP3   OH225570   2.531   3.570   6.898
 1312TIP3    H125571   2.442   3.595   6.872
 1312TIP3    H225572   2.577   3.653   6.906
 1313TIP3   OH225573   3.001   3.100   7.508
 1313TIP3    H125574   2.965   3.082   7.595
 1313TIP3    H225575   3.080   3.046   7.502
 1314TIP3   OH225576   3.223   3.176   6.432
 1314TIP3    H125577   3.282   3.150   6.503
 1314TIP3    H225578   3.139   3.191   6.475
 1315TIP3   OH225579   3.303   3.535   7.718
 1315TIP3    H125580   3.222   3.489   7.696
 1315TIP3    H225581   3.306   3.609   7.658
 1316TIP3   OH225582   2.103   2.246   7.685
 1316TIP3    H125583   2.008   2.256   7.683
 1316TIP3    H225584   2.117   2.167   7.737
 1317TIP3   OH225585   3.384   3.096   6.657
 1317TIP3    H125586   3.339   3.022   6.697
 1317TIP3    H225587   3.474   3.067   6.646
 1318TIP3   OH225588   2.108   3.471   7.514
 1318TIP3    H125589   2.138   3.395   7.564
 1318TIP3    H225590   2.121   3.545   7.574
 1319TIP3   OH225591   2.231   3.028   6.559
 1319TIP3    H125592   2.174   3.071   6.623
 1319TIP3    H225593   2.274   3.099   6.512
 1320TIP3   OH225594   3.002   2.233   7.609
 1320TIP3    H125595   3.041   2.242   7.696
 1320TIP3    H225596   2.959   2.148   7.611
 1321TIP3   OH225597   3.068   2.191   6.718
 1321TIP3    H125598   3.072   2.230   6.631
 1321TIP3    H225599   3.117   2.252   6.774
 1322TIP3   OH225600   2.755   2.431   6.810
 1322TIP3    H125601   2.841   2.473   6.805
 1322TIP3    H225602   2.756   2.387   6.896
 1323TIP3   OH225603   2.875   2.480   7.660
 1323TIP3    H125604   2.886   2.503   7.752
 1323TIP3    H225605   2.914   2.393   7.652
 1324TIP3   OH225606   2.853   2.068   6.837
 1324TIP3    H125607   2.873   2.080   6.930
 1324TIP3    H225608   2.928   2.107   6.791
 1325TIP3   OH225609   2.448   2.267   6.496
 1325TIP3    H125610   2.380   2.200   6.498
 1325TIP3    H225611   2.523   2.226   6.538
 1326TIP3   OH225612   3.435   2.268   7.734
 1326TIP3    H125613   3.348   2.306   7.740
 1326TIP3    H225614   3.431   2.211   7.657
 1327TIP3   OH225615   3.333   2.643   7.162
 1327TIP3    H125616   3.252   2.596   7.142
 1327TIP3    H225617   3.383   2.583   7.217
 1328TIP3   OH225618   2.328   3.270   6.453
 1328TIP3    H125619   2.387   3.327   6.503
 1328TIP3    H225620   2.270   3.331   6.407
 1329TIP3   OH225621   3.445   3.612   7.312
 1329TIP3    H125622   3.428   3.687   7.256
 1329TIP3    H225623   3.539   3.617   7.330
 1330TIP3   OH225624   2.174   1.996   7.196
 1330TIP3    H125625   2.161   1.980   7.103
 1330TIP3    H225626   2.151   1.913   7.239
 1331TIP3   OH225627   2.070   3.415   6.815
 1331TIP3    H125628   2.008   3.447   6.881
 1331TIP3    H225629   2.036   3.449   6.732
 1332TIP3   OH225630   2.032   3.684   7.991
 1332TIP3    H125631   2.096   3.667   8.060
 1332TIP3    H225632   1.994   3.599   7.970
 1333TIP3   OH225633   2.456   3.503   8.119
 1333TIP3    H125634   2.533   3.452   8.143
 1333TIP3    H225635   2.432   3.470   8.032
 1334TIP3   OH225636   3.115   3.371   8.014
 1334TIP3    H125637   3.092   3.287   8.054
 1334TIP3    H225638   3.192   3.400   8.063
 1335TIP3   OH225639   1.998   3.024   8.042
 1335TIP3    H125640   1.997   2.929   8.033
 1335TIP3    H225641   1.924   3.054   7.989
 1336TIP3   OH225642   2.657   3.046   8.009
 1336TIP3    H125643   2.641   3.092   7.927
 1336TIP3    H225644   2.690   2.960   7.982
 1337TIP3   OH225645   2.954   3.023   6.285
 1337TIP3    H125646   2.985   3.100   6.333
 1337TIP3    H225647   3.032   2.971   6.270
 1338TIP3   OH225648   3.226   3.067   7.759
 1338TIP3    H125649   3.315   3.096   7.743
 1338TIP3    H225650   3.173   3.147   7.750
 1339TIP3   OH225651   2.087   2.746   7.991
 1339TIP3    H125652   2.172   2.709   7.971
 1339TIP3    H225653   2.085   2.753   8.087
 1340TIP3   OH225654   2.558   2.937   6.406
 1340TIP3    H125655   2.572   2.922   6.499
 1340TIP3    H225656   2.627   2.886   6.363
 1341TIP3   OH225657   2.465   2.651   7.697
 1341TIP3    H125658   2.400   2.717   7.722
 1341TIP3    H225659   2.546   2.701   7.683
 1342TIP3   OH225660   2.996   2.892   8.034
 1342TIP3    H125661   3.084   2.864   8.012
 1342TIP3    H225662   2.967   2.831   8.102
 1343TIP3   OH225663   2.522   2.384   7.820
 1343TIP3    H125664   2.561   2.297   7.816
 1343TIP3    H225665   2.595   2.441   7.848
 1344TIP3   OH225666   2.573   2.217   7.580
 1344TIP3    H125667   2.621   2.283   7.530
 1344TIP3    H225668   2.488   2.210   7.535
 1345TIP3   OH225669   2.693   2.798   7.645
 1345TIP3    H125670   2.787   2.812   7.633
 1345TIP3    H225671   2.651   2.865   7.590
 1346TIP3   OH225672   3.132   2.543   8.097
 1346TIP3    H125673   3.135   2.465   8.152
 1346TIP3    H225674   3.221   2.577   8.099
 1347TIP3   OH225675   3.268   2.861   7.930
 1347TIP3    H125676   3.244   2.941   7.882
 1347TIP3    H225677   3.362   2.850   7.911
 1348TIP3   OH225678   2.351   2.484   8.031
 1348TIP3    H125679   2.277   2.423   8.030
 1348TIP3    H225680   2.397   2.468   7.949
 1349TIP3   OH225681   2.625   1.962   7.666
 1349TIP3    H125682   2.610   2.051   7.635
 1349TIP3    H225683   2.560   1.909   7.620
 1350TIP3   OH225684   2.787   2.362   8.049
 1350TIP3    H125685   2.829   2.337   8.132
 1350TIP3    H225686   2.694   2.346   8.064
 1351TIP3   OH225687   3.027   2.288   7.885
 1351TIP3    H125688   2.946   2.297   7.935
 1351TIP3    H225689   3.089   2.248   7.945
 1352TIP3   OH225690   3.204   2.183   8.071
 1352TIP3    H125691   3.200   2.088   8.083
 1352TIP3    H225692   3.178   2.219   8.156
 1353TIP3   OH225693   2.175   2.271   8.010
 1353TIP3    H125694   2.170   2.196   7.951
 1353TIP3    H225695   2.182   2.233   8.097
 1354TIP3   OH225696   2.632   1.898   7.932
 1354TIP3    H125697   2.686   1.819   7.930
 1354TIP3    H225698   2.622   1.923   7.840
 1355TIP3   OH225699   2.679   2.064   8.151
 1355TIP3    H125700   2.672   2.004   8.076
 1355TIP3    H225701   2.622   2.137   8.128
 1356TIP3   OH225702   1.868   3.728   6.889
 1356TIP3    H125703   1.816   3.687   6.820
 1356TIP3    H225704   1.896   3.656   6.944
 1357TIP3   OH225705   1.948   3.521   7.058
 1357TIP3    H125706   1.911   3.447   7.106
 1357TIP3    H225707   2.002   3.566   7.122
 1358TIP3   OH225708   3.708   3.653   7.376
 1358TIP3    H125709   3.706   3.645   7.472
 1358TIP3    H225710   3.800   3.673   7.356
 1359TIP3   OH225711   3.662   3.593   7.656
 1359TIP3    H125712   3.610   3.519   7.626
 1359TIP3    H225713   3.715   3.559   7.727
 1360TIP3   OH225714   3.494   3.158   8.164
 1360TIP3    H125715   3.416   3.172   8.218
 1360TIP3    H225716   3.547   3.236   8.177
 1361TIP3   OH225717   3.643   2.993   6.675
 1361TIP3    H125718   3.688   3.068   6.714
 1361TIP3    H225719   3.665   2.919   6.732
 1362TIP3   OH225720   3.718   2.788   6.851
 1362TIP3    H125721   3.635   2.754   6.883
 1362TIP3    H225722   3.771   2.800   6.931
 1363TIP3   OH225723   3.676   3.083   7.379
 1363TIP3    H125724   3.741   3.023   7.341
 1363TIP3    H225725   3.702   3.170   7.348
 1364TIP3   OH225726   3.494   3.385   7.579
 1364TIP3    H125727   3.421   3.430   7.623
 1364TIP3    H225728   3.462   3.368   7.490
 1365TIP3   OH225729   3.761   2.805   6.493
 1365TIP3    H125730   3.725   2.793   6.405
 1365TIP3    H225731   3.708   2.875   6.531
 1366TIP3   OH225732   3.463   2.679   6.914
 1366TIP3    H125733   3.457   2.592   6.875
 1366TIP3    H225734   3.424   2.670   7.001
 1367TIP3   OH225735   1.947   2.822   7.331
 1367TIP3    H125736   1.961   2.833   7.237
 1367TIP3    H225737   2.035   2.818   7.368
 1368TIP3   OH225738   3.542   2.849   7.835
 1368TIP3    H125739   3.593   2.783   7.881
 1368TIP3    H225740   3.592   2.930   7.846
 1369TIP3   OH225741   3.661   2.639   7.961
 1369TIP3    H125742   3.582   2.591   7.935
 1369TIP3    H225743   3.732   2.575   7.953
 1370TIP3   OH225744   3.452   2.439   6.747
 1370TIP3    H125745   3.479   2.347   6.752
 1370TIP3    H225746   3.515   2.479   6.687
 1371TIP3   OH225747   3.515   2.478   7.314
 1371TIP3    H125748   3.597   2.523   7.294
 1371TIP3    H225749   3.541   2.387   7.327
 1372TIP3   OH225750   3.491   2.543   7.581
 1372TIP3    H125751   3.435   2.474   7.619
 1372TIP3    H225752   3.493   2.523   7.488
 1373TIP3   OH225753   1.946   2.412   7.975
 1373TIP3    H125754   2.033   2.376   7.987
 1373TIP3    H225755   1.890   2.336   7.957
 1374TIP3   OH225756   3.724   1.966   8.078
 1374TIP3    H125757   3.796   1.904   8.067
 1374TIP3    H225758   3.740   2.034   8.013
 1375TIP3   OH225759   3.516   2.167   6.765
 1375TIP3    H125760   3.531   2.119   6.846
 1375TIP3    H225761   3.444   2.120   6.723
 1376TIP3   OH225762   2.031   2.229   7.232
 1376TIP3    H125763   2.070   2.142   7.227
 1376TIP3    H225764   2.105   2.289   7.238
 1377TIP3   OH225765   1.872   2.556   7.287
 1377TIP3    H125766   1.937   2.537   7.220
 1377TIP3    H225767   1.891   2.645   7.315
 1378TIP3   OH225768   3.671   2.174   7.901
 1378TIP3    H125769   3.599   2.201   7.958
 1378TIP3    H225770   3.628   2.128   7.829
 1379TIP3   OH225771   3.449   3.604   6.963
 1379TIP3    H125772   3.479   3.580   6.875
 1379TIP3    H225773   3.371   3.550   6.976
 1380TIP3   OH225774   1.909   2.022   7.559
 1380TIP3    H125775   1.841   1.990   7.619
 1380TIP3    H225776   1.862   2.080   7.499
 1381TIP3   OH225777   2.121   3.365   7.970
 1381TIP3    H125778   2.034   3.379   7.934
 1381TIP3    H225779   2.106   3.338   8.061
 1382TIP3   OH225780   2.448   3.467   7.603
 1382TIP3    H125781   2.417   3.554   7.577
 1382TIP3    H225782   2.542   3.469   7.585
 1383TIP3   OH225783   2.832   3.589   7.882
 1383TIP3    H125784   2.843   3.559   7.972
 1383TIP3    H225785   2.912   3.638   7.864
 1384TIP3   OH225786   3.069   3.727   7.849
 1384TIP3    H125787   3.141   3.677   7.811
 1384TIP3    H225788   3.104   3.761   7.932
 1385TIP3   OH225789   3.573   1.948   7.724
 1385TIP3    H125790   3.496   1.951   7.667
 1385TIP3    H225791   3.611   1.861   7.710
 1386TIP3   OH225792   2.144   3.750   7.620
 1386TIP3    H125793   2.066   3.791   7.583
 1386TIP3    H225794   2.157   3.796   7.703
 1387TIP3   OH225795   2.405   3.732   7.532
 1387TIP3    H125796   2.314   3.742   7.557
 1387TIP3    H225797   2.413   3.778   7.449
 1388TIP3   OH225798   2.859   3.711   7.437
 1388TIP3    H125799   2.807   3.749   7.367
 1388TIP3    H225800   2.873   3.783   7.499
 1389TIP3   OH225801   3.086   3.583   7.528
 1389TIP3    H125802   3.007   3.628   7.498
 1389TIP3    H225803   3.155   3.649   7.519
 1390TIP3   OH225804   3.322   3.734   7.526
 1390TIP3    H125805   3.348   3.825   7.515
 1390TIP3    H225806   3.365   3.688   7.454
 1391TIP3   OH225807   2.107   3.621   7.279
 1391TIP3    H125808   2.105   3.577   7.364
 1391TIP3    H225809   2.185   3.586   7.235
 1392TIP3   OH225810   2.322   3.494   7.171
 1392TIP3    H125811   2.311   3.402   7.196
 1392TIP3    H225812   2.410   3.516   7.200
 1393TIP3   OH225813   2.584   3.520   7.279
 1393TIP3    H125814   2.593   3.430   7.250
 1393TIP3    H225815   2.617   3.520   7.369
 1394TIP3   OH225816   2.888   2.076   7.115
 1394TIP3    H125817   2.835   2.009   7.157
 1394TIP3    H225818   2.975   2.036   7.106
 1395TIP3   OH225819   3.392   1.982   7.179
 1395TIP3    H125820   3.459   1.988   7.111
 1395TIP3    H225821   3.311   1.963   7.131
 1396TIP3   OH225822   3.593   2.032   6.998
 1396TIP3    H125823   3.657   1.970   6.964
 1396TIP3    H225824   3.644   2.109   7.021
 1397TIP3   OH225825   2.127   1.969   6.919
 1397TIP3    H125826   2.038   1.939   6.900
 1397TIP3    H225827   2.180   1.889   6.914
 1398TIP3   OH225828   2.579   2.027   6.911
 1398TIP3    H125829   2.663   2.046   6.871
 1398TIP3    H225830   2.592   1.943   6.956
 1399TIP3   OH225831   3.137   1.953   7.057
 1399TIP3    H125832   3.169   1.925   6.971
 1399TIP3    H225833   3.111   1.872   7.100
 1400TIP3   OH225834   3.295   2.030   6.686
 1400TIP3    H125835   3.213   2.079   6.688
 1400TIP3    H225836   3.269   1.939   6.696
 1401TIP3   OH225837   1.960   3.506   6.576
 1401TIP3    H125838   1.949   3.502   6.481
 1401TIP3    H225839   1.985   3.597   6.594
 1402TIP3   OH225840   2.672   2.190   6.621
 1402TIP3    H125841   2.699   2.105   6.586
 1402TIP3    H225842   2.738   2.212   6.686
 1403TIP3   OH225843   3.594   3.595   6.726
 1403TIP3    H125844   3.584   3.509   6.684
 1403TIP3    H225845   3.578   3.658   6.656
 1404TIP3   OH225846   2.152   2.022   7.874
 1404TIP3    H125847   2.094   1.952   7.905
 1404TIP3    H225848   2.236   2.004   7.915
 1405TIP3   OH225849   2.366   1.946   8.031
 1405TIP3    H125850   2.455   1.922   8.004
 1405TIP3    H225851   2.333   1.870   8.078
 1406TIP3   OH225852   2.220   3.486   6.337
 1406TIP3    H125853   2.145   3.537   6.305
 1406TIP3    H225854   2.277   3.551   6.379
 1407TIP3   OH225855   3.212   1.903   8.082
 1407TIP3    H125856   3.202   1.862   8.167
 1407TIP3    H225857   3.304   1.891   8.060
 1408TIP3   OH225858   3.484   3.509   7.933
 1408TIP3    H125859   3.420   3.506   7.861
 1408TIP3    H225860   3.484   3.601   7.960
 1409TIP3   OH225861   4.968   2.910   6.899
 1409TIP3    H125862   4.958   3.005   6.898
 1409TIP3    H225863   4.900   2.878   6.840
 1410TIP3   OH225864   4.838   2.820   7.305
 1410TIP3    H125865   4.866   2.777   7.386
 1410TIP3    H225866   4.794   2.751   7.256
 1411TIP3   OH225867   4.059   2.754   7.442
 1411TIP3    H125868   4.062   2.682   7.505
 1411TIP3    H225869   4.151   2.769   7.417
 1412TIP3   OH225870   5.227   3.131   7.133
 1412TIP3    H125871   5.188   3.056   7.179
 1412TIP3    H225872   5.244   3.195   7.202
 1413TIP3   OH225873   4.182   3.228   7.237
 1413TIP3    H125874   4.156   3.138   7.215
 1413TIP3    H225875   4.276   3.222   7.254
 1414TIP3   OH225876   3.879   2.581   6.701
 1414TIP3    H125877   3.845   2.657   6.747
 1414TIP3    H225878   3.801   2.533   6.672
 1415TIP3   OH225879   3.916   2.807   7.059
 1415TIP3    H125880   3.943   2.717   7.078
 1415TIP3    H225881   3.994   2.860   7.075
 1416TIP3   OH225882   4.959   3.610   7.163
 1416TIP3    H125883   4.999   3.554   7.097
 1416TIP3    H225884   4.929   3.548   7.231
 1417TIP3   OH225885   4.678   3.066   7.326
 1417TIP3    H125886   4.719   2.989   7.286
 1417TIP3    H225887   4.745   3.101   7.385
 1418TIP3   OH225888   5.569   2.213   7.407
 1418TIP3    H125889   5.583   2.281   7.473
 1418TIP3    H225890   5.631   2.234   7.338
 1419TIP3   OH225891   5.001   2.489   7.330
 1419TIP3    H125892   5.024   2.397   7.341
 1419TIP3    H225893   4.982   2.497   7.236
 1420TIP3   OH225894   4.336   2.311   7.065
 1420TIP3    H125895   4.354   2.389   7.013
 1420TIP3    H225896   4.293   2.251   7.004
 1421TIP3   OH225897   5.102   2.333   6.903
 1421TIP3    H125898   5.144   2.295   6.980
 1421TIP3    H225899   5.175   2.363   6.849
 1422TIP3   OH225900   3.992   2.548   7.118
 1422TIP3    H125901   4.053   2.503   7.178
 1422TIP3    H225902   4.014   2.513   7.032
 1423TIP3   OH225903   4.457   2.687   7.114
 1423TIP3    H125904   4.544   2.656   7.138
 1423TIP3    H225905   4.427   2.626   7.047
 1424TIP3   OH225906   5.594   2.369   7.639
 1424TIP3    H125907   5.532   2.438   7.614
 1424TIP3    H225908   5.551   2.323   7.711
 1425TIP3   OH225909   4.208   2.214   7.479
 1425TIP3    H125910   4.180   2.273   7.409
 1425TIP3    H225911   4.138   2.220   7.544
 1426TIP3   OH225912   4.931   3.176   6.826
 1426TIP3    H125913   4.907   3.167   6.733
 1426TIP3    H225914   4.880   3.251   6.856
 1427TIP3   OH225915   4.464   2.977   7.478
 1427TIP3    H125916   4.413   3.051   7.512
 1427TIP3    H225917   4.535   3.018   7.428
 1428TIP3   OH225918   5.227   2.283   7.141
 1428TIP3    H125919   5.179   2.232   7.206
 1428TIP3    H225920   5.284   2.340   7.193
 1429TIP3   OH225921   4.167   2.390   7.268
 1429TIP3    H125922   4.223   2.444   7.323
 1429TIP3    H225923   4.226   2.355   7.201
 1430TIP3   OH225924   4.312   3.190   7.579
 1430TIP3    H125925   4.321   3.284   7.565
 1430TIP3    H225926   4.221   3.178   7.605
 1431TIP3   OH225927   5.258   3.330   7.336
 1431TIP3    H125928   5.164   3.331   7.351
 1431TIP3    H225929   5.280   3.420   7.311
 1432TIP3   OH225930   5.308   2.129   7.497
 1432TIP3    H125931   5.236   2.166   7.445
 1432TIP3    H225932   5.387   2.151   7.448
 1433TIP3   OH225933   4.567   1.908   7.228
 1433TIP3    H125934   4.542   1.815   7.228
 1433TIP3    H225935   4.487   1.954   7.253
 1434TIP3   OH225936   5.088   3.479   6.953
 1434TIP3    H125937   5.124   3.393   6.933
 1434TIP3    H225938   5.164   3.537   6.953
 1435TIP3   OH225939   5.197   3.236   6.877
 1435TIP3    H125940   5.110   3.202   6.855
 1435TIP3    H225941   5.219   3.193   6.960
 1436TIP3   OH225942   5.377   3.109   7.694
 1436TIP3    H125943   5.365   3.054   7.616
 1436TIP3    H225944   5.385   3.198   7.659
 1437TIP3   OH225945   4.826   2.820   6.677
 1437TIP3    H125946   4.752   2.877   6.657
 1437TIP3    H225947   4.886   2.834   6.604
 1438TIP3   OH225948   5.542   2.782   7.517
 1438TIP3    H125949   5.468   2.842   7.507
 1438TIP3    H225950   5.601   2.806   7.445
 1439TIP3   OH225951   5.160   2.783   6.753
 1439TIP3    H125952   5.100   2.829   6.811
 1439TIP3    H225953   5.237   2.765   6.807
 1440TIP3   OH225954   5.146   2.643   7.696
 1440TIP3    H125955   5.140   2.712   7.762
 1440TIP3    H225956   5.079   2.666   7.631
 1441TIP3   OH225957   4.337   2.895   6.972
 1441TIP3    H125958   4.303   2.857   6.891
 1441TIP3    H225959   4.389   2.825   7.012
 1442TIP3   OH225960   4.467   3.242   7.226
 1442TIP3    H125961   4.475   3.253   7.131
 1442TIP3    H225962   4.542   3.188   7.250
 1443TIP3   OH225963   4.318   2.796   7.330
 1443TIP3    H125964   4.372   2.770   7.255
 1443TIP3    H225965   4.372   2.859   7.378
 1444TIP3   OH225966   4.995   3.339   7.402
 1444TIP3    H125967   4.980   3.411   7.463
 1444TIP3    H225968   4.952   3.264   7.444
 1445TIP3   OH225969   4.475   3.225   7.805
 1445TIP3    H125970   4.414   3.282   7.850
 1445TIP3    H225971   4.428   3.195   7.727
 1446TIP3   OH225972   5.052   2.825   6.501
 1446TIP3    H125973   5.097   2.817   6.585
 1446TIP3    H225974   5.056   2.737   6.464
 1447TIP3   OH225975   4.157   2.830   7.767
 1447TIP3    H125976   4.161   2.914   7.814
 1447TIP3    H225977   4.072   2.832   7.723
 1448TIP3   OH225978   4.821   3.425   6.888
 1448TIP3    H125979   4.908   3.453   6.918
 1448TIP3    H225980   4.789   3.498   6.835
 1449TIP3   OH225981   4.270   3.400   7.870
 1449TIP3    H125982   4.268   3.429   7.779
 1449TIP3    H225983   4.178   3.389   7.893
 1450TIP3   OH225984   5.413   1.928   6.539
 1450TIP3    H125985   5.329   1.950   6.580
 1450TIP3    H225986   5.395   1.928   6.445
 1451TIP3   OH225987   4.204   2.800   6.748
 1451TIP3    H125988   4.170   2.861   6.683
 1451TIP3    H225989   4.128   2.747   6.772
 1452TIP3   OH225990   3.831   3.044   7.627
 1452TIP3    H125991   3.785   3.047   7.544
 1452TIP3    H225992   3.843   2.950   7.645
 1453TIP3   OH225993   3.846   3.315   7.305
 1453TIP3    H125994   3.934   3.280   7.291
 1453TIP3    H225995   3.855   3.373   7.381
 1454TIP3   OH225996   5.648   3.414   7.889
 1454TIP3    H125997   5.634   3.320   7.877
 1454TIP3    H225998   5.562   3.449   7.911
 1455TIP3   OH225999   4.710   3.352   7.741
 1455TIP3    H126000   4.714   3.435   7.788
 1455TIP3    H226001   4.628   3.312   7.769
 1456TIP3   OH226002   4.774   3.676   6.750
 1456TIP3    H126003   4.719   3.663   6.673
 1456TIP3    H226004   4.756   3.766   6.777
 1457TIP3   OH226005   4.111   3.578   6.940
 1457TIP3    H126006   4.159   3.557   7.020
 1457TIP3    H226007   4.024   3.540   6.954
 1458TIP3   OH226008   5.049   3.662   6.726
 1458TIP3    H126009   4.953   3.659   6.721
 1458TIP3    H226010   5.074   3.581   6.771
 1459TIP3   OH226011   5.322   2.522   7.905
 1459TIP3    H126012   5.265   2.554   7.835
 1459TIP3    H226013   5.327   2.427   7.892
 1460TIP3   OH226014   4.053   3.203   7.679
 1460TIP3    H126015   4.077   3.176   7.768
 1460TIP3    H226016   3.976   3.152   7.658
 1461TIP3   OH226017   4.314   2.020   7.307
 1461TIP3    H126018   4.238   2.010   7.249
 1461TIP3    H226019   4.290   2.091   7.366
 1462TIP3   OH226020   4.791   1.996   7.658
 1462TIP3    H126021   4.839   1.945   7.723
 1462TIP3    H226022   4.699   1.980   7.678
 1463TIP3   OH226023   5.088   2.374   7.734
 1463TIP3    H126024   5.023   2.362   7.803
 1463TIP3    H226025   5.090   2.469   7.718
 1464TIP3   OH226026   4.330   2.541   7.434
 1464TIP3    H126027   4.320   2.561   7.527
 1464TIP3    H226028   4.329   2.626   7.391
 1465TIP3   OH226029   4.336   2.539   6.909
 1465TIP3    H126030   4.243   2.521   6.896
 1465TIP3    H226031   4.373   2.539   6.820
 1466TIP3   OH226032   4.865   2.575   6.797
 1466TIP3    H126033   4.842   2.660   6.761
 1466TIP3    H226034   4.935   2.542   6.740
 1467TIP3   OH226035   4.805   2.584   7.929
 1467TIP3    H126036   4.750   2.512   7.960
 1467TIP3    H226037   4.889   2.570   7.973
 1468TIP3   OH226038   4.963   2.517   7.058
 1468TIP3    H126039   4.920   2.566   6.987
 1468TIP3    H226040   5.004   2.443   7.014
 1469TIP3   OH226041   4.061   2.544   7.626
 1469TIP3    H126042   4.144   2.554   7.673
 1469TIP3    H226043   4.038   2.452   7.640
 1470TIP3   OH226044   4.375   2.423   6.387
 1470TIP3    H126045   4.324   2.342   6.384
 1470TIP3    H226046   4.425   2.422   6.305
 1471TIP3   OH226047   3.735   2.259   7.035
 1471TIP3    H126048   3.809   2.264   7.096
 1471TIP3    H226049   3.776   2.268   6.949
 1472TIP3   OH226050   4.920   2.660   7.523
 1472TIP3    H126051   4.955   2.603   7.455
 1472TIP3    H226052   4.857   2.606   7.570
 1473TIP3   OH226053   4.634   2.268   7.020
 1473TIP3    H126054   4.546   2.264   7.055
 1473TIP3    H226055   4.688   2.222   7.083
 1474TIP3   OH226056   4.072   2.448   6.874
 1474TIP3    H126057   4.002   2.462   6.811
 1474TIP3    H226058   4.099   2.357   6.860
 1475TIP3   OH226059   4.417   2.514   6.643
 1475TIP3    H126060   4.499   2.477   6.677
 1475TIP3    H226061   4.407   2.475   6.556
 1476TIP3   OH226062   5.036   2.210   7.351
 1476TIP3    H126063   4.983   2.218   7.430
 1476TIP3    H226064   4.979   2.163   7.289
 1477TIP3   OH226065   5.365   3.776   7.988
 1477TIP3    H126066   5.383   3.818   7.904
 1477TIP3    H226067   5.440   3.799   8.043
 1478TIP3   OH226068   4.119   3.059   7.921
 1478TIP3    H126069   4.188   3.058   7.987
 1478TIP3    H226070   4.038   3.063   7.971
 1479TIP3   OH226071   4.701   2.582   7.209
 1479TIP3    H126072   4.766   2.534   7.159
 1479TIP3    H226073   4.673   2.521   7.277
 1480TIP3   OH226074   4.185   2.187   6.860
 1480TIP3    H126075   4.135   2.107   6.878
 1480TIP3    H226076   4.252   2.161   6.798
 1481TIP3   OH226077   4.592   2.438   7.427
 1481TIP3    H126078   4.505   2.478   7.434
 1481TIP3    H226079   4.637   2.464   7.507
 1482TIP3   OH226080   4.622   2.995   6.615
 1482TIP3    H126081   4.545   2.966   6.566
 1482TIP3    H226082   4.587   3.032   6.696
 1483TIP3   OH226083   5.344   2.966   7.461
 1483TIP3    H126084   5.402   3.022   7.410
 1483TIP3    H226085   5.270   2.949   7.402
 1484TIP3   OH226086   4.997   2.327   6.493
 1484TIP3    H126087   4.928   2.349   6.430
 1484TIP3    H226088   5.028   2.412   6.525
 1485TIP3   OH226089   4.782   3.080   7.771
 1485TIP3    H126090   4.802   3.077   7.864
 1485TIP3    H226091   4.751   3.169   7.755
 1486TIP3   OH226092   5.101   2.544   6.634
 1486TIP3    H126093   5.175   2.490   6.661
 1486TIP3    H226094   5.117   2.629   6.675
 1487TIP3   OH226095   4.146   2.949   7.160
 1487TIP3    H126096   4.210   2.945   7.088
 1487TIP3    H226097   4.187   2.899   7.231
 1488TIP3   OH226098   4.848   3.152   6.564
 1488TIP3    H126099   4.820   3.242   6.546
 1488TIP3    H226100   4.766   3.102   6.569
 1489TIP3   OH226101   3.873   2.789   7.734
 1489TIP3    H126102   3.891   2.774   7.826
 1489TIP3    H226103   3.876   2.702   7.694
 1490TIP3   OH226104   4.599   2.767   7.924
 1490TIP3    H126105   4.574   2.774   7.832
 1490TIP3    H226106   4.677   2.712   7.925
 1491TIP3   OH226107   4.996   3.320   7.729
 1491TIP3    H126108   4.901   3.331   7.722
 1491TIP3    H226109   5.016   3.339   7.821
 1492TIP3   OH226110   5.602   3.138   7.849
 1492TIP3    H126111   5.511   3.137   7.820
 1492TIP3    H226112   5.653   3.116   7.770
 1493TIP3   OH226113   5.397   3.399   6.619
 1493TIP3    H126114   5.374   3.341   6.691
 1493TIP3    H226115   5.319   3.399   6.563
 1494TIP3   OH226116   5.131   2.900   7.281
 1494TIP3    H126117   5.036   2.892   7.276
 1494TIP3    H226118   5.164   2.822   7.236
 1495TIP3   OH226119   4.430   3.324   6.961
 1495TIP3    H126120   4.477   3.396   6.919
 1495TIP3    H226121   4.337   3.348   6.951
 1496TIP3   OH226122   4.498   3.081   6.842
 1496TIP3    H126123   4.487   3.167   6.882
 1496TIP3    H226124   4.445   3.023   6.896
 1497TIP3   OH226125   4.596   3.495   7.525
 1497TIP3    H126126   4.654   3.568   7.505
 1497TIP3    H226127   4.647   3.439   7.583
 1498TIP3   OH226128   4.388   3.586   6.835
 1498TIP3    H126129   4.297   3.607   6.856
 1498TIP3    H226130   4.438   3.660   6.869
 1499TIP3   OH226131   4.887   3.097   7.510
 1499TIP3    H126132   4.856   3.083   7.600
 1499TIP3    H226133   4.962   3.038   7.501
 1500TIP3   OH226134   5.198   3.529   7.711
 1500TIP3    H126135   5.116   3.482   7.694
 1500TIP3    H226136   5.195   3.603   7.650
 1501TIP3   OH226137   4.000   2.263   7.661
 1501TIP3    H126138   3.909   2.271   7.634
 1501TIP3    H226139   4.003   2.184   7.715
 1502TIP3   OH226140   3.976   3.468   7.524
 1502TIP3    H126141   4.009   3.392   7.572
 1502TIP3    H226142   3.994   3.542   7.582
 1503TIP3   OH226143   4.084   2.943   6.543
 1503TIP3    H126144   3.998   2.936   6.501
 1503TIP3    H226145   4.146   2.947   6.471
 1504TIP3   OH226146   4.888   2.243   7.586
 1504TIP3    H126147   4.961   2.260   7.646
 1504TIP3    H226148   4.853   2.159   7.614
 1505TIP3   OH226149   4.967   2.167   6.716
 1505TIP3    H126150   4.971   2.214   6.632
 1505TIP3    H226151   5.008   2.227   6.778
 1506TIP3   OH226152   4.713   3.401   6.532
 1506TIP3    H126153   4.621   3.427   6.523
 1506TIP3    H226154   4.755   3.433   6.453
 1507TIP3   OH226155   4.638   2.411   6.781
 1507TIP3    H126156   4.717   2.466   6.783
 1507TIP3    H226157   4.637   2.366   6.865
 1508TIP3   OH226158   4.753   2.484   7.654
 1508TIP3    H126159   4.767   2.499   7.748
 1508TIP3    H226160   4.791   2.398   7.638
 1509TIP3   OH226161   4.737   2.061   6.825
 1509TIP3    H126162   4.722   2.129   6.890
 1509TIP3    H226163   4.819   2.086   6.782
 1510TIP3   OH226164   4.447   3.529   6.565
 1510TIP3    H126165   4.479   3.613   6.534
 1510TIP3    H226166   4.433   3.542   6.659
 1511TIP3   OH226167   5.335   2.267   7.743
 1511TIP3    H126168   5.245   2.299   7.744
 1511TIP3    H226169   5.340   2.212   7.665
 1512TIP3   OH226170   5.207   2.652   7.160
 1512TIP3    H126171   5.123   2.611   7.138
 1512TIP3    H226172   5.251   2.588   7.215
 1513TIP3   OH226173   5.336   3.598   7.318
 1513TIP3    H126174   5.319   3.666   7.253
 1513TIP3    H226175   5.432   3.598   7.327
 1514TIP3   OH226176   4.052   1.997   7.198
 1514TIP3    H126177   4.049   1.985   7.103
 1514TIP3    H226178   4.024   1.913   7.235
 1515TIP3   OH226179   3.922   3.687   7.992
 1515TIP3    H126180   3.985   3.672   8.062
 1515TIP3    H226181   3.894   3.599   7.966
 1516TIP3   OH226182   4.342   3.511   8.113
 1516TIP3    H126183   4.414   3.454   8.141
 1516TIP3    H226184   4.318   3.478   8.026
 1517TIP3   OH226185   5.054   3.378   7.988
 1517TIP3    H126186   5.000   3.346   8.059
 1517TIP3    H226187   5.128   3.421   8.031
 1518TIP3   OH226188   3.873   3.019   8.048
 1518TIP3    H126189   3.893   2.928   8.026
 1518TIP3    H226190   3.805   3.045   7.986
 1519TIP3   OH226191   4.517   3.030   8.002
 1519TIP3    H126192   4.524   3.087   7.926
 1519TIP3    H226193   4.558   2.948   7.975
 1520TIP3   OH226194   5.110   3.062   7.758
 1520TIP3    H126195   5.201   3.089   7.740
 1520TIP3    H226196   5.059   3.141   7.746
 1521TIP3   OH226197   3.974   2.762   7.990
 1521TIP3    H126198   4.063   2.750   7.956
 1521TIP3    H226199   3.985   2.758   8.085
 1522TIP3   OH226200   4.394   2.849   6.516
 1522TIP3    H126201   4.380   2.796   6.594
 1522TIP3    H226202   4.439   2.790   6.455
 1523TIP3   OH226203   4.332   2.635   7.694
 1523TIP3    H126204   4.275   2.704   7.728
 1523TIP3    H226205   4.416   2.678   7.681
 1524TIP3   OH226206   4.930   2.883   8.090
 1524TIP3    H126207   4.954   2.842   8.007
 1524TIP3    H226208   4.875   2.818   8.134
 1525TIP3   OH226209   4.418   2.402   7.822
 1525TIP3    H126210   4.432   2.336   7.755
 1525TIP3    H226211   4.395   2.481   7.774
 1526TIP3   OH226212   4.455   2.241   7.595
 1526TIP3    H126213   4.512   2.277   7.527
 1526TIP3    H226214   4.370   2.231   7.552
 1527TIP3   OH226215   4.561   2.776   7.645
 1527TIP3    H126216   4.654   2.768   7.620
 1527TIP3    H226217   4.529   2.850   7.593
 1528TIP3   OH226218   5.029   2.534   8.100
 1528TIP3    H126219   5.023   2.458   8.157
 1528TIP3    H226220   5.118   2.530   8.063
 1529TIP3   OH226221   5.154   2.831   7.895
 1529TIP3    H126222   5.125   2.912   7.853
 1529TIP3    H226223   5.249   2.842   7.905
 1530TIP3   OH226224   4.252   2.459   8.044
 1530TIP3    H126225   4.174   2.406   8.027
 1530TIP3    H226226   4.306   2.449   7.965
 1531TIP3   OH226227   4.511   1.974   7.662
 1531TIP3    H126228   4.491   2.065   7.640
 1531TIP3    H226229   4.443   1.924   7.618
 1532TIP3   OH226230   4.638   2.376   7.993
 1532TIP3    H126231   4.595   2.351   8.075
 1532TIP3    H226232   4.567   2.381   7.929
 1533TIP3   OH226233   4.902   2.302   7.914
 1533TIP3    H126234   4.815   2.301   7.954
 1533TIP3    H226235   4.957   2.252   7.974
 1534TIP3   OH226236   5.098   2.184   8.083
 1534TIP3    H126237   5.087   2.089   8.087
 1534TIP3    H226238   5.064   2.215   8.167
 1535TIP3   OH226239   4.044   2.276   8.004
 1535TIP3    H126240   4.047   2.203   7.942
 1535TIP3    H226241   4.052   2.234   8.090
 1536TIP3   OH226242   4.512   1.904   7.927
 1536TIP3    H126243   4.565   1.824   7.924
 1536TIP3    H226244   4.505   1.931   7.835
 1537TIP3   OH226245   4.576   2.065   8.142
 1537TIP3    H126246   4.561   2.009   8.066
 1537TIP3    H226247   4.519   2.140   8.127
 1538TIP3   OH226248   4.530   3.788   6.485
 1538TIP3    H126249   4.558   3.875   6.513
 1538TIP3    H226250   4.474   3.803   6.409
 1539TIP3   OH226251   3.767   3.701   6.912
 1539TIP3    H126252   3.727   3.666   6.832
 1539TIP3    H226253   3.806   3.625   6.954
 1540TIP3   OH226254   3.863   3.507   7.079
 1540TIP3    H126255   3.824   3.429   7.118
 1540TIP3    H226256   3.900   3.556   7.153
 1541TIP3   OH226257   5.606   3.606   7.384
 1541TIP3    H126258   5.594   3.603   7.479
 1541TIP3    H226259   5.664   3.680   7.369
 1542TIP3   OH226260   5.549   3.577   7.653
 1542TIP3    H126261   5.494   3.502   7.630
 1542TIP3    H226262   5.600   3.547   7.728
 1543TIP3   OH226263   5.381   3.201   8.136
 1543TIP3    H126264   5.314   3.249   8.088
 1543TIP3    H226265   5.443   3.268   8.164
 1544TIP3   OH226266   5.586   2.944   6.606
 1544TIP3    H126267   5.650   3.014   6.613
 1544TIP3    H226268   5.591   2.898   6.690
 1545TIP3   OH226269   5.599   2.770   6.842
 1545TIP3    H126270   5.511   2.752   6.876
 1545TIP3    H226271   5.650   2.796   6.918
 1546TIP3   OH226272   5.581   3.096   7.380
 1546TIP3    H126273   5.632   3.030   7.334
 1546TIP3    H226274   5.606   3.179   7.339
 1547TIP3   OH226275   5.380   3.363   7.586
 1547TIP3    H126276   5.309   3.413   7.626
 1547TIP3    H226277   5.351   3.347   7.496
 1548TIP3   OH226278   5.351   2.670   6.924
 1548TIP3    H126279   5.333   2.581   6.894
 1548TIP3    H226280   5.309   2.676   7.010
 1549TIP3   OH226281   3.857   2.889   7.318
 1549TIP3    H126282   3.865   2.863   7.226
 1549TIP3    H226283   3.935   2.853   7.360
 1550TIP3   OH226284   5.430   2.862   7.910
 1550TIP3    H126285   5.488   2.787   7.894
 1550TIP3    H226286   5.450   2.923   7.840
 1551TIP3   OH226287   5.576   2.630   7.883
 1551TIP3    H126288   5.492   2.586   7.882
 1551TIP3    H226289   5.637   2.565   7.919
 1552TIP3   OH226290   5.444   2.265   6.315
 1552TIP3    H126291   5.438   2.269   6.220
 1552TIP3    H226292   5.354   2.247   6.344
 1553TIP3   OH226293   5.329   2.434   6.756
 1553TIP3    H126294   5.337   2.339   6.761
 1553TIP3    H226295   5.414   2.463   6.723
 1554TIP3   OH226296   5.364   2.465   7.303
 1554TIP3    H126297   5.457   2.477   7.282
 1554TIP3    H226298   5.358   2.481   7.397
 1555TIP3   OH226299   5.392   2.554   7.569
 1555TIP3    H126300   5.309   2.585   7.606
 1555TIP3    H226301   5.443   2.634   7.554
 1556TIP3   OH226302   3.813   2.407   7.923
 1556TIP3    H126303   3.903   2.381   7.945
 1556TIP3    H226304   3.763   2.325   7.929
 1557TIP3   OH226305   5.610   1.984   8.083
 1557TIP3    H126306   5.675   1.916   8.064
 1557TIP3    H226307   5.623   2.050   8.015
 1558TIP3   OH226308   5.343   2.169   6.783
 1558TIP3    H126309   5.385   2.124   6.856
 1558TIP3    H226310   5.290   2.101   6.740
 1559TIP3   OH226311   3.919   2.237   7.249
 1559TIP3    H126312   3.958   2.150   7.238
 1559TIP3    H226313   3.994   2.296   7.259
 1560TIP3   OH226314   3.774   2.562   7.294
 1560TIP3    H126315   3.835   2.553   7.220
 1560TIP3    H226316   3.831   2.563   7.372
 1561TIP3   OH226317   5.564   2.176   7.888
 1561TIP3    H126318   5.483   2.209   7.928
 1561TIP3    H226319   5.535   2.112   7.824
 1562TIP3   OH226320   3.789   2.236   6.756
 1562TIP3    H126321   3.696   2.215   6.747
 1562TIP3    H226322   3.833   2.176   6.697
 1563TIP3   OH226323   5.306   3.638   6.932
 1563TIP3    H126324   5.362   3.663   6.858
 1563TIP3    H226325   5.322   3.706   6.997
 1564TIP3   OH226326   3.801   2.038   7.574
 1564TIP3    H126327   3.730   2.018   7.635
 1564TIP3    H226328   3.761   2.033   7.487
 1565TIP3   OH226329   4.011   3.376   7.968
 1565TIP3    H126330   3.917   3.380   7.947
 1565TIP3    H226331   4.014   3.349   8.060
 1566TIP3   OH226332   4.331   3.468   7.598
 1566TIP3    H126333   4.302   3.557   7.576
 1566TIP3    H226334   4.425   3.469   7.582
 1567TIP3   OH226335   4.721   3.594   7.874
 1567TIP3    H126336   4.727   3.564   7.965
 1567TIP3    H226337   4.802   3.641   7.859
 1568TIP3   OH226338   4.958   3.731   7.845
 1568TIP3    H126339   5.026   3.675   7.806
 1568TIP3    H226340   4.996   3.760   7.929
 1569TIP3   OH226341   5.461   1.947   7.727
 1569TIP3    H126342   5.382   1.952   7.673
 1569TIP3    H226343   5.493   1.857   7.714
 1570TIP3   OH226344   4.026   3.749   7.621
 1570TIP3    H126345   3.951   3.795   7.585
 1570TIP3    H226346   4.043   3.792   7.705
 1571TIP3   OH226347   4.289   3.734   7.533
 1571TIP3    H126348   4.197   3.744   7.557
 1571TIP3    H226349   4.297   3.782   7.450
 1572TIP3   OH226350   4.746   3.712   7.440
 1572TIP3    H126351   4.700   3.752   7.366
 1572TIP3    H226352   4.759   3.785   7.501
 1573TIP3   OH226353   4.974   3.585   7.530
 1573TIP3    H126354   4.895   3.627   7.496
 1573TIP3    H226355   5.043   3.649   7.515
 1574TIP3   OH226356   5.212   3.734   7.522
 1574TIP3    H126357   5.237   3.826   7.509
 1574TIP3    H226358   5.253   3.687   7.450
 1575TIP3   OH226359   3.995   3.624   7.293
 1575TIP3    H126360   3.988   3.580   7.378
 1575TIP3    H226361   4.076   3.591   7.255
 1576TIP3   OH226362   4.211   3.498   7.182
 1576TIP3    H126363   4.198   3.406   7.203
 1576TIP3    H226364   4.299   3.518   7.215
 1577TIP3   OH226365   4.471   3.522   7.279
 1577TIP3    H126366   4.482   3.432   7.249
 1577TIP3    H226367   4.506   3.522   7.368
 1578TIP3   OH226368   4.796   2.091   7.162
 1578TIP3    H126369   4.737   2.018   7.181
 1578TIP3    H226370   4.873   2.050   7.123
 1579TIP3   OH226371   5.306   1.947   7.168
 1579TIP3    H126372   5.363   2.001   7.114
 1579TIP3    H226373   5.218   1.967   7.137
 1580TIP3   OH226374   5.489   2.057   6.990
 1580TIP3    H126375   5.548   1.988   6.960
 1580TIP3    H226376   5.545   2.135   6.996
 1581TIP3   OH226377   4.030   1.954   6.923
 1581TIP3    H126378   3.939   1.933   6.901
 1581TIP3    H226379   4.076   1.870   6.918
 1582TIP3   OH226380   4.511   1.936   6.947
 1582TIP3    H126381   4.588   1.968   6.900
 1582TIP3    H226382   4.542   1.921   7.036
 1583TIP3   OH226383   5.039   1.976   7.072
 1583TIP3    H126384   5.059   1.958   6.980
 1583TIP3    H226385   5.012   1.891   7.107
 1584TIP3   OH226386   5.175   1.983   6.670
 1584TIP3    H126387   5.097   2.038   6.668
 1584TIP3    H226388   5.142   1.894   6.681
 1585TIP3   OH226389   4.522   2.174   6.679
 1585TIP3    H126390   4.590   2.114   6.710
 1585TIP3    H226391   4.561   2.261   6.687
 1586TIP3   OH226392   5.483   3.650   6.697
 1586TIP3    H126393   5.453   3.563   6.671
 1586TIP3    H226394   5.462   3.706   6.623
 1587TIP3   OH226395   4.044   2.022   7.867
 1587TIP3    H126396   3.988   1.955   7.906
 1587TIP3    H226397   4.130   2.007   7.907
 1588TIP3   OH226398   4.255   1.955   8.033
 1588TIP3    H126399   4.341   1.931   7.997
 1588TIP3    H226400   4.227   1.877   8.082
 1589TIP3   OH226401   5.097   1.903   8.076
 1589TIP3    H126402   5.087   1.854   8.157
 1589TIP3    H226403   5.189   1.894   8.053
 1590TIP3   OH226404   5.395   3.514   7.908
 1590TIP3    H126405   5.324   3.503   7.846
 1590TIP3    H226406   5.384   3.603   7.942
 1591TIP3   OH226407   6.845   2.920   6.904
 1591TIP3    H126408   6.827   3.013   6.895
 1591TIP3    H226409   6.781   2.877   6.847
 1592TIP3   OH226410   6.712   2.820   7.300
 1592TIP3    H126411   6.737   2.777   7.382
 1592TIP3    H226412   6.668   2.752   7.250
 1593TIP3   OH226413   5.944   2.754   7.433
 1593TIP3    H126414   5.953   2.683   7.497
 1593TIP3    H226415   6.034   2.773   7.407
 1594TIP3   OH226416   7.095   3.135   7.144
 1594TIP3    H126417   7.061   3.056   7.187
 1594TIP3    H226418   7.115   3.195   7.217
 1595TIP3   OH226419   6.086   3.239   7.247
 1595TIP3    H126420   6.053   3.152   7.228
 1595TIP3    H226421   6.180   3.226   7.263
 1596TIP3   OH226422   5.705   2.515   6.779
 1596TIP3    H126423   5.679   2.606   6.789
 1596TIP3    H226424   5.665   2.470   6.853
 1597TIP3   OH226425   5.781   2.802   7.057
 1597TIP3    H126426   5.813   2.715   7.080
 1597TIP3    H226427   5.860   2.853   7.038
 1598TIP3   OH226428   6.825   3.599   7.164
 1598TIP3    H126429   6.861   3.539   7.099
 1598TIP3    H226430   6.754   3.550   7.205
 1599TIP3   OH226431   6.566   3.073   7.314
 1599TIP3    H126432   6.595   2.992   7.272
 1599TIP3    H226433   6.640   3.098   7.371
 1600TIP3   OH226434   6.889   2.487   7.335
 1600TIP3    H126435   6.897   2.393   7.348
 1600TIP3    H226436   6.867   2.497   7.243
 1601TIP3   OH226437   6.224   2.300   7.066
 1601TIP3    H126438   6.234   2.385   7.024
 1601TIP3    H226439   6.176   2.248   7.002
 1602TIP3   OH226440   6.996   2.336   6.910
 1602TIP3    H126441   7.042   2.277   6.970
 1602TIP3    H226442   7.062   2.359   6.844
 1603TIP3   OH226443   5.867   2.549   7.133
 1603TIP3    H126444   5.931   2.511   7.194
 1603TIP3    H226445   5.892   2.514   7.048
 1604TIP3   OH226446   6.347   2.700   7.123
 1604TIP3    H126447   6.433   2.664   7.143
 1604TIP3    H226448   6.309   2.638   7.061
 1605TIP3   OH226449   6.085   2.217   7.483
 1605TIP3    H126450   6.063   2.275   7.411
 1605TIP3    H226451   6.013   2.227   7.545
 1606TIP3   OH226452   6.814   3.182   6.816
 1606TIP3    H126453   6.800   3.175   6.721
 1606TIP3    H226454   6.753   3.250   6.844
 1607TIP3   OH226455   6.352   2.987   7.467
 1607TIP3    H126456   6.300   3.059   7.503
 1607TIP3    H226457   6.421   3.030   7.417
 1608TIP3   OH226458   7.104   2.210   7.132
 1608TIP3    H126459   7.026   2.188   7.183
 1608TIP3    H226460   7.155   2.268   7.189
 1609TIP3   OH226461   6.055   2.387   7.267
 1609TIP3    H126462   6.113   2.443   7.319
 1609TIP3    H226463   6.112   2.350   7.199
 1610TIP3   OH226464   6.202   3.194   7.573
 1610TIP3    H126465   6.213   3.288   7.561
 1610TIP3    H226466   6.110   3.183   7.595
 1611TIP3   OH226467   5.795   3.164   6.597
 1611TIP3    H126468   5.810   3.199   6.509
 1611TIP3    H226469   5.803   3.240   6.654
 1612TIP3   OH226470   7.110   3.339   7.346
 1612TIP3    H126471   7.018   3.354   7.367
 1612TIP3    H226472   7.143   3.426   7.321
 1613TIP3   OH226473   7.144   2.140   7.447
 1613TIP3    H126474   7.052   2.156   7.425
 1613TIP3    H226475   7.190   2.216   7.411
 1614TIP3   OH226476   6.449   1.912   7.227
 1614TIP3    H126477   6.425   1.819   7.226
 1614TIP3    H226478   6.370   1.957   7.257
 1615TIP3   OH226479   6.941   3.470   6.950
 1615TIP3    H126480   6.980   3.383   6.936
 1615TIP3    H226481   7.016   3.528   6.959
 1616TIP3   OH226482   7.078   3.241   6.891
 1616TIP3    H126483   7.000   3.198   6.856
 1616TIP3    H226484   7.096   3.196   6.973
 1617TIP3   OH226485   7.231   3.082   7.709
 1617TIP3    H126486   7.227   3.034   7.626
 1617TIP3    H226487   7.259   3.170   7.684
 1618TIP3   OH226488   6.705   2.813   6.687
 1618TIP3    H126489   6.639   2.875   6.654
 1618TIP3    H226490   6.770   2.807   6.617
 1619TIP3   OH226491   7.074   2.871   6.760
 1619TIP3    H126492   7.000   2.891   6.818
 1619TIP3    H226493   7.124   2.805   6.807
 1620TIP3   OH226494   7.005   2.651   7.705
 1620TIP3    H126495   6.991   2.715   7.774
 1620TIP3    H226496   6.939   2.671   7.639
 1621TIP3   OH226497   6.222   2.906   6.977
 1621TIP3    H126498   6.180   2.866   6.901
 1621TIP3    H226499   6.274   2.835   7.016
 1622TIP3   OH226500   6.372   3.262   7.227
 1622TIP3    H126501   6.363   3.266   7.132
 1622TIP3    H226502   6.440   3.197   7.242
 1623TIP3   OH226503   6.204   2.795   7.339
 1623TIP3    H126504   6.257   2.768   7.263
 1623TIP3    H226505   6.258   2.860   7.384
 1624TIP3   OH226506   6.852   3.362   7.449
 1624TIP3    H126507   6.869   3.362   7.543
 1624TIP3    H226508   6.825   3.272   7.429
 1625TIP3   OH226509   6.353   3.214   7.805
 1625TIP3    H126510   6.292   3.274   7.848
 1625TIP3    H226511   6.308   3.187   7.725
 1626TIP3   OH226512   6.940   2.772   6.538
 1626TIP3    H126513   6.991   2.808   6.611
 1626TIP3    H226514   6.982   2.807   6.460
 1627TIP3   OH226515   6.021   2.807   7.770
 1627TIP3    H126516   6.031   2.895   7.807
 1627TIP3    H226517   5.934   2.807   7.732
 1628TIP3   OH226518   6.681   3.426   6.871
 1628TIP3    H126519   6.768   3.448   6.903
 1628TIP3    H226520   6.652   3.504   6.825
 1629TIP3   OH226521   6.156   3.397   7.867
 1629TIP3    H126522   6.146   3.426   7.776
 1629TIP3    H226523   6.067   3.382   7.898
 1630TIP3   OH226524   7.249   1.984   6.461
 1630TIP3    H126525   7.179   1.983   6.527
 1630TIP3    H226526   7.204   1.966   6.379
 1631TIP3   OH226527   6.097   2.793   6.760
 1631TIP3    H126528   6.059   2.862   6.706
 1631TIP3    H226529   6.127   2.727   6.698
 1632TIP3   OH226530   5.725   3.057   7.620
 1632TIP3    H126531   5.673   3.066   7.540
 1632TIP3    H226532   5.737   2.963   7.630
 1633TIP3   OH226533   5.692   3.350   7.299
 1633TIP3    H126534   5.775   3.351   7.347
 1633TIP3    H226535   5.647   3.429   7.328
 1634TIP3   OH226536   6.593   3.335   7.757
 1634TIP3    H126537   6.594   3.417   7.806
 1634TIP3    H226538   6.510   3.294   7.780
 1635TIP3   OH226539   6.674   3.690   6.737
 1635TIP3    H126540   6.658   3.693   6.643
 1635TIP3    H226541   6.644   3.775   6.769
 1636TIP3   OH226542   5.978   3.571   6.923
 1636TIP3    H126543   6.034   3.545   6.996
 1636TIP3    H226544   5.889   3.562   6.958
 1637TIP3   OH226545   6.960   3.632   6.427
 1637TIP3    H126546   7.008   3.566   6.376
 1637TIP3    H226547   6.975   3.608   6.518
 1638TIP3   OH226548   6.939   3.623   6.703
 1638TIP3    H126549   6.845   3.636   6.719
 1638TIP3    H226550   6.964   3.554   6.765
 1639TIP3   OH226551   7.165   2.557   7.962
 1639TIP3    H126552   7.140   2.589   7.875
 1639TIP3    H226553   7.250   2.515   7.949
 1640TIP3   OH226554   5.946   3.211   7.678
 1640TIP3    H126555   5.970   3.175   7.764
 1640TIP3    H226556   5.869   3.161   7.652
 1641TIP3   OH226557   6.198   2.019   7.316
 1641TIP3    H126558   6.124   2.011   7.256
 1641TIP3    H226559   6.174   2.090   7.375
 1642TIP3   OH226560   6.677   1.995   7.657
 1642TIP3    H126561   6.723   1.946   7.725
 1642TIP3    H226562   6.584   1.984   7.678
 1643TIP3   OH226563   7.010   2.372   7.739
 1643TIP3    H126564   6.942   2.357   7.805
 1643TIP3    H226565   7.006   2.466   7.721
 1644TIP3   OH226566   6.213   2.536   7.440
 1644TIP3    H126567   6.147   2.536   7.509
 1644TIP3    H226568   6.217   2.627   7.411
 1645TIP3   OH226569   6.213   2.543   6.942
 1645TIP3    H126570   6.118   2.542   6.928
 1645TIP3    H226571   6.250   2.532   6.854
 1646TIP3   OH226572   6.757   2.579   6.817
 1646TIP3    H126573   6.731   2.662   6.778
 1646TIP3    H226574   6.826   2.546   6.760
 1647TIP3   OH226575   6.679   2.586   7.919
 1647TIP3    H126576   6.631   2.512   7.956
 1647TIP3    H226577   6.765   2.582   7.960
 1648TIP3   OH226578   6.854   2.513   7.065
 1648TIP3    H126579   6.810   2.561   6.995
 1648TIP3    H226580   6.898   2.441   7.020
 1649TIP3   OH226581   5.996   2.539   7.609
 1649TIP3    H126582   6.006   2.578   7.696
 1649TIP3    H226583   5.951   2.456   7.626
 1650TIP3   OH226584   5.690   2.255   6.988
 1650TIP3    H126585   5.714   2.265   7.080
 1650TIP3    H226586   5.764   2.210   6.948
 1651TIP3   OH226587   6.790   2.664   7.518
 1651TIP3    H126588   6.831   2.606   7.454
 1651TIP3    H226589   6.730   2.607   7.567
 1652TIP3   OH226590   6.517   2.270   7.037
 1652TIP3    H126591   6.426   2.268   7.067
 1652TIP3    H226592   6.566   2.225   7.105
 1653TIP3   OH226593   5.953   2.447   6.895
 1653TIP3    H126594   5.882   2.466   6.834
 1653TIP3    H226595   5.987   2.361   6.867
 1654TIP3   OH226596   6.290   2.474   6.690
 1654TIP3    H126597   6.377   2.449   6.723
 1654TIP3    H226598   6.302   2.480   6.595
 1655TIP3   OH226599   6.885   2.206   7.345
 1655TIP3    H126600   6.844   2.218   7.431
 1655TIP3    H226601   6.816   2.169   7.291
 1656TIP3   OH226602   7.239   3.808   7.964
 1656TIP3    H126603   7.241   3.885   7.907
 1656TIP3    H226604   7.331   3.784   7.975
 1657TIP3   OH226605   6.013   3.051   7.911
 1657TIP3    H126606   6.081   3.049   7.979
 1657TIP3    H226607   5.931   3.060   7.960
 1658TIP3   OH226608   6.585   2.580   7.211
 1658TIP3    H126609   6.646   2.527   7.160
 1658TIP3    H226610   6.554   2.521   7.280
 1659TIP3   OH226611   6.062   2.188   6.853
 1659TIP3    H126612   6.014   2.109   6.877
 1659TIP3    H226613   6.137   2.157   6.802
 1660TIP3   OH226614   6.474   2.438   7.432
 1660TIP3    H126615   6.389   2.481   7.440
 1660TIP3    H226616   6.522   2.465   7.511
 1661TIP3   OH226617   6.528   3.014   6.620
 1661TIP3    H126618   6.459   3.051   6.565
 1661TIP3    H226619   6.498   3.028   6.709
 1662TIP3   OH226620   7.201   2.961   7.463
 1662TIP3    H126621   7.274   2.938   7.406
 1662TIP3    H226622   7.123   2.945   7.409
 1663TIP3   OH226623   6.679   3.060   7.733
 1663TIP3    H126624   6.701   3.015   7.815
 1663TIP3    H226625   6.646   3.146   7.761
 1664TIP3   OH226626   6.952   2.501   6.641
 1664TIP3    H126627   7.043   2.471   6.646
 1664TIP3    H226628   6.954   2.574   6.580
 1665TIP3   OH226629   6.046   2.972   7.176
 1665TIP3    H126630   6.102   2.961   7.099
 1665TIP3    H226631   6.080   2.909   7.240
 1666TIP3   OH226632   6.741   3.180   6.547
 1666TIP3    H126633   6.696   3.264   6.537
 1666TIP3    H226634   6.670   3.117   6.562
 1667TIP3   OH226635   5.744   2.791   7.712
 1667TIP3    H126636   5.719   2.747   7.794
 1667TIP3    H226637   5.677   2.763   7.649
 1668TIP3   OH226638   6.459   2.763   7.946
 1668TIP3    H126639   6.397   2.727   7.882
 1668TIP3    H226640   6.542   2.721   7.925
 1669TIP3   OH226641   6.869   3.356   7.723
 1669TIP3    H126642   6.774   3.341   7.723
 1669TIP3    H226643   6.892   3.363   7.816
 1670TIP3   OH226644   7.226   3.375   6.695
 1670TIP3    H126645   7.178   3.336   6.768
 1670TIP3    H226646   7.214   3.313   6.623
 1671TIP3   OH226647   6.991   2.900   7.284
 1671TIP3    H126648   6.897   2.887   7.272
 1671TIP3    H226649   7.031   2.826   7.238
 1672TIP3   OH226650   6.303   3.316   6.958
 1672TIP3    H126651   6.320   3.402   6.921
 1672TIP3    H226652   6.217   3.291   6.923
 1673TIP3   OH226653   6.418   3.074   6.865
 1673TIP3    H126654   6.394   3.162   6.894
 1673TIP3    H226655   6.350   3.017   6.902
 1674TIP3   OH226656   6.517   3.507   7.550
 1674TIP3    H126657   6.537   3.485   7.460
 1674TIP3    H226658   6.553   3.435   7.601
 1675TIP3   OH226659   6.265   3.576   6.838
 1675TIP3    H126660   6.173   3.599   6.852
 1675TIP3    H226661   6.313   3.654   6.866
 1676TIP3   OH226662   6.787   3.093   7.481
 1676TIP3    H126663   6.752   3.070   7.567
 1676TIP3    H226664   6.851   3.024   7.463
 1677TIP3   OH226665   7.000   3.222   6.444
 1677TIP3    H126666   7.058   3.168   6.498
 1677TIP3    H226667   6.912   3.202   6.477
 1678TIP3   OH226668   7.096   3.529   7.704
 1678TIP3    H126669   7.014   3.481   7.694
 1678TIP3    H226670   7.088   3.602   7.642
 1679TIP3   OH226671   5.866   2.289   7.652
 1679TIP3    H126672   5.776   2.320   7.642
 1679TIP3    H226673   5.858   2.209   7.704
 1680TIP3   OH226674   7.175   3.089   6.611
 1680TIP3    H126675   7.146   3.016   6.666
 1680TIP3    H226676   7.270   3.093   6.626
 1681TIP3   OH226677   5.882   3.463   7.511
 1681TIP3    H126678   5.905   3.386   7.563
 1681TIP3    H226679   5.886   3.536   7.573
 1682TIP3   OH226680   6.371   3.231   6.546
 1682TIP3    H126681   6.437   3.287   6.588
 1682TIP3    H226682   6.308   3.291   6.509
 1683TIP3   OH226683   5.997   2.971   6.581
 1683TIP3    H126684   5.928   3.037   6.582
 1683TIP3    H226685   6.035   2.977   6.494
 1684TIP3   OH226686   6.783   2.243   7.596
 1684TIP3    H126687   6.850   2.259   7.662
 1684TIP3    H226688   6.743   2.160   7.623
 1685TIP3   OH226689   6.836   2.192   6.711
 1685TIP3    H126690   6.796   2.240   6.638
 1685TIP3    H226691   6.879   2.258   6.764
 1686TIP3   OH226692   6.608   3.422   6.531
 1686TIP3    H126693   6.521   3.459   6.549
 1686TIP3    H226694   6.661   3.498   6.506
 1687TIP3   OH226695   6.529   2.426   6.809
 1687TIP3    H126696   6.610   2.477   6.811
 1687TIP3    H226697   6.531   2.374   6.889
 1688TIP3   OH226698   6.638   2.482   7.656
 1688TIP3    H126699   6.651   2.508   7.747
 1688TIP3    H226700   6.681   2.397   7.648
 1689TIP3   OH226701   6.631   2.073   6.862
 1689TIP3    H126702   6.596   2.150   6.906
 1689TIP3    H226703   6.700   2.106   6.805
 1690TIP3   OH226704   6.362   3.529   6.582
 1690TIP3    H126705   6.305   3.586   6.529
 1690TIP3    H226706   6.332   3.542   6.672
 1691TIP3   OH226707   7.269   2.263   7.744
 1691TIP3    H126708   7.182   2.303   7.746
 1691TIP3    H226709   7.259   2.188   7.684
 1692TIP3   OH226710   7.078   2.658   7.163
 1692TIP3    H126711   6.997   2.616   7.136
 1692TIP3    H226712   7.112   2.603   7.234
 1693TIP3   OH226713   7.221   3.599   7.317
 1693TIP3    H126714   7.215   3.672   7.255
 1693TIP3    H226715   7.306   3.560   7.298
 1694TIP3   OH226716   5.946   2.001   7.192
 1694TIP3    H126717   5.937   1.987   7.098
 1694TIP3    H226718   5.916   1.919   7.231
 1695TIP3   OH226719   5.804   3.417   6.746
 1695TIP3    H126720   5.748   3.407   6.823
 1695TIP3    H226721   5.884   3.457   6.779
 1696TIP3   OH226722   5.796   3.673   8.008
 1696TIP3    H126723   5.859   3.653   8.076
 1696TIP3    H226724   5.763   3.588   7.979
 1697TIP3   OH226725   6.228   3.505   8.113
 1697TIP3    H126726   6.301   3.449   8.138
 1697TIP3    H226727   6.204   3.475   8.025
 1698TIP3   OH226728   6.884   3.379   7.994
 1698TIP3    H126729   6.859   3.295   8.034
 1698TIP3    H226730   6.955   3.411   8.050
 1699TIP3   OH226731   7.088   3.429   6.289
 1699TIP3    H126732   7.059   3.352   6.338
 1699TIP3    H226733   7.055   3.414   6.200
 1700TIP3   OH226734   5.765   3.035   8.045
 1700TIP3    H126735   5.778   2.942   8.028
 1700TIP3    H226736   5.706   3.065   7.976
 1701TIP3   OH226737   6.424   3.042   8.011
 1701TIP3    H126738   6.411   3.087   7.927
 1701TIP3    H226739   6.453   2.954   7.987
 1702TIP3   OH226740   6.971   3.035   7.772
 1702TIP3    H126741   7.062   3.057   7.753
 1702TIP3    H226742   6.921   3.109   7.736
 1703TIP3   OH226743   5.849   2.776   8.002
 1703TIP3    H126744   5.926   2.758   7.948
 1703TIP3    H226745   5.876   2.753   8.091
 1704TIP3   OH226746   6.259   2.657   7.756
 1704TIP3    H126747   6.184   2.716   7.756
 1704TIP3    H226748   6.320   2.694   7.692
 1705TIP3   OH226749   6.757   2.893   8.044
 1705TIP3    H126750   6.840   2.858   8.009
 1705TIP3    H226751   6.729   2.828   8.108
 1706TIP3   OH226752   6.312   2.398   7.829
 1706TIP3    H126753   6.319   2.339   7.754
 1706TIP3    H226754   6.298   2.484   7.791
 1707TIP3   OH226755   6.337   2.240   7.595
 1707TIP3    H126756   6.391   2.285   7.529
 1707TIP3    H226757   6.250   2.235   7.555
 1708TIP3   OH226758   6.451   2.768   7.601
 1708TIP3    H126759   6.547   2.771   7.598
 1708TIP3    H226760   6.424   2.848   7.557
 1709TIP3   OH226761   6.907   2.537   8.084
 1709TIP3    H126762   6.914   2.458   8.138
 1709TIP3    H226763   6.995   2.547   8.047
 1710TIP3   OH226764   7.005   2.827   7.936
 1710TIP3    H126765   6.983   2.904   7.883
 1710TIP3    H226766   7.101   2.824   7.935
 1711TIP3   OH226767   6.146   2.459   8.051
 1711TIP3    H126768   6.068   2.406   8.034
 1711TIP3    H226769   6.197   2.453   7.969
 1712TIP3   OH226770   6.397   1.975   7.662
 1712TIP3    H126771   6.377   2.066   7.641
 1712TIP3    H226772   6.328   1.924   7.618
 1713TIP3   OH226773   6.535   2.365   7.992
 1713TIP3    H126774   6.492   2.339   8.074
 1713TIP3    H226775   6.464   2.371   7.928
 1714TIP3   OH226776   6.797   2.299   7.896
 1714TIP3    H126777   6.711   2.306   7.937
 1714TIP3    H226778   6.851   2.254   7.961
 1715TIP3   OH226779   6.974   2.180   8.077
 1715TIP3    H126780   6.962   2.085   8.084
 1715TIP3    H226781   6.938   2.214   8.159
 1716TIP3   OH226782   5.948   2.267   7.995
 1716TIP3    H126783   5.946   2.193   7.933
 1716TIP3    H226784   5.953   2.226   8.081
 1717TIP3   OH226785   6.396   1.897   7.926
 1717TIP3    H126786   6.453   1.820   7.920
 1717TIP3    H226787   6.391   1.930   7.836
 1718TIP3   OH226788   6.461   2.053   8.148
 1718TIP3    H126789   6.445   2.000   8.070
 1718TIP3    H226790   6.407   2.131   8.135
 1719TIP3   OH226791   5.656   3.730   6.898
 1719TIP3    H126792   5.603   3.704   6.823
 1719TIP3    H226793   5.666   3.651   6.949
 1720TIP3   OH226794   5.741   3.516   7.060
 1720TIP3    H126795   5.703   3.438   7.100
 1720TIP3    H226796   5.775   3.566   7.134
 1721TIP3   OH226797   7.236   3.148   8.172
 1721TIP3    H126798   7.161   3.167   8.228
 1721TIP3    H226799   7.307   3.201   8.208
 1722TIP3   OH226800   7.261   3.329   7.585
 1722TIP3    H126801   7.218   3.406   7.623
 1722TIP3    H226802   7.221   3.319   7.499
 1723TIP3   OH226803   7.187   2.666   6.906
 1723TIP3    H126804   7.158   2.578   6.882
 1723TIP3    H226805   7.160   2.675   6.998
 1724TIP3   OH226806   5.719   2.860   7.321
 1724TIP3    H126807   5.730   2.847   7.227
 1724TIP3    H226808   5.803   2.833   7.359
 1725TIP3   OH226809   7.270   2.866   7.914
 1725TIP3    H126810   7.347   2.809   7.913
 1725TIP3    H226811   7.286   2.929   7.844
 1726TIP3   OH226812   7.182   2.224   6.260
 1726TIP3    H126813   7.238   2.193   6.331
 1726TIP3    H226814   7.138   2.145   6.227
 1727TIP3   OH226815   7.204   2.396   6.729
 1727TIP3    H126816   7.219   2.304   6.753
 1727TIP3    H226817   7.274   2.415   6.666
 1728TIP3   OH226818   7.260   2.352   7.311
 1728TIP3    H126819   7.343   2.315   7.282
 1728TIP3    H226820   7.280   2.443   7.332
 1729TIP3   OH226821   7.278   2.608   7.623
 1729TIP3    H126822   7.183   2.621   7.631
 1729TIP3    H226823   7.292   2.597   7.529
 1730TIP3   OH226824   5.714   2.405   7.975
 1730TIP3    H126825   5.802   2.367   7.974
 1730TIP3    H226826   5.656   2.332   7.954
 1731TIP3   OH226827   7.224   2.127   6.798
 1731TIP3    H126828   7.263   2.057   6.850
 1731TIP3    H226829   7.154   2.084   6.748
 1732TIP3   OH226830   5.809   2.238   7.239
 1732TIP3    H126831   5.850   2.152   7.235
 1732TIP3    H226832   5.881   2.299   7.256
 1733TIP3   OH226833   5.634   2.527   7.291
 1733TIP3    H126834   5.706   2.526   7.228
 1733TIP3    H226835   5.658   2.596   7.353
 1734TIP3   OH226836   7.156   3.628   6.968
 1734TIP3    H126837   7.237   3.580   6.987
 1734TIP3    H226838   7.159   3.703   7.028
 1735TIP3   OH226839   5.682   2.008   7.557
 1735TIP3    H126840   5.609   1.990   7.616
 1735TIP3    H226841   5.647   2.071   7.494
 1736TIP3   OH226842   5.906   3.364   7.975
 1736TIP3    H126843   5.819   3.378   7.938
 1736TIP3    H226844   5.891   3.356   8.069
 1737TIP3   OH226845   6.241   3.467   7.586
 1737TIP3    H126846   6.201   3.552   7.567
 1737TIP3    H226847   6.334   3.486   7.596
 1738TIP3   OH226848   6.617   3.606   7.850
 1738TIP3    H126849   6.609   3.567   7.937
 1738TIP3    H226850   6.704   3.645   7.848
 1739TIP3   OH226851   6.861   3.721   7.854
 1739TIP3    H126852   6.934   3.675   7.811
 1739TIP3    H226853   6.896   3.748   7.939
 1740TIP3   OH226854   5.917   3.753   7.618
 1740TIP3    H126855   5.841   3.793   7.576
 1740TIP3    H226856   5.925   3.799   7.702
 1741TIP3   OH226857   6.169   3.719   7.516
 1741TIP3    H126858   6.081   3.733   7.550
 1741TIP3    H226859   6.175   3.777   7.440
 1742TIP3   OH226860   6.607   3.789   7.395
 1742TIP3    H126861   6.535   3.783   7.332
 1742TIP3    H226862   6.670   3.848   7.354
 1743TIP3   OH226863   6.825   3.632   7.544
 1743TIP3    H126864   6.833   3.556   7.486
 1743TIP3    H226865   6.905   3.682   7.530
 1744TIP3   OH226866   7.082   3.735   7.515
 1744TIP3    H126867   7.112   3.826   7.511
 1744TIP3    H226868   7.134   3.690   7.449
 1745TIP3   OH226869   5.888   3.622   7.276
 1745TIP3    H126870   5.877   3.577   7.360
 1745TIP3    H226871   5.966   3.582   7.237
 1746TIP3   OH226872   6.098   3.495   7.156
 1746TIP3    H126873   6.084   3.404   7.184
 1746TIP3    H226874   6.187   3.516   7.183
 1747TIP3   OH226875   6.341   3.529   7.287
 1747TIP3    H126876   6.362   3.438   7.265
 1747TIP3    H226877   6.304   3.524   7.375
 1748TIP3   OH226878   6.676   2.094   7.189
 1748TIP3    H126879   6.608   2.026   7.197
 1748TIP3    H226880   6.744   2.052   7.137
 1749TIP3   OH226881   7.172   1.931   7.150
 1749TIP3    H126882   7.209   2.019   7.139
 1749TIP3    H226883   7.078   1.943   7.139
 1750TIP3   OH226884   5.911   1.965   6.916
 1750TIP3    H126885   5.820   1.940   6.901
 1750TIP3    H226886   5.960   1.883   6.911
 1751TIP3   OH226887   6.395   1.941   6.941
 1751TIP3    H126888   6.469   1.983   6.898
 1751TIP3    H226889   6.420   1.936   7.033
 1752TIP3   OH226890   6.901   1.962   7.080
 1752TIP3    H126891   6.903   1.951   6.985
 1752TIP3    H226892   6.872   1.878   7.114
 1753TIP3   OH226893   7.034   1.996   6.654
 1753TIP3    H126894   6.960   2.056   6.659
 1753TIP3    H226895   6.996   1.910   6.672
 1754TIP3   OH226896   6.694   3.682   6.454
 1754TIP3    H126897   6.789   3.675   6.441
 1754TIP3    H226898   6.659   3.690   6.365
 1755TIP3   OH226899   5.927   2.013   7.869
 1755TIP3    H126900   5.865   1.948   7.904
 1755TIP3    H226901   6.009   1.994   7.913
 1756TIP3   OH226902   6.138   1.938   8.028
 1756TIP3    H126903   6.228   1.918   8.000
 1756TIP3    H226904   6.109   1.859   8.073
 1757TIP3   OH226905   6.979   1.899   8.077
 1757TIP3    H126906   6.972   1.853   8.161
 1757TIP3    H226907   7.071   1.891   8.053
 1758TIP3   OH226908   7.272   3.521   7.923
 1758TIP3    H126909   7.222   3.503   7.843
 1758TIP3    H226910   7.240   3.607   7.952
 1759TIP3   OH226911   1.136   4.764   6.874
 1759TIP3    H126912   1.144   4.855   6.846
 1759TIP3    H226913   1.078   4.767   6.950
 1760TIP3   OH226914   1.087   4.679   7.287
 1760TIP3    H126915   1.085   4.665   7.382
 1760TIP3    H226916   1.035   4.607   7.251
 1761TIP3   OH226917   0.310   4.657   7.430
 1761TIP3    H126918   0.329   4.574   7.475
 1761TIP3    H226919   0.395   4.692   7.406
 1762TIP3   OH226920   1.461   5.005   7.138
 1762TIP3    H126921   1.413   4.942   7.191
 1762TIP3    H226922   1.481   5.077   7.198
 1763TIP3   OH226923   0.419   5.122   7.265
 1763TIP3    H126924   0.397   5.029   7.250
 1763TIP3    H226925   0.515   5.124   7.265
 1764TIP3   OH226926   0.109   4.481   6.782
 1764TIP3    H126927   0.045   4.537   6.825
 1764TIP3    H226928   0.063   4.400   6.763
 1765TIP3   OH226929   0.185   4.701   7.088
 1765TIP3    H126930   0.184   4.606   7.098
 1765TIP3    H226931   0.137   4.718   7.008
 1766TIP3   OH226932   1.181   5.508   7.161
 1766TIP3    H126933   1.229   5.452   7.100
 1766TIP3    H226934   1.107   5.454   7.190
 1767TIP3   OH226935   0.897   4.970   7.316
 1767TIP3    H126936   0.934   4.917   7.245
 1767TIP3    H226937   0.970   4.981   7.378
 1768TIP3   OH226938   1.809   4.095   7.409
 1768TIP3    H126939   1.824   4.166   7.471
 1768TIP3    H226940   1.868   4.114   7.336
 1769TIP3   OH226941   1.245   4.385   7.367
 1769TIP3    H126942   1.307   4.321   7.403
 1769TIP3    H226943   1.299   4.445   7.316
 1770TIP3   OH226944   0.565   4.202   7.049
 1770TIP3    H126945   0.572   4.287   7.005
 1770TIP3    H226946   0.518   4.146   6.986
 1771TIP3   OH226947   1.355   4.232   6.865
 1771TIP3    H126948   1.412   4.205   6.937
 1771TIP3    H226949   1.403   4.303   6.821
 1772TIP3   OH226950   0.176   4.425   7.142
 1772TIP3    H126951   0.260   4.387   7.166
 1772TIP3    H226952   0.143   4.370   7.071
 1773TIP3   OH226953   0.710   4.590   7.098
 1773TIP3    H126954   0.794   4.550   7.117
 1773TIP3    H226955   0.671   4.533   7.031
 1774TIP3   OH226956   1.826   4.255   7.640
 1774TIP3    H126957   1.764   4.323   7.614
 1774TIP3    H226958   1.789   4.217   7.719
 1775TIP3   OH226959   0.423   4.104   7.490
 1775TIP3    H126960   0.397   4.159   7.416
 1775TIP3    H226961   0.352   4.116   7.554
 1776TIP3   OH226962   1.138   5.029   6.817
 1776TIP3    H126963   1.225   5.066   6.828
 1776TIP3    H226964   1.078   5.102   6.830
 1777TIP3   OH226965   0.697   4.875   7.483
 1777TIP3    H126966   0.637   4.942   7.514
 1777TIP3    H226967   0.758   4.921   7.425
 1778TIP3   OH226968   1.480   4.178   7.110
 1778TIP3    H126969   1.484   4.088   7.143
 1778TIP3    H226970   1.531   4.229   7.172
 1779TIP3   OH226971   0.394   4.265   7.259
 1779TIP3    H126972   0.449   4.321   7.313
 1779TIP3    H226973   0.452   4.236   7.188
 1780TIP3   OH226974   0.539   5.077   7.585
 1780TIP3    H126975   0.547   5.172   7.573
 1780TIP3    H226976   0.448   5.063   7.607
 1781TIP3   OH226977   0.261   5.021   6.698
 1781TIP3    H126978   0.219   5.033   6.613
 1781TIP3    H226979   0.246   5.104   6.744
 1782TIP3   OH226980   1.505   5.209   7.338
 1782TIP3    H126981   1.412   5.207   7.361
 1782TIP3    H226982   1.520   5.299   7.309
 1783TIP3   OH226983   1.556   4.010   7.503
 1783TIP3    H126984   1.492   4.040   7.439
 1783TIP3    H226985   1.641   4.029   7.463
 1784TIP3   OH226986   0.795   3.808   7.236
 1784TIP3    H126987   0.769   3.716   7.234
 1784TIP3    H226988   0.716   3.854   7.263
 1785TIP3   OH226989   1.315   5.360   6.971
 1785TIP3    H126990   1.345   5.275   6.940
 1785TIP3    H226991   1.388   5.419   6.955
 1786TIP3   OH226992   1.399   5.106   6.882
 1786TIP3    H126993   1.440   5.053   6.814
 1786TIP3    H226994   1.429   5.068   6.964
 1787TIP3   OH226995   1.611   4.985   7.695
 1787TIP3    H126996   1.596   4.935   7.615
 1787TIP3    H226997   1.615   5.076   7.666
 1788TIP3   OH226998   1.768   4.670   7.523
 1788TIP3    H126999   1.696   4.732   7.509
 1788TIP3    H227000   1.826   4.683   7.448
 1789TIP3   OH227001   1.367   4.671   6.747
 1789TIP3    H127002   1.296   4.713   6.797
 1789TIP3    H227003   1.424   4.633   6.814
 1790TIP3   OH227004   1.363   4.544   7.712
 1790TIP3    H127005   1.361   4.610   7.781
 1790TIP3    H227006   1.295   4.571   7.651
 1791TIP3   OH227007   0.555   4.798   6.980
 1791TIP3    H127008   0.508   4.772   6.901
 1791TIP3    H227009   0.605   4.720   7.005
 1792TIP3   OH227010   0.695   5.154   7.215
 1792TIP3    H127011   0.690   5.155   7.119
 1792TIP3    H227012   0.766   5.093   7.235
 1793TIP3   OH227013   0.609   4.646   7.357
 1793TIP3    H127014   0.633   4.650   7.265
 1793TIP3    H227015   0.636   4.730   7.393
 1794TIP3   OH227016   1.250   5.208   7.427
 1794TIP3    H127017   1.221   5.291   7.466
 1794TIP3    H227018   1.182   5.145   7.452
 1795TIP3   OH227019   0.693   5.108   7.812
 1795TIP3    H127020   0.633   5.169   7.854
 1795TIP3    H227021   0.648   5.081   7.731
 1796TIP3   OH227022   0.406   4.713   7.762
 1796TIP3    H127023   0.401   4.797   7.808
 1796TIP3    H227024   0.326   4.709   7.710
 1797TIP3   OH227025   1.049   5.288   6.889
 1797TIP3    H127026   1.130   5.333   6.911
 1797TIP3    H227027   1.019   5.331   6.809
 1798TIP3   OH227028   0.494   5.288   7.885
 1798TIP3    H127029   0.498   5.317   7.794
 1798TIP3    H227030   0.400   5.282   7.904
 1799TIP3   OH227031   1.647   3.796   6.504
 1799TIP3    H127032   1.556   3.822   6.517
 1799TIP3    H227033   1.649   3.760   6.415
 1800TIP3   OH227034   0.398   4.753   6.755
 1800TIP3    H127035   0.361   4.839   6.735
 1800TIP3    H227036   0.322   4.694   6.757
 1801TIP3   OH227037   0.161   4.870   7.602
 1801TIP3    H127038   0.122   4.879   7.515
 1801TIP3    H227039   0.147   4.778   7.625
 1802TIP3   OH227040   0.094   5.256   7.270
 1802TIP3    H127041   0.179   5.213   7.274
 1802TIP3    H227042   0.037   5.201   7.323
 1803TIP3   OH227043   1.863   5.327   7.898
 1803TIP3    H127044   1.852   5.240   7.860
 1803TIP3    H227045   1.775   5.352   7.927
 1804TIP3   OH227046   0.934   5.227   7.749
 1804TIP3    H127047   0.933   5.314   7.790
 1804TIP3    H227048   0.847   5.191   7.768
 1805TIP3   OH227049   1.022   5.583   6.725
 1805TIP3    H127050   1.011   5.584   6.630
 1805TIP3    H227051   0.985   5.667   6.754
 1806TIP3   OH227052   0.378   5.483   6.930
 1806TIP3    H127053   0.388   5.448   7.018
 1806TIP3    H227054   0.318   5.422   6.887
 1807TIP3   OH227055   1.292   5.550   6.722
 1807TIP3    H127056   1.196   5.558   6.727
 1807TIP3    H227057   1.307   5.458   6.700
 1808TIP3   OH227058   1.563   4.415   7.908
 1808TIP3    H127059   1.494   4.450   7.853
 1808TIP3    H227060   1.568   4.323   7.886
 1809TIP3   OH227061   0.287   5.091   7.701
 1809TIP3    H127062   0.318   5.054   7.784
 1809TIP3    H227063   0.231   5.022   7.664
 1810TIP3   OH227064   0.547   3.916   7.320
 1810TIP3    H127065   0.474   3.906   7.259
 1810TIP3    H227066   0.518   3.983   7.383
 1811TIP3   OH227067   1.020   3.874   7.662
 1811TIP3    H127068   1.067   3.824   7.729
 1811TIP3    H227069   0.927   3.860   7.682
 1812TIP3   OH227070   1.308   4.272   7.718
 1812TIP3    H127071   1.251   4.253   7.792
 1812TIP3    H227072   1.314   4.368   7.717
 1813TIP3   OH227073   1.054   4.121   6.475
 1813TIP3    H127074   0.959   4.115   6.484
 1813TIP3    H227075   1.071   4.096   6.385
 1814TIP3   OH227076   0.552   4.399   7.446
 1814TIP3    H127077   0.483   4.408   7.512
 1814TIP3    H227078   0.570   4.488   7.418
 1815TIP3   OH227079   0.599   4.437   6.904
 1815TIP3    H127080   0.504   4.428   6.894
 1815TIP3    H227081   0.633   4.431   6.815
 1816TIP3   OH227082   1.116   4.473   6.799
 1816TIP3    H127083   1.120   4.569   6.804
 1816TIP3    H227084   1.181   4.450   6.732
 1817TIP3   OH227085   1.033   4.463   7.924
 1817TIP3    H127086   0.980   4.397   7.969
 1817TIP3    H227087   1.118   4.461   7.969
 1818TIP3   OH227088   1.198   4.362   7.047
 1818TIP3    H127089   1.153   4.425   6.991
 1818TIP3    H227090   1.251   4.309   6.987
 1819TIP3   OH227091   0.320   4.420   7.595
 1819TIP3    H127092   0.262   4.484   7.636
 1819TIP3    H227093   0.287   4.335   7.624
 1820TIP3   OH227094   0.093   4.221   6.967
 1820TIP3    H127095   0.096   4.158   7.039
 1820TIP3    H227096   0.097   4.169   6.888
 1821TIP3   OH227097   0.164   4.244   6.468
 1821TIP3    H127098   0.228   4.241   6.397
 1821TIP3    H227099   0.085   4.279   6.428
 1822TIP3   OH227100   1.126   4.559   7.543
 1822TIP3    H127101   1.164   4.499   7.479
 1822TIP3    H227102   1.062   4.506   7.590
 1823TIP3   OH227103   0.840   4.208   7.053
 1823TIP3    H127104   0.745   4.193   7.055
 1823TIP3    H227105   0.878   4.126   7.084
 1824TIP3   OH227106   0.344   4.362   6.875
 1824TIP3    H127107   0.259   4.396   6.847
 1824TIP3    H227108   0.340   4.268   6.856
 1825TIP3   OH227109   0.696   4.384   6.652
 1825TIP3    H127110   0.778   4.341   6.675
 1825TIP3    H227111   0.655   4.326   6.588
 1826TIP3   OH227112   1.261   4.092   7.335
 1826TIP3    H127113   1.217   4.081   7.419
 1826TIP3    H227114   1.270   4.003   7.301
 1827TIP3   OH227115   1.593   5.668   7.987
 1827TIP3    H127116   1.613   5.709   7.903
 1827TIP3    H227117   1.665   5.696   8.045
 1828TIP3   OH227118   0.367   4.936   7.927
 1828TIP3    H127119   0.428   4.932   8.001
 1828TIP3    H227120   0.280   4.940   7.969
 1829TIP3   OH227121   0.932   4.403   7.218
 1829TIP3    H127122   0.886   4.350   7.152
 1829TIP3    H227123   0.884   4.387   7.299
 1830TIP3   OH227124   0.430   4.088   6.838
 1830TIP3    H127125   0.383   4.006   6.852
 1830TIP3    H227126   0.456   4.086   6.746
 1831TIP3   OH227127   0.813   4.319   7.448
 1831TIP3    H127128   0.725   4.354   7.455
 1831TIP3    H227129   0.857   4.348   7.529
 1832TIP3   OH227130   1.572   4.851   7.459
 1832TIP3    H127131   1.628   4.907   7.406
 1832TIP3    H227132   1.495   4.835   7.404
 1833TIP3   OH227133   1.006   4.943   7.753
 1833TIP3    H127134   1.031   4.920   7.843
 1833TIP3    H227135   0.977   5.034   7.759
 1834TIP3   OH227136   1.336   4.433   6.609
 1834TIP3    H127137   1.360   4.519   6.641
 1834TIP3    H227138   1.337   4.441   6.514
 1835TIP3   OH227139   0.399   4.852   7.200
 1835TIP3    H127140   0.459   4.846   7.126
 1835TIP3    H227141   0.323   4.799   7.173
 1836TIP3   OH227142   0.144   4.605   7.708
 1836TIP3    H127143   0.143   4.601   7.803
 1836TIP3    H227144   0.064   4.561   7.681
 1837TIP3   OH227145   0.831   4.655   7.918
 1837TIP3    H127146   0.802   4.665   7.827
 1837TIP3    H227147   0.912   4.605   7.912
 1838TIP3   OH227148   1.215   5.192   7.757
 1838TIP3    H127149   1.123   5.209   7.735
 1838TIP3    H227150   1.223   5.221   7.848
 1839TIP3   OH227151   1.857   5.057   7.815
 1839TIP3    H127152   1.762   5.040   7.814
 1839TIP3    H227153   1.888   5.020   7.732
 1840TIP3   OH227154   1.608   5.312   6.580
 1840TIP3    H127155   1.575   5.225   6.600
 1840TIP3    H227156   1.583   5.327   6.489
 1841TIP3   OH227157   1.355   4.777   7.294
 1841TIP3    H127158   1.260   4.771   7.289
 1841TIP3    H227159   1.387   4.695   7.255
 1842TIP3   OH227160   0.638   5.199   6.944
 1842TIP3    H127161   0.664   5.284   6.908
 1842TIP3    H227162   0.545   5.191   6.921
 1843TIP3   OH227163   0.765   4.947   6.879
 1843TIP3    H127164   0.745   5.041   6.886
 1843TIP3    H227165   0.687   4.904   6.915
 1844TIP3   OH227166   0.815   5.391   7.530
 1844TIP3    H127167   0.876   5.461   7.508
 1844TIP3    H227168   0.867   5.329   7.581
 1845TIP3   OH227169   0.639   5.463   6.842
 1845TIP3    H127170   0.547   5.481   6.858
 1845TIP3    H227171   0.685   5.541   6.872
 1846TIP3   OH227172   1.109   4.968   7.499
 1846TIP3    H127173   1.073   4.954   7.587
 1846TIP3    H227174   1.197   4.931   7.504
 1847TIP3   OH227175   1.429   5.416   7.712
 1847TIP3    H127176   1.345   5.377   7.688
 1847TIP3    H227177   1.437   5.492   7.654
 1848TIP3   OH227178   0.222   4.165   7.692
 1848TIP3    H127179   0.150   4.205   7.739
 1848TIP3    H227180   0.222   4.074   7.722
 1849TIP3   OH227181   1.483   4.927   6.679
 1849TIP3    H127182   1.447   4.838   6.683
 1849TIP3    H227183   1.505   4.940   6.587
 1850TIP3   OH227184   0.255   5.356   7.535
 1850TIP3    H127185   0.256   5.268   7.573
 1850TIP3    H227186   0.212   5.410   7.602
 1851TIP3   OH227187   0.836   5.186   6.224
 1851TIP3    H127188   0.849   5.095   6.196
 1851TIP3    H227189   0.765   5.182   6.287
 1852TIP3   OH227190   0.691   5.161   6.483
 1852TIP3    H127191   0.619   5.134   6.541
 1852TIP3    H227192   0.706   5.253   6.505
 1853TIP3   OH227193   1.129   4.109   7.572
 1853TIP3    H127194   1.192   4.141   7.637
 1853TIP3    H227195   1.091   4.031   7.612
 1854TIP3   OH227196   1.199   4.054   6.699
 1854TIP3    H127197   1.157   4.088   6.620
 1854TIP3    H227198   1.240   4.131   6.740
 1855TIP3   OH227199   0.982   5.295   6.593
 1855TIP3    H127200   0.895   5.335   6.597
 1855TIP3    H227201   1.011   5.309   6.503
 1856TIP3   OH227202   0.921   4.260   6.792
 1856TIP3    H127203   0.986   4.330   6.786
 1856TIP3    H227204   0.887   4.265   6.881
 1857TIP3   OH227205   0.980   4.363   7.667
 1857TIP3    H127206   0.993   4.390   7.758
 1857TIP3    H227207   1.017   4.274   7.663
 1858TIP3   OH227208   0.972   3.969   6.832
 1858TIP3    H127209   0.947   4.060   6.842
 1858TIP3    H227210   1.056   3.971   6.787
 1859TIP3   OH227211   0.730   5.416   6.581
 1859TIP3    H127212   0.726   5.498   6.532
 1859TIP3    H227213   0.696   5.437   6.667
 1860TIP3   OH227214   0.538   4.105   6.569
 1860TIP3    H127215   0.525   4.109   6.474
 1860TIP3    H227216   0.632   4.087   6.579
 1861TIP3   OH227217   1.559   4.170   7.742
 1861TIP3    H127218   1.468   4.199   7.737
 1861TIP3    H227219   1.569   4.111   7.667
 1862TIP3   OH227220   1.416   4.517   7.195
 1862TIP3    H127221   1.370   4.472   7.124
 1862TIP3    H227222   1.488   4.459   7.219
 1863TIP3   OH227223   1.566   5.483   7.321
 1863TIP3    H127224   1.546   5.552   7.258
 1863TIP3    H227225   1.661   5.483   7.326
 1864TIP3   OH227226   0.302   3.892   7.194
 1864TIP3    H127227   0.301   3.881   7.099
 1864TIP3    H227228   0.269   3.808   7.228
 1865TIP3   OH227229   0.215   5.288   6.815
 1865TIP3    H127230   0.128   5.268   6.849
 1865TIP3    H227231   0.199   5.346   6.740
 1866TIP3   OH227232   0.153   5.583   7.992
 1866TIP3    H127233   0.213   5.574   8.066
 1866TIP3    H227234   0.142   5.494   7.960
 1867TIP3   OH227235   0.572   5.393   8.130
 1867TIP3    H127236   0.653   5.343   8.146
 1867TIP3    H227237   0.543   5.364   8.044
 1868TIP3   OH227238   1.028   5.351   6.321
 1868TIP3    H127239   0.953   5.305   6.284
 1868TIP3    H227240   1.097   5.343   6.255
 1869TIP3   OH227241   1.228   5.249   8.028
 1869TIP3    H127242   1.215   5.164   8.071
 1869TIP3    H227243   1.305   5.285   8.070
 1870TIP3   OH227244   0.122   4.926   8.052
 1870TIP3    H127245   0.117   4.831   8.042
 1870TIP3    H227246   0.030   4.954   8.056
 1871TIP3   OH227247   0.766   4.927   8.004
 1871TIP3    H127248   0.745   4.980   7.927
 1871TIP3    H227249   0.798   4.844   7.968
 1872TIP3   OH227250   1.340   4.944   7.762
 1872TIP3    H127251   1.429   4.970   7.742
 1872TIP3    H227252   1.289   5.025   7.755
 1873TIP3   OH227253   0.178   4.634   7.981
 1873TIP3    H127254   0.269   4.608   7.964
 1873TIP3    H227255   0.172   4.636   8.077
 1874TIP3   OH227256   0.604   4.523   7.740
 1874TIP3    H127257   0.529   4.582   7.749
 1874TIP3    H227258   0.669   4.574   7.692
 1875TIP3   OH227259   1.112   4.778   8.053
 1875TIP3    H127260   1.186   4.734   8.010
 1875TIP3    H227261   1.078   4.713   8.114
 1876TIP3   OH227262   0.670   4.277   7.827
 1876TIP3    H127263   0.674   4.210   7.759
 1876TIP3    H227264   0.641   4.356   7.782
 1877TIP3   OH227265   0.678   4.113   7.595
 1877TIP3    H127266   0.728   4.164   7.531
 1877TIP3    H227267   0.588   4.114   7.561
 1878TIP3   OH227268   0.810   4.683   7.644
 1878TIP3    H127269   0.902   4.703   7.627
 1878TIP3    H227270   0.761   4.748   7.592
 1879TIP3   OH227271   1.248   4.433   8.098
 1879TIP3    H127272   1.246   4.353   8.152
 1879TIP3    H227273   1.340   4.461   8.102
 1880TIP3   OH227274   1.381   4.730   7.922
 1880TIP3    H127275   1.350   4.807   7.874
 1880TIP3    H227276   1.477   4.734   7.914
 1881TIP3   OH227277   0.432   4.410   8.025
 1881TIP3    H127278   0.376   4.417   8.102
 1881TIP3    H227279   0.394   4.339   7.974
 1882TIP3   OH227280   0.740   3.850   7.658
 1882TIP3    H127281   0.719   3.941   7.636
 1882TIP3    H227282   0.673   3.798   7.614
 1883TIP3   OH227283   0.884   4.267   8.047
 1883TIP3    H127284   0.908   4.236   8.135
 1883TIP3    H227285   0.835   4.195   8.009
 1884TIP3   OH227286   1.141   4.177   7.908
 1884TIP3    H127287   1.064   4.184   7.963
 1884TIP3    H227288   1.206   4.133   7.962
 1885TIP3   OH227289   1.328   4.065   8.082
 1885TIP3    H127290   1.318   3.970   8.088
 1885TIP3    H227291   1.294   4.099   8.165
 1886TIP3   OH227292   0.313   4.153   8.009
 1886TIP3    H127293   0.302   4.086   7.941
 1886TIP3    H227294   0.301   4.105   8.091
 1887TIP3   OH227295   0.744   3.783   7.923
 1887TIP3    H127296   0.802   3.706   7.922
 1887TIP3    H227297   0.736   3.807   7.831
 1888TIP3   OH227298   0.792   3.977   8.114
 1888TIP3    H127299   0.781   3.911   8.046
 1888TIP3    H227300   0.714   4.031   8.108
 1889TIP3   OH227301   0.766   5.666   6.456
 1889TIP3    H127302   0.860   5.646   6.452
 1889TIP3    H227303   0.751   5.725   6.382
 1890TIP3   OH227304   0.151   5.059   6.439
 1890TIP3    H127305   0.212   5.080   6.367
 1890TIP3    H227306   0.109   4.977   6.412
 1891TIP3   OH227307   0.045   5.630   6.871
 1891TIP3    H127308   0.063   5.591   6.786
 1891TIP3    H227309   0.063   5.560   6.934
 1892TIP3   OH227310   0.094   5.450   7.070
 1892TIP3    H127311   0.077   5.365   7.110
 1892TIP3    H227312   0.132   5.502   7.141
 1893TIP3   OH227313   1.835   5.490   7.383
 1893TIP3    H127314   1.829   5.515   7.475
 1893TIP3    H227315   1.901   5.549   7.346
 1894TIP3   OH227316   1.766   5.477   7.659
 1894TIP3    H127317   1.720   5.399   7.628
 1894TIP3    H227318   1.825   5.444   7.727
 1895TIP3   OH227319   1.621   5.045   8.169
 1895TIP3    H127320   1.541   5.055   8.221
 1895TIP3    H227321   1.670   5.126   8.185
 1896TIP3   OH227322   1.787   4.644   6.883
 1896TIP3    H127323   1.788   4.715   6.818
 1896TIP3    H227324   1.856   4.668   6.945
 1897TIP3   OH227325   1.804   4.977   7.362
 1897TIP3    H127326   1.845   4.926   7.293
 1897TIP3    H227327   1.823   5.068   7.339
 1898TIP3   OH227328   1.613   5.243   7.595
 1898TIP3    H127329   1.542   5.295   7.631
 1898TIP3    H227330   1.590   5.230   7.503
 1899TIP3   OH227331   1.532   4.547   6.931
 1899TIP3    H127332   1.621   4.573   6.906
 1899TIP3    H227333   1.524   4.575   7.022
 1900TIP3   OH227334   0.085   4.775   7.337
 1900TIP3    H127335   0.098   4.781   7.242
 1900TIP3    H227336   0.168   4.741   7.371
 1901TIP3   OH227337   1.654   4.758   7.883
 1901TIP3    H127338   1.720   4.692   7.861
 1901TIP3    H227339   1.659   4.821   7.811
 1902TIP3   OH227340   1.816   4.525   7.889
 1902TIP3    H127341   1.727   4.489   7.896
 1902TIP3    H227342   1.872   4.453   7.919
 1903TIP3   OH227343   1.603   4.344   7.304
 1903TIP3    H127344   1.694   4.359   7.280
 1903TIP3    H227345   1.599   4.364   7.397
 1904TIP3   OH227346   1.617   4.443   7.566
 1904TIP3    H127347   1.539   4.476   7.612
 1904TIP3    H227348   1.672   4.520   7.553
 1905TIP3   OH227349   0.075   4.278   7.919
 1905TIP3    H127350   0.160   4.253   7.955
 1905TIP3    H227351   0.011   4.231   7.974
 1906TIP3   OH227352   1.840   3.865   8.078
 1906TIP3    H127353   1.907   3.798   8.064
 1906TIP3    H227354   1.860   3.932   8.013
 1907TIP3   OH227355   0.156   4.121   7.232
 1907TIP3    H127356   0.196   4.034   7.228
 1907TIP3    H227357   0.230   4.181   7.243
 1908TIP3   OH227358   0.009   4.503   7.351
 1908TIP3    H127359   0.072   4.479   7.283
 1908TIP3    H227360   0.015   4.599   7.356
 1909TIP3   OH227361   1.791   4.075   7.897
 1909TIP3    H127362   1.719   4.098   7.956
 1909TIP3    H227363   1.752   4.012   7.836
 1910TIP3   OH227364   0.113   4.102   6.706
 1910TIP3    H127365   0.058   4.039   6.659
 1910TIP3    H227366   0.153   4.155   6.638
 1911TIP3   OH227367   1.541   5.519   6.941
 1911TIP3    H127368   1.593   5.513   6.861
 1911TIP3    H227369   1.576   5.596   6.986
 1912TIP3   OH227370   7.371   3.906   7.582
 1912TIP3    H127371   7.328   3.953   7.654
 1912TIP3    H227372   7.320   3.929   7.505
 1913TIP3   OH227373   0.224   5.273   7.968
 1913TIP3    H127374   0.159   5.230   7.913
 1913TIP3    H227375   0.199   5.251   8.058
 1914TIP3   OH227376   0.554   5.352   7.618
 1914TIP3    H127377   0.493   5.411   7.574
 1914TIP3    H227378   0.640   5.380   7.588
 1915TIP3   OH227379   0.945   5.472   7.879
 1915TIP3    H127380   0.956   5.446   7.970
 1915TIP3    H227381   1.023   5.524   7.859
 1916TIP3   OH227382   1.176   5.617   7.845
 1916TIP3    H127383   1.248   5.582   7.792
 1916TIP3    H227384   1.218   5.646   7.926
 1917TIP3   OH227385   1.692   3.845   7.731
 1917TIP3    H127386   1.620   3.861   7.671
 1917TIP3    H227387   1.716   3.753   7.715
 1918TIP3   OH227388   0.291   5.659   7.632
 1918TIP3    H127389   0.208   5.686   7.593
 1918TIP3    H227390   0.296   5.706   7.715
 1919TIP3   OH227391   0.521   5.637   7.488
 1919TIP3    H127392   0.442   5.647   7.541
 1919TIP3    H227393   0.492   5.588   7.411
 1920TIP3   OH227394   0.978   5.594   7.440
 1920TIP3    H127395   0.932   5.633   7.365
 1920TIP3    H227396   0.991   5.668   7.500
 1921TIP3   OH227397   1.206   5.465   7.530
 1921TIP3    H127398   1.127   5.504   7.494
 1921TIP3    H227399   1.276   5.526   7.507
 1922TIP3   OH227400   1.448   5.622   7.527
 1922TIP3    H127401   1.462   5.714   7.507
 1922TIP3    H227402   1.487   5.575   7.453
 1923TIP3   OH227403   0.241   5.528   7.305
 1923TIP3    H127404   0.224   5.477   7.384
 1923TIP3    H227405   0.303   5.475   7.255
 1924TIP3   OH227406   0.434   5.384   7.183
 1924TIP3    H127407   0.421   5.292   7.206
 1924TIP3    H227408   0.525   5.401   7.204
 1925TIP3   OH227409   0.695   5.424   7.281
 1925TIP3    H127410   0.706   5.336   7.244
 1925TIP3    H227411   0.730   5.417   7.370
 1926TIP3   OH227412   1.016   4.023   7.168
 1926TIP3    H127413   0.956   3.954   7.198
 1926TIP3    H227414   1.089   3.976   7.128
 1927TIP3   OH227415   1.503   3.890   7.205
 1927TIP3    H127416   1.576   3.891   7.143
 1927TIP3    H227417   1.427   3.866   7.152
 1928TIP3   OH227418   1.702   3.906   7.014
 1928TIP3    H127419   1.766   3.848   6.974
 1928TIP3    H227420   1.743   3.992   7.012
 1929TIP3   OH227421   0.293   3.853   6.920
 1929TIP3    H127422   0.206   3.847   6.881
 1929TIP3    H227423   0.329   3.764   6.912
 1930TIP3   OH227424   0.768   3.808   6.947
 1930TIP3    H127425   0.835   3.864   6.909
 1930TIP3    H227426   0.783   3.813   7.042
 1931TIP3   OH227427   1.242   3.875   7.085
 1931TIP3    H127428   1.258   3.863   6.991
 1931TIP3    H227429   1.219   3.788   7.117
 1932TIP3   OH227430   1.400   3.874   6.622
 1932TIP3    H127431   1.329   3.932   6.648
 1932TIP3    H227432   1.364   3.786   6.630
 1933TIP3   OH227433   0.130   5.488   6.642
 1933TIP3    H127434   0.065   5.443   6.588
 1933TIP3    H227435   0.148   5.570   6.595
 1934TIP3   OH227436   0.810   4.079   6.610
 1934TIP3    H127437   0.835   3.992   6.643
 1934TIP3    H227438   0.853   4.140   6.670
 1935TIP3   OH227439   1.035   5.598   6.443
 1935TIP3    H127440   1.092   5.646   6.383
 1935TIP3    H227441   1.029   5.510   6.405
 1936TIP3   OH227442   1.718   5.521   6.718
 1936TIP3    H127443   1.685   5.443   6.673
 1936TIP3    H227444   1.701   5.593   6.657
 1937TIP3   OH227445   0.282   3.914   7.863
 1937TIP3    H127446   0.221   3.848   7.897
 1937TIP3    H227447   0.366   3.893   7.905
 1938TIP3   OH227448   0.491   3.837   8.028
 1938TIP3    H127449   0.577   3.809   7.996
 1938TIP3    H227450   0.455   3.759   8.071
 1939TIP3   OH227451   1.324   3.786   8.071
 1939TIP3    H127452   1.312   3.743   8.155
 1939TIP3    H227453   1.417   3.777   8.052
 1940TIP3   OH227454   1.597   5.400   7.935
 1940TIP3    H127455   1.539   5.393   7.859
 1940TIP3    H227456   1.597   5.493   7.958
 1941TIP3   OH227457   3.060   4.782   6.905
 1941TIP3    H127458   3.043   4.876   6.906
 1941TIP3    H227459   3.005   4.748   6.835
 1942TIP3   OH227460   2.959   4.707   7.306
 1942TIP3    H127461   2.982   4.664   7.388
 1942TIP3    H227462   2.914   4.640   7.255
 1943TIP3   OH227463   2.181   4.643   7.442
 1943TIP3    H127464   2.185   4.567   7.500
 1943TIP3    H227465   2.271   4.657   7.414
 1944TIP3   OH227466   3.342   5.013   7.127
 1944TIP3    H127467   3.301   4.941   7.177
 1944TIP3    H227468   3.362   5.079   7.194
 1945TIP3   OH227469   2.322   5.113   7.308
 1945TIP3    H127470   2.282   5.037   7.265
 1945TIP3    H227471   2.412   5.114   7.275
 1946TIP3   OH227472   1.946   4.425   6.775
 1946TIP3    H127473   1.953   4.514   6.739
 1946TIP3    H227474   1.878   4.432   6.842
 1947TIP3   OH227475   2.007   4.685   7.053
 1947TIP3    H127476   2.045   4.600   7.073
 1947TIP3    H227477   2.082   4.738   7.025
 1948TIP3   OH227478   3.069   5.499   7.152
 1948TIP3    H127479   3.105   5.449   7.079
 1948TIP3    H227480   3.019   5.436   7.202
 1949TIP3   OH227481   2.795   4.955   7.316
 1949TIP3    H127482   2.838   4.880   7.274
 1949TIP3    H227483   2.862   4.990   7.375
 1950TIP3   OH227484   3.686   4.100   7.413
 1950TIP3    H127485   3.699   4.169   7.478
 1950TIP3    H227486   3.743   4.125   7.340
 1951TIP3   OH227487   3.108   4.385   7.330
 1951TIP3    H127488   3.122   4.291   7.339
 1951TIP3    H227489   3.094   4.398   7.237
 1952TIP3   OH227490   2.458   4.187   7.052
 1952TIP3    H127491   2.469   4.271   7.007
 1952TIP3    H227492   2.408   4.134   6.990
 1953TIP3   OH227493   3.246   4.228   6.938
 1953TIP3    H127494   3.298   4.176   7.000
 1953TIP3    H227495   3.311   4.261   6.875
 1954TIP3   OH227496   2.102   4.435   7.128
 1954TIP3    H127497   2.164   4.395   7.189
 1954TIP3    H227498   2.127   4.402   7.042
 1955TIP3   OH227499   2.571   4.571   7.119
 1955TIP3    H127500   2.659   4.541   7.142
 1955TIP3    H227501   2.543   4.511   7.050
 1956TIP3   OH227502   3.718   4.263   7.637
 1956TIP3    H127503   3.652   4.329   7.617
 1956TIP3    H227504   3.742   4.280   7.729
 1957TIP3   OH227505   2.315   4.104   7.481
 1957TIP3    H127506   2.292   4.159   7.407
 1957TIP3    H227507   2.243   4.115   7.543
 1958TIP3   OH227508   2.977   5.035   6.834
 1958TIP3    H127509   2.978   5.071   6.746
 1958TIP3    H227510   2.957   5.110   6.891
 1959TIP3   OH227511   2.582   4.873   7.471
 1959TIP3    H127512   2.536   4.948   7.506
 1959TIP3    H227513   2.652   4.910   7.417
 1960TIP3   OH227514   3.366   4.124   7.179
 1960TIP3    H127515   3.282   4.123   7.224
 1960TIP3    H227516   3.411   4.201   7.215
 1961TIP3   OH227517   2.288   4.267   7.258
 1961TIP3    H127518   2.346   4.323   7.310
 1961TIP3    H227519   2.344   4.232   7.189
 1962TIP3   OH227520   2.411   5.086   7.570
 1962TIP3    H127521   2.428   5.180   7.580
 1962TIP3    H227522   2.367   5.079   7.485
 1963TIP3   OH227523   3.380   5.214   7.331
 1963TIP3    H127524   3.286   5.216   7.350
 1963TIP3    H227525   3.400   5.304   7.304
 1964TIP3   OH227526   3.437   3.988   7.489
 1964TIP3    H127527   3.370   4.044   7.451
 1964TIP3    H227528   3.519   4.021   7.453
 1965TIP3   OH227529   2.677   3.795   7.234
 1965TIP3    H127530   2.648   3.704   7.228
 1965TIP3    H227531   2.599   3.843   7.261
 1966TIP3   OH227532   3.183   5.373   6.930
 1966TIP3    H127533   3.223   5.288   6.916
 1966TIP3    H227534   3.256   5.435   6.928
 1967TIP3   OH227535   3.312   5.140   6.878
 1967TIP3    H127536   3.331   5.082   6.805
 1967TIP3    H227537   3.325   5.087   6.956
 1968TIP3   OH227538   3.485   5.000   7.691
 1968TIP3    H127539   3.477   4.943   7.615
 1968TIP3    H227540   3.494   5.088   7.654
 1969TIP3   OH227541   2.938   4.702   6.669
 1969TIP3    H127542   2.886   4.772   6.632
 1969TIP3    H227543   2.991   4.669   6.597
 1970TIP3   OH227544   2.897   4.569   6.396
 1970TIP3    H127545   2.992   4.579   6.391
 1970TIP3    H227546   2.863   4.620   6.322
 1971TIP3   OH227547   3.655   4.664   7.521
 1971TIP3    H127548   3.582   4.725   7.512
 1971TIP3    H227549   3.714   4.687   7.449
 1972TIP3   OH227550   3.283   4.721   6.757
 1972TIP3    H127551   3.213   4.743   6.819
 1972TIP3    H227552   3.349   4.677   6.810
 1973TIP3   OH227553   3.257   4.535   7.711
 1973TIP3    H127554   3.251   4.605   7.776
 1973TIP3    H227555   3.191   4.558   7.645
 1974TIP3   OH227556   2.412   4.762   6.994
 1974TIP3    H127557   2.459   4.796   6.917
 1974TIP3    H227558   2.471   4.696   7.030
 1975TIP3   OH227559   2.581   5.127   7.215
 1975TIP3    H127560   2.581   5.149   7.121
 1975TIP3    H227561   2.662   5.079   7.229
 1976TIP3   OH227562   2.438   4.677   7.340
 1976TIP3    H127563   2.487   4.651   7.262
 1976TIP3    H227564   2.493   4.743   7.382
 1977TIP3   OH227565   3.121   5.224   7.410
 1977TIP3    H127566   3.098   5.299   7.465
 1977TIP3    H227567   3.071   5.152   7.447
 1978TIP3   OH227568   2.582   5.107   7.802
 1978TIP3    H127569   2.524   5.169   7.845
 1978TIP3    H227570   2.533   5.078   7.725
 1979TIP3   OH227571   3.174   4.633   6.519
 1979TIP3    H127572   3.213   4.666   6.599
 1979TIP3    H227573   3.214   4.686   6.449
 1980TIP3   OH227574   2.252   4.690   7.758
 1980TIP3    H127575   2.257   4.777   7.797
 1980TIP3    H227576   2.163   4.683   7.725
 1981TIP3   OH227577   2.917   5.287   6.933
 1981TIP3    H127578   3.004   5.327   6.934
 1981TIP3    H227579   2.884   5.301   6.844
 1982TIP3   OH227580   2.389   5.294   7.872
 1982TIP3    H127581   2.400   5.330   7.783
 1982TIP3    H227582   2.295   5.292   7.885
 1983TIP3   OH227583   3.554   3.779   6.530
 1983TIP3    H127584   3.490   3.851   6.529
 1983TIP3    H227585   3.627   3.811   6.478
 1984TIP3   OH227586   1.953   4.931   7.591
 1984TIP3    H127587   1.901   4.944   7.511
 1984TIP3    H227588   1.963   4.836   7.598
 1985TIP3   OH227589   1.913   5.231   7.314
 1985TIP3    H127590   2.004   5.240   7.342
 1985TIP3    H227591   1.872   5.313   7.341
 1986TIP3   OH227592   3.746   5.296   7.900
 1986TIP3    H127593   3.732   5.202   7.884
 1986TIP3    H227594   3.660   5.329   7.926
 1987TIP3   OH227595   2.824   5.231   7.750
 1987TIP3    H127596   2.821   5.316   7.794
 1987TIP3    H227597   2.739   5.191   7.769
 1988TIP3   OH227598   2.946   5.626   6.706
 1988TIP3    H127599   2.907   5.635   6.619
 1988TIP3    H227600   2.907   5.697   6.757
 1989TIP3   OH227601   2.256   5.482   6.945
 1989TIP3    H127602   2.274   5.441   7.029
 1989TIP3    H227603   2.199   5.420   6.900
 1990TIP3   OH227604   3.179   5.500   6.657
 1990TIP3    H127605   3.094   5.535   6.684
 1990TIP3    H227606   3.204   5.441   6.728
 1991TIP3   OH227607   3.430   4.418   7.921
 1991TIP3    H127608   3.371   4.452   7.854
 1991TIP3    H227609   3.440   4.325   7.899
 1992TIP3   OH227610   2.156   5.069   7.711
 1992TIP3    H127611   2.243   5.047   7.678
 1992TIP3    H227612   2.095   5.029   7.649
 1993TIP3   OH227613   2.427   3.904   7.317
 1993TIP3    H127614   2.353   3.896   7.257
 1993TIP3    H227615   2.404   3.977   7.375
 1994TIP3   OH227616   2.912   3.870   7.659
 1994TIP3    H127617   2.959   3.826   7.730
 1994TIP3    H227618   2.820   3.863   7.683
 1995TIP3   OH227619   3.200   4.261   7.718
 1995TIP3    H127620   3.139   4.246   7.790
 1995TIP3    H227621   3.208   4.356   7.713
 1996TIP3   OH227622   2.943   4.118   6.449
 1996TIP3    H127623   2.854   4.110   6.482
 1996TIP3    H227624   2.938   4.095   6.357
 1997TIP3   OH227625   2.445   4.416   7.430
 1997TIP3    H127626   2.381   4.415   7.502
 1997TIP3    H227627   2.449   4.507   7.402
 1998TIP3   OH227628   2.454   4.423   6.909
 1998TIP3    H127629   2.359   4.416   6.902
 1998TIP3    H227630   2.486   4.422   6.819
 1999TIP3   OH227631   2.977   4.461   6.804
 1999TIP3    H127632   2.955   4.545   6.765
 1999TIP3    H227633   3.050   4.429   6.751
 2000TIP3   OH227634   2.911   4.470   7.924
 2000TIP3    H127635   2.858   4.399   7.957
 2000TIP3    H227636   2.995   4.461   7.969
 2001TIP3   OH227637   3.077   4.406   7.060
 2001TIP3    H127638   3.037   4.452   6.987
 2001TIP3    H227639   3.127   4.335   7.019
 2002TIP3   OH227640   2.226   4.416   7.601
 2002TIP3    H127641   2.264   4.445   7.683
 2002TIP3    H227642   2.180   4.335   7.623
 2003TIP3   OH227643   1.878   4.118   6.990
 2003TIP3    H127644   1.933   4.130   7.068
 2003TIP3    H227645   1.939   4.091   6.921
 2004TIP3   OH227646   1.969   4.240   6.579
 2004TIP3    H127647   2.020   4.286   6.512
 2004TIP3    H227648   1.954   4.305   6.647
 2005TIP3   OH227649   3.033   4.550   7.531
 2005TIP3    H127650   3.068   4.495   7.461
 2005TIP3    H227651   2.969   4.494   7.576
 2006TIP3   OH227652   2.746   4.142   7.020
 2006TIP3    H127653   2.656   4.148   7.054
 2006TIP3    H227654   2.796   4.107   7.094
 2007TIP3   OH227655   2.189   4.338   6.889
 2007TIP3    H127656   2.112   4.355   6.834
 2007TIP3    H227657   2.214   4.248   6.867
 2008TIP3   OH227658   2.557   4.380   6.649
 2008TIP3    H127659   2.632   4.348   6.698
 2008TIP3    H227660   2.594   4.422   6.571
 2009TIP3   OH227661   3.128   4.108   7.325
 2009TIP3    H127662   3.090   4.107   7.413
 2009TIP3    H227663   3.060   4.070   7.269
 2010TIP3   OH227664   3.478   5.662   7.986
 2010TIP3    H127665   3.497   5.704   7.902
 2010TIP3    H227666   3.552   5.685   8.042
 2011TIP3   OH227667   2.239   4.907   7.953
 2011TIP3    H127668   2.315   4.919   8.010
 2011TIP3    H227669   2.200   4.824   7.981
 2012TIP3   OH227670   2.816   4.467   7.210
 2012TIP3    H127671   2.888   4.425   7.163
 2012TIP3    H227672   2.793   4.405   7.279
 2013TIP3   OH227673   2.293   4.085   6.848
 2013TIP3    H127674   2.247   4.002   6.861
 2013TIP3    H227675   2.331   4.078   6.760
 2014TIP3   OH227676   2.707   4.320   7.433
 2014TIP3    H127677   2.622   4.362   7.439
 2014TIP3    H227678   2.754   4.349   7.511
 2015TIP3   OH227679   3.459   4.849   7.462
 2015TIP3    H127680   3.519   4.904   7.412
 2015TIP3    H227681   3.386   4.833   7.402
 2016TIP3   OH227682   2.891   4.940   7.753
 2016TIP3    H127683   2.932   4.909   7.835
 2016TIP3    H227684   2.877   5.033   7.768
 2017TIP3   OH227685   3.187   4.377   6.646
 2017TIP3    H127686   3.280   4.367   6.668
 2017TIP3    H227687   3.185   4.447   6.582
 2018TIP3   OH227688   2.265   4.864   7.199
 2018TIP3    H127689   2.306   4.841   7.116
 2018TIP3    H227690   2.297   4.798   7.261
 2019TIP3   OH227691   1.975   4.664   7.710
 2019TIP3    H127692   1.938   4.618   7.786
 2019TIP3    H227693   1.913   4.646   7.639
 2020TIP3   OH227694   2.701   4.655   7.931
 2020TIP3    H127695   2.665   4.647   7.843
 2020TIP3    H227696   2.785   4.608   7.927
 2021TIP3   OH227697   3.102   5.198   7.748
 2021TIP3    H127698   3.010   5.214   7.725
 2021TIP3    H227699   3.109   5.224   7.839
 2022TIP3   OH227700   3.656   4.436   6.615
 2022TIP3    H127701   3.635   4.402   6.528
 2022TIP3    H227702   3.660   4.531   6.603
 2023TIP3   OH227703   3.705   5.016   7.853
 2023TIP3    H127704   3.617   5.022   7.817
 2023TIP3    H227705   3.760   4.995   7.777
 2024TIP3   OH227706   3.247   4.783   7.282
 2024TIP3    H127707   3.152   4.774   7.276
 2024TIP3    H227708   3.281   4.708   7.234
 2025TIP3   OH227709   2.526   5.214   6.956
 2025TIP3    H127710   2.559   5.298   6.923
 2025TIP3    H227711   2.438   5.208   6.920
 2026TIP3   OH227712   2.585   4.942   6.871
 2026TIP3    H127713   2.614   5.031   6.851
 2026TIP3    H227714   2.564   4.945   6.964
 2027TIP3   OH227715   2.712   5.377   7.524
 2027TIP3    H127716   2.765   5.453   7.502
 2027TIP3    H227717   2.770   5.322   7.578
 2028TIP3   OH227718   2.514   5.475   6.846
 2028TIP3    H127719   2.422   5.487   6.871
 2028TIP3    H227720   2.557   5.555   6.876
 2029TIP3   OH227721   3.000   4.987   7.502
 2029TIP3    H127722   2.966   4.963   7.588
 2029TIP3    H227723   3.074   4.928   7.489
 2030TIP3   OH227724   3.328   5.139   6.435
 2030TIP3    H127725   3.334   5.082   6.512
 2030TIP3    H227726   3.235   5.155   6.424
 2031TIP3   OH227727   3.313   5.414   7.715
 2031TIP3    H127728   3.229   5.374   7.693
 2031TIP3    H227729   3.319   5.490   7.656
 2032TIP3   OH227730   2.098   4.169   7.654
 2032TIP3    H127731   2.008   4.200   7.645
 2032TIP3    H227732   2.091   4.090   7.708
 2033TIP3   OH227733   3.374   4.965   6.658
 2033TIP3    H127734   3.335   4.883   6.688
 2033TIP3    H227735   3.467   4.945   6.647
 2034TIP3   OH227736   2.118   5.384   7.518
 2034TIP3    H127737   2.178   5.323   7.560
 2034TIP3    H227738   2.125   5.464   7.570
 2035TIP3   OH227739   3.014   4.114   7.573
 2035TIP3    H127740   3.082   4.143   7.633
 2035TIP3    H227741   2.981   4.032   7.610
 2036TIP3   OH227742   3.072   4.078   6.697
 2036TIP3    H127743   3.039   4.101   6.610
 2036TIP3    H227744   3.114   4.158   6.728
 2037TIP3   OH227745   2.865   5.292   6.663
 2037TIP3    H127746   2.779   5.330   6.643
 2037TIP3    H227747   2.922   5.321   6.592
 2038TIP3   OH227748   2.770   4.282   6.785
 2038TIP3    H127749   2.844   4.343   6.789
 2038TIP3    H227750   2.764   4.245   6.873
 2039TIP3   OH227751   2.869   4.368   7.659
 2039TIP3    H127752   2.881   4.395   7.750
 2039TIP3    H227753   2.907   4.280   7.655
 2040TIP3   OH227754   2.852   3.964   6.827
 2040TIP3    H127755   2.828   4.034   6.889
 2040TIP3    H227756   2.932   3.996   6.785
 2041TIP3   OH227757   2.628   5.412   6.603
 2041TIP3    H127758   2.589   5.470   6.538
 2041TIP3    H227759   2.583   5.435   6.685
 2042TIP3   OH227760   2.426   4.134   6.600
 2042TIP3    H127761   2.452   4.225   6.614
 2042TIP3    H227762   2.508   4.088   6.582
 2043TIP3   OH227763   3.452   4.179   7.776
 2043TIP3    H127764   3.360   4.188   7.751
 2043TIP3    H227765   3.499   4.173   7.693
 2044TIP3   OH227766   3.325   4.537   7.155
 2044TIP3    H127767   3.240   4.498   7.132
 2044TIP3    H227768   3.367   4.472   7.211
 2045TIP3   OH227769   3.453   5.486   7.314
 2045TIP3    H127770   3.439   5.553   7.247
 2045TIP3    H227771   3.548   5.485   7.328
 2046TIP3   OH227772   2.176   3.883   7.194
 2046TIP3    H127773   2.170   3.876   7.099
 2046TIP3    H227774   2.144   3.799   7.226
 2047TIP3   OH227775   2.098   5.301   6.820
 2047TIP3    H127776   2.014   5.259   6.838
 2047TIP3    H227777   2.083   5.351   6.740
 2048TIP3   OH227778   2.021   5.578   8.000
 2048TIP3    H127779   2.072   5.545   8.074
 2048TIP3    H227780   1.955   5.510   7.984
 2049TIP3   OH227781   2.441   5.422   8.114
 2049TIP3    H127782   2.520   5.386   8.155
 2049TIP3    H227783   2.435   5.377   8.030
 2050TIP3   OH227784   3.099   5.253   8.017
 2050TIP3    H127785   3.091   5.168   8.061
 2050TIP3    H227786   3.176   5.293   8.058
 2051TIP3   OH227787   1.959   4.910   8.072
 2051TIP3    H127788   2.003   4.826   8.058
 2051TIP3    H227789   1.866   4.888   8.079
 2052TIP3   OH227790   2.652   4.929   8.006
 2052TIP3    H127791   2.645   4.976   7.922
 2052TIP3    H227792   2.686   4.843   7.981
 2053TIP3   OH227793   3.224   4.949   7.769
 2053TIP3    H127794   3.314   4.969   7.745
 2053TIP3    H227795   3.176   5.030   7.754
 2054TIP3   OH227796   2.112   4.681   8.029
 2054TIP3    H127797   2.147   4.610   7.976
 2054TIP3    H227798   2.122   4.651   8.119
 2055TIP3   OH227799   2.470   4.525   7.724
 2055TIP3    H127800   2.404   4.593   7.737
 2055TIP3    H227801   2.543   4.571   7.682
 2056TIP3   OH227802   3.001   4.781   8.042
 2056TIP3    H127803   3.078   4.741   8.003
 2056TIP3    H227804   2.968   4.715   8.103
 2057TIP3   OH227805   2.536   4.282   7.828
 2057TIP3    H127806   2.547   4.220   7.756
 2057TIP3    H227807   2.520   4.366   7.784
 2058TIP3   OH227808   2.567   4.122   7.595
 2058TIP3    H127809   2.622   4.168   7.531
 2058TIP3    H227810   2.481   4.120   7.554
 2059TIP3   OH227811   2.683   4.670   7.632
 2059TIP3    H127812   2.778   4.672   7.623
 2059TIP3    H227813   2.652   4.742   7.577
 2060TIP3   OH227814   3.130   4.423   8.094
 2060TIP3    H127815   3.130   4.347   8.153
 2060TIP3    H227816   3.223   4.439   8.077
 2061TIP3   OH227817   3.270   4.728   7.919
 2061TIP3    H127818   3.243   4.806   7.871
 2061TIP3    H227819   3.366   4.731   7.918
 2062TIP3   OH227820   2.366   4.347   8.043
 2062TIP3    H127821   2.293   4.287   8.026
 2062TIP3    H227822   2.422   4.340   7.966
 2063TIP3   OH227823   2.627   3.857   7.661
 2063TIP3    H127824   2.608   3.948   7.640
 2063TIP3    H227825   2.558   3.807   7.618
 2064TIP3   OH227826   2.758   4.255   7.993
 2064TIP3    H127827   2.717   4.227   8.075
 2064TIP3    H227828   2.686   4.260   7.931
 2065TIP3   OH227829   3.015   4.181   7.897
 2065TIP3    H127830   2.930   4.189   7.942
 2065TIP3    H227831   3.072   4.139   7.962
 2066TIP3   OH227832   3.204   4.071   8.077
 2066TIP3    H127833   3.195   3.977   8.087
 2066TIP3    H227834   3.175   4.107   8.160
 2067TIP3   OH227835   2.176   4.149   7.995
 2067TIP3    H127836   2.175   4.077   7.933
 2067TIP3    H227837   2.182   4.107   8.081
 2068TIP3   OH227838   2.630   3.782   7.926
 2068TIP3    H127839   2.687   3.706   7.919
 2068TIP3    H227840   2.622   3.815   7.836
 2069TIP3   OH227841   2.693   3.942   8.147
 2069TIP3    H127842   2.678   3.888   8.069
 2069TIP3    H227843   2.636   4.018   8.135
 2070TIP3   OH227844   1.889   5.641   6.901
 2070TIP3    H127845   1.842   5.604   6.826
 2070TIP3    H227846   1.905   5.567   6.959
 2071TIP3   OH227847   1.931   5.438   7.080
 2071TIP3    H127848   1.895   5.356   7.112
 2071TIP3    H227849   1.993   5.466   7.147
 2072TIP3   OH227850   3.719   5.490   7.390
 2072TIP3    H127851   3.713   5.510   7.483
 2072TIP3    H227852   3.791   5.545   7.358
 2073TIP3   OH227853   3.651   5.475   7.665
 2073TIP3    H127854   3.604   5.399   7.630
 2073TIP3    H227855   3.707   5.438   7.734
 2074TIP3   OH227856   3.508   5.053   8.188
 2074TIP3    H127857   3.424   5.068   8.230
 2074TIP3    H227858   3.555   5.136   8.196
 2075TIP3   OH227859   3.639   4.878   6.636
 2075TIP3    H127860   3.715   4.932   6.616
 2075TIP3    H227861   3.669   4.819   6.706
 2076TIP3   OH227862   3.702   4.689   6.843
 2076TIP3    H127863   3.616   4.657   6.871
 2076TIP3    H227864   3.749   4.705   6.925
 2077TIP3   OH227865   3.697   4.976   7.383
 2077TIP3    H127866   3.747   4.914   7.330
 2077TIP3    H227867   3.720   5.062   7.349
 2078TIP3   OH227868   3.497   5.252   7.584
 2078TIP3    H127869   3.425   5.301   7.623
 2078TIP3    H227870   3.470   5.238   7.493
 2079TIP3   OH227871   3.581   4.376   6.367
 2079TIP3    H127872   3.555   4.464   6.343
 2079TIP3    H227873   3.535   4.320   6.305
 2080TIP3   OH227874   3.459   4.570   6.913
 2080TIP3    H127875   3.453   4.481   6.880
 2080TIP3    H227876   3.420   4.566   7.001
 2081TIP3   OH227877   1.945   4.707   7.321
 2081TIP3    H127878   1.960   4.713   7.227
 2081TIP3    H227879   2.033   4.697   7.359
 2082TIP3   OH227880   3.548   4.751   7.916
 2082TIP3    H127881   3.604   4.677   7.894
 2082TIP3    H227882   3.584   4.825   7.867
 2083TIP3   OH227883   3.685   4.517   7.875
 2083TIP3    H127884   3.598   4.480   7.892
 2083TIP3    H227885   3.746   4.446   7.898
 2084TIP3   OH227886   3.447   4.172   6.238
 2084TIP3    H127887   3.465   4.099   6.297
 2084TIP3    H227888   3.353   4.187   6.247
 2085TIP3   OH227889   3.447   4.324   6.758
 2085TIP3    H127890   3.464   4.231   6.743
 2085TIP3    H227891   3.518   4.369   6.713
 2086TIP3   OH227892   3.475   4.346   7.306
 2086TIP3    H127893   3.567   4.360   7.283
 2086TIP3    H227894   3.470   4.368   7.399
 2087TIP3   OH227895   3.503   4.437   7.574
 2087TIP3    H127896   3.423   4.471   7.614
 2087TIP3    H227897   3.557   4.515   7.556
 2088TIP3   OH227898   1.950   4.297   7.969
 2088TIP3    H127899   2.036   4.254   7.971
 2088TIP3    H227900   1.888   4.226   7.951
 2089TIP3   OH227901   3.720   3.850   8.089
 2089TIP3    H127902   3.791   3.790   8.069
 2089TIP3    H227903   3.730   3.921   8.025
 2090TIP3   OH227904   3.483   4.053   6.738
 2090TIP3    H127905   3.519   4.023   6.822
 2090TIP3    H227906   3.411   3.992   6.720
 2091TIP3   OH227907   2.036   4.121   7.227
 2091TIP3    H127908   2.078   4.035   7.223
 2091TIP3    H227909   2.108   4.182   7.240
 2092TIP3   OH227910   1.866   4.425   7.283
 2092TIP3    H127911   1.937   4.407   7.221
 2092TIP3    H227912   1.885   4.512   7.318
 2093TIP3   OH227913   3.673   4.049   7.909
 2093TIP3    H127914   3.599   4.088   7.954
 2093TIP3    H227915   3.635   4.001   7.836
 2094TIP3   OH227916   1.967   4.010   6.731
 2094TIP3    H127917   1.879   3.974   6.717
 2094TIP3    H227918   1.970   4.087   6.673
 2095TIP3   OH227919   3.388   5.550   6.902
 2095TIP3    H127920   3.469   5.541   6.852
 2095TIP3    H227921   3.413   5.597   6.981
 2096TIP3   OH227922   1.913   3.882   7.553
 2096TIP3    H127923   1.845   3.877   7.620
 2096TIP3    H227924   1.883   3.950   7.493
 2097TIP3   OH227925   2.119   5.275   7.993
 2097TIP3    H127926   2.039   5.318   7.963
 2097TIP3    H227927   2.147   5.327   8.069
 2098TIP3   OH227928   2.450   5.359   7.605
 2098TIP3    H127929   2.419   5.446   7.577
 2098TIP3    H227930   2.543   5.358   7.583
 2099TIP3   OH227931   2.826   5.475   7.886
 2099TIP3    H127932   2.840   5.446   7.976
 2099TIP3    H227933   2.905   5.524   7.864
 2100TIP3   OH227934   3.058   5.615   7.847
 2100TIP3    H127935   3.128   5.579   7.792
 2100TIP3    H227936   3.103   5.645   7.926
 2101TIP3   OH227937   3.573   3.856   7.722
 2101TIP3    H127938   3.510   3.884   7.656
 2101TIP3    H227939   3.592   3.765   7.700
 2102TIP3   OH227940   2.140   5.640   7.628
 2102TIP3    H127941   2.062   5.680   7.591
 2102TIP3    H227942   2.156   5.690   7.709
 2103TIP3   OH227943   2.400   5.618   7.530
 2103TIP3    H127944   2.310   5.637   7.555
 2103TIP3    H227945   2.412   5.664   7.447
 2104TIP3   OH227946   2.858   5.595   7.440
 2104TIP3    H127947   2.815   5.634   7.363
 2104TIP3    H227948   2.876   5.670   7.497
 2105TIP3   OH227949   3.085   5.469   7.539
 2105TIP3    H127950   3.008   5.511   7.499
 2105TIP3    H227951   3.157   5.528   7.518
 2106TIP3   OH227952   3.327   5.613   7.523
 2106TIP3    H127953   3.350   5.705   7.512
 2106TIP3    H227954   3.367   5.569   7.449
 2107TIP3   OH227955   2.108   5.520   7.279
 2107TIP3    H127956   2.103   5.479   7.366
 2107TIP3    H227957   2.186   5.481   7.239
 2108TIP3   OH227958   2.322   5.377   7.194
 2108TIP3    H127959   2.314   5.288   7.229
 2108TIP3    H227960   2.412   5.403   7.215
 2109TIP3   OH227961   2.587   5.412   7.274
 2109TIP3    H127962   2.605   5.326   7.236
 2109TIP3    H227963   2.624   5.408   7.362
 2110TIP3   OH227964   2.916   3.981   7.179
 2110TIP3    H127965   2.854   3.910   7.199
 2110TIP3    H227966   2.990   3.937   7.137
 2111TIP3   OH227967   3.408   3.851   7.163
 2111TIP3    H127968   3.419   3.945   7.177
 2111TIP3    H227969   3.317   3.841   7.136
 2112TIP3   OH227970   3.637   3.980   6.960
 2112TIP3    H127971   3.699   3.979   6.888
 2112TIP3    H227972   3.656   4.061   7.007
 2113TIP3   OH227973   2.148   3.853   6.921
 2113TIP3    H127974   2.063   3.847   6.877
 2113TIP3    H227975   2.188   3.767   6.909
 2114TIP3   OH227976   2.026   3.772   6.580
 2114TIP3    H127977   2.016   3.790   6.487
 2114TIP3    H227978   2.030   3.858   6.621
 2115TIP3   OH227979   2.651   3.811   6.945
 2115TIP3    H127980   2.718   3.867   6.904
 2115TIP3    H227981   2.665   3.823   7.039
 2116TIP3   OH227982   3.144   3.854   7.071
 2116TIP3    H127983   3.143   3.848   6.976
 2116TIP3    H227984   3.107   3.770   7.101
 2117TIP3   OH227985   3.273   3.879   6.703
 2117TIP3    H127986   3.199   3.939   6.690
 2117TIP3    H227987   3.236   3.792   6.691
 2118TIP3   OH227988   2.010   5.455   6.614
 2118TIP3    H127989   2.031   5.424   6.526
 2118TIP3    H227990   1.919   5.482   6.608
 2119TIP3   OH227991   2.708   4.079   6.606
 2119TIP3    H127992   2.737   4.006   6.660
 2119TIP3    H227993   2.730   4.157   6.658
 2120TIP3   OH227994   3.616   5.513   6.722
 2120TIP3    H127995   3.641   5.424   6.696
 2120TIP3    H227996   3.662   5.570   6.661
 2121TIP3   OH227997   2.158   3.898   7.863
 2121TIP3    H127998   2.098   3.833   7.901
 2121TIP3    H227999   2.242   3.881   7.907
 2122TIP3   OH228000   2.369   3.825   8.026
 2122TIP3    H128001   2.458   3.804   8.000
 2122TIP3    H228002   2.339   3.747   8.074
 2123TIP3   OH228003   3.211   3.791   8.082
 2123TIP3    H128004   3.204   3.744   8.165
 2123TIP3    H228005   3.303   3.783   8.058
 2124TIP3   OH228006   3.486   5.391   7.936
 2124TIP3    H128007   3.427   5.385   7.861
 2124TIP3    H228008   3.485   5.484   7.960
 2125TIP3   OH228009   4.967   4.819   6.906
 2125TIP3    H128010   4.953   4.912   6.886
 2125TIP3    H228011   4.908   4.773   6.846
 2126TIP3   OH228012   4.836   4.710   7.310
 2126TIP3    H128013   4.866   4.662   7.387
 2126TIP3    H228014   4.793   4.643   7.256
 2127TIP3   OH228015   4.067   4.642   7.433
 2127TIP3    H128016   4.072   4.570   7.496
 2127TIP3    H228017   4.158   4.659   7.409
 2128TIP3   OH228018   5.197   5.087   7.108
 2128TIP3    H128019   5.171   4.996   7.124
 2128TIP3    H228020   5.237   5.115   7.190
 2129TIP3   OH228021   4.197   5.126   7.262
 2129TIP3    H128022   4.165   5.039   7.240
 2129TIP3    H228023   4.293   5.117   7.263
 2130TIP3   OH228024   3.837   4.433   6.821
 2130TIP3    H128025   3.816   4.525   6.836
 2130TIP3    H228026   3.783   4.408   6.746
 2131TIP3   OH228027   3.888   4.683   7.056
 2131TIP3    H128028   3.920   4.595   7.078
 2131TIP3    H228029   3.966   4.729   7.023
 2132TIP3   OH228030   4.918   5.505   7.138
 2132TIP3    H128031   4.977   5.436   7.110
 2132TIP3    H228032   4.890   5.477   7.226
 2133TIP3   OH228033   4.685   4.960   7.312
 2133TIP3    H128034   4.724   4.880   7.277
 2133TIP3    H228035   4.753   4.998   7.367
 2134TIP3   OH228036   5.572   4.095   7.410
 2134TIP3    H128037   5.589   4.162   7.476
 2134TIP3    H228038   5.623   4.123   7.334
 2135TIP3   OH228039   4.995   4.383   7.336
 2135TIP3    H128040   5.012   4.290   7.348
 2135TIP3    H228041   4.982   4.393   7.241
 2136TIP3   OH228042   4.349   4.192   7.054
 2136TIP3    H128043   4.357   4.277   7.009
 2136TIP3    H228044   4.298   4.138   6.994
 2137TIP3   OH228045   5.132   4.222   6.920
 2137TIP3    H128046   5.174   4.184   6.996
 2137TIP3    H228047   5.205   4.255   6.866
 2138TIP3   OH228048   3.979   4.432   7.136
 2138TIP3    H128049   4.044   4.396   7.197
 2138TIP3    H228050   4.008   4.402   7.050
 2139TIP3   OH228051   4.458   4.577   7.113
 2139TIP3    H128052   4.546   4.545   7.133
 2139TIP3    H228053   4.426   4.518   7.044
 2140TIP3   OH228054   5.604   4.260   7.631
 2140TIP3    H128055   5.533   4.321   7.613
 2140TIP3    H228056   5.626   4.275   7.723
 2141TIP3   OH228057   4.204   4.104   7.480
 2141TIP3    H128058   4.181   4.161   7.407
 2141TIP3    H228059   4.132   4.115   7.542
 2142TIP3   OH228060   4.923   5.072   6.795
 2142TIP3    H128061   4.901   5.061   6.702
 2142TIP3    H228062   4.890   5.159   6.817
 2143TIP3   OH228063   4.464   4.878   7.457
 2143TIP3    H128064   4.409   4.948   7.491
 2143TIP3    H228065   4.529   4.922   7.402
 2144TIP3   OH228066   5.229   4.151   7.163
 2144TIP3    H128067   5.161   4.130   7.227
 2144TIP3    H228068   5.287   4.211   7.209
 2145TIP3   OH228069   4.179   4.272   7.261
 2145TIP3    H128070   4.238   4.327   7.313
 2145TIP3    H228071   4.234   4.239   7.190
 2146TIP3   OH228072   4.315   5.079   7.575
 2146TIP3    H128073   4.321   5.173   7.560
 2146TIP3    H228074   4.224   5.064   7.599
 2147TIP3   OH228075   5.269   5.226   7.342
 2147TIP3    H128076   5.174   5.227   7.356
 2147TIP3    H228077   5.290   5.315   7.315
 2148TIP3   OH228078   5.322   3.994   7.496
 2148TIP3    H128079   5.253   4.043   7.453
 2148TIP3    H228080   5.403   4.023   7.454
 2149TIP3   OH228081   4.564   3.795   7.230
 2149TIP3    H128082   4.538   3.703   7.231
 2149TIP3    H228083   4.487   3.842   7.260
 2150TIP3   OH228084   5.077   5.318   7.017
 2150TIP3    H128085   5.116   5.234   7.042
 2150TIP3    H228086   5.149   5.366   6.976
 2151TIP3   OH228087   5.368   4.999   7.691
 2151TIP3    H128088   5.365   4.943   7.614
 2151TIP3    H228089   5.381   5.087   7.657
 2152TIP3   OH228090   4.834   4.695   6.692
 2152TIP3    H128091   4.765   4.758   6.673
 2152TIP3    H228092   4.891   4.698   6.615
 2153TIP3   OH228093   5.533   4.658   7.521
 2153TIP3    H128094   5.463   4.723   7.509
 2153TIP3    H228095   5.600   4.683   7.459
 2154TIP3   OH228096   5.193   4.744   6.763
 2154TIP3    H128097   5.125   4.775   6.823
 2154TIP3    H228098   5.252   4.692   6.818
 2155TIP3   OH228099   5.143   4.524   7.704
 2155TIP3    H128100   5.145   4.593   7.771
 2155TIP3    H228101   5.076   4.553   7.642
 2156TIP3   OH228102   4.322   4.790   6.974
 2156TIP3    H128103   4.275   4.760   6.897
 2156TIP3    H228104   4.374   4.714   7.002
 2157TIP3   OH228105   4.475   5.133   7.215
 2157TIP3    H128106   4.466   5.141   7.120
 2157TIP3    H228107   4.551   5.076   7.227
 2158TIP3   OH228108   4.327   4.672   7.337
 2158TIP3    H128109   4.374   4.648   7.257
 2158TIP3    H228110   4.377   4.745   7.373
 2159TIP3   OH228111   5.006   5.228   7.404
 2159TIP3    H128112   4.980   5.302   7.459
 2159TIP3    H228113   4.957   5.154   7.440
 2160TIP3   OH228114   4.467   5.090   7.804
 2160TIP3    H128115   4.411   5.151   7.851
 2160TIP3    H228116   4.419   5.070   7.724
 2161TIP3   OH228117   5.078   4.642   6.539
 2161TIP3    H128118   5.123   4.688   6.611
 2161TIP3    H228119   5.044   4.712   6.484
 2162TIP3   OH228120   4.136   4.687   7.775
 2162TIP3    H128121   4.145   4.774   7.815
 2162TIP3    H228122   4.049   4.688   7.736
 2163TIP3   OH228123   4.854   5.341   6.860
 2163TIP3    H128124   4.925   5.330   6.923
 2163TIP3    H228125   4.778   5.365   6.912
 2164TIP3   OH228126   4.279   5.281   7.876
 2164TIP3    H128127   4.282   5.314   7.787
 2164TIP3    H228128   4.186   5.268   7.895
 2165TIP3   OH228129   4.180   4.720   6.749
 2165TIP3    H128130   4.141   4.790   6.697
 2165TIP3    H228131   4.191   4.647   6.687
 2166TIP3   OH228132   3.835   4.939   7.625
 2166TIP3    H128133   3.786   4.951   7.544
 2166TIP3    H228134   3.851   4.845   7.630
 2167TIP3   OH228135   3.803   5.229   7.317
 2167TIP3    H128136   3.891   5.235   7.353
 2167TIP3    H228137   3.759   5.309   7.346
 2168TIP3   OH228138   5.629   5.293   7.897
 2168TIP3    H128139   5.615   5.199   7.887
 2168TIP3    H228140   5.544   5.328   7.923
 2169TIP3   OH228141   4.691   5.240   7.740
 2169TIP3    H128142   4.688   5.326   7.782
 2169TIP3    H228143   4.610   5.197   7.768
 2170TIP3   OH228144   4.158   5.496   6.932
 2170TIP3    H128145   4.165   5.456   7.019
 2170TIP3    H228146   4.103   5.436   6.882
 2171TIP3   OH228147   4.991   5.556   6.746
 2171TIP3    H128148   4.932   5.483   6.767
 2171TIP3    H228149   5.070   5.538   6.797
 2172TIP3   OH228150   5.307   4.408   7.911
 2172TIP3    H128151   5.255   4.433   7.835
 2172TIP3    H228152   5.321   4.314   7.900
 2173TIP3   OH228153   4.063   5.082   7.685
 2173TIP3    H128154   4.082   5.048   7.772
 2173TIP3    H228155   3.982   5.038   7.658
 2174TIP3   OH228156   4.317   3.905   7.318
 2174TIP3    H128157   4.243   3.899   7.258
 2174TIP3    H228158   4.295   3.978   7.376
 2175TIP3   OH228159   4.796   3.876   7.660
 2175TIP3    H128160   4.847   3.829   7.727
 2175TIP3    H228161   4.705   3.863   7.685
 2176TIP3   OH228162   5.086   4.252   7.719
 2176TIP3    H128163   5.026   4.241   7.792
 2176TIP3    H228164   5.095   4.346   7.709
 2177TIP3   OH228165   4.331   4.418   7.444
 2177TIP3    H128166   4.263   4.418   7.512
 2177TIP3    H228167   4.332   4.508   7.410
 2178TIP3   OH228168   4.339   4.427   6.912
 2178TIP3    H128169   4.244   4.416   6.909
 2178TIP3    H228170   4.367   4.418   6.821
 2179TIP3   OH228171   4.870   4.450   6.806
 2179TIP3    H128172   4.850   4.538   6.776
 2179TIP3    H228173   4.944   4.422   6.753
 2180TIP3   OH228174   4.795   4.471   7.923
 2180TIP3    H128175   4.741   4.399   7.956
 2180TIP3    H228176   4.881   4.457   7.961
 2181TIP3   OH228177   4.970   4.398   7.063
 2181TIP3    H128178   4.925   4.441   6.990
 2181TIP3    H228179   5.020   4.327   7.022
 2182TIP3   OH228180   4.112   4.426   7.612
 2182TIP3    H128181   4.106   4.474   7.695
 2182TIP3    H228182   4.069   4.342   7.630
 2183TIP3   OH228183   4.412   4.200   6.289
 2183TIP3    H128184   4.342   4.151   6.332
 2183TIP3    H228185   4.403   4.178   6.196
 2184TIP3   OH228186   3.755   4.206   7.044
 2184TIP3    H128187   3.822   4.190   7.110
 2184TIP3    H228188   3.795   4.265   6.981
 2185TIP3   OH228189   3.887   4.200   6.547
 2185TIP3    H128190   3.929   4.174   6.465
 2185TIP3    H228191   3.855   4.289   6.530
 2186TIP3   OH228192   4.915   4.553   7.529
 2186TIP3    H128193   4.952   4.497   7.462
 2186TIP3    H228194   4.854   4.496   7.577
 2187TIP3   OH228195   4.628   4.141   6.998
 2187TIP3    H128196   4.539   4.151   7.032
 2187TIP3    H228197   4.680   4.113   7.073
 2188TIP3   OH228198   4.079   4.335   6.902
 2188TIP3    H128199   4.003   4.360   6.850
 2188TIP3    H228200   4.102   4.247   6.871
 2189TIP3   OH228201   4.409   4.373   6.650
 2189TIP3    H128202   4.503   4.361   6.662
 2189TIP3    H228203   4.401   4.413   6.564
 2190TIP3   OH228204   5.014   4.105   7.338
 2190TIP3    H128205   4.968   4.107   7.422
 2190TIP3    H228206   4.952   4.065   7.278
 2191TIP3   OH228207   5.358   5.675   7.978
 2191TIP3    H128208   5.384   5.708   7.892
 2191TIP3    H228209   5.396   5.738   8.040
 2192TIP3   OH228210   4.123   4.927   7.924
 2192TIP3    H128211   4.190   4.928   7.992
 2192TIP3    H228212   4.041   4.943   7.970
 2193TIP3   OH228213   4.703   4.470   7.210
 2193TIP3    H128214   4.772   4.422   7.165
 2193TIP3    H228215   4.672   4.410   7.277
 2194TIP3   OH228216   4.189   4.082   6.856
 2194TIP3    H128217   4.142   3.999   6.865
 2194TIP3    H228218   4.232   4.076   6.770
 2195TIP3   OH228219   4.591   4.325   7.426
 2195TIP3    H128220   4.503   4.361   7.438
 2195TIP3    H228221   4.637   4.347   7.507
 2196TIP3   OH228222   4.651   4.884   6.628
 2196TIP3    H128223   4.604   4.876   6.545
 2196TIP3    H228224   4.585   4.916   6.690
 2197TIP3   OH228225   5.343   4.851   7.461
 2197TIP3    H128226   5.404   4.903   7.410
 2197TIP3    H228227   5.271   4.832   7.401
 2198TIP3   OH228228   4.749   4.925   7.741
 2198TIP3    H128229   4.693   4.850   7.718
 2198TIP3    H228230   4.696   5.001   7.719
 2199TIP3   OH228231   5.073   4.379   6.629
 2199TIP3    H128232   5.162   4.356   6.657
 2199TIP3    H228233   5.080   4.468   6.594
 2200TIP3   OH228234   4.160   4.861   7.185
 2200TIP3    H128235   4.213   4.850   7.106
 2200TIP3    H228236   4.189   4.790   7.243
 2201TIP3   OH228237   4.864   5.059   6.523
 2201TIP3    H128238   4.771   5.043   6.538
 2201TIP3    H228239   4.896   4.981   6.479
 2202TIP3   OH228240   3.863   4.667   7.709
 2202TIP3    H128241   3.832   4.631   7.792
 2202TIP3    H228242   3.795   4.646   7.646
 2203TIP3   OH228243   4.577   4.651   7.947
 2203TIP3    H128244   4.513   4.616   7.886
 2203TIP3    H228245   4.658   4.604   7.928
 2204TIP3   OH228246   4.949   5.164   7.799
 2204TIP3    H128247   4.870   5.204   7.762
 2204TIP3    H228248   4.977   5.225   7.867
 2205TIP3   OH228249   5.543   4.411   6.568
 2205TIP3    H128250   5.503   4.381   6.486
 2205TIP3    H228251   5.571   4.501   6.550
 2206TIP3   OH228252   5.592   5.007   7.849
 2206TIP3    H128253   5.503   5.015   7.815
 2206TIP3    H228254   5.647   4.992   7.772
 2207TIP3   OH228255   5.127   4.775   7.291
 2207TIP3    H128256   5.034   4.769   7.273
 2207TIP3    H228257   5.166   4.701   7.244
 2208TIP3   OH228258   4.400   5.211   6.952
 2208TIP3    H128259   4.424   5.297   6.916
 2208TIP3    H228260   4.304   5.209   6.945
 2209TIP3   OH228261   4.472   4.974   6.820
 2209TIP3    H128262   4.459   5.059   6.863
 2209TIP3    H228263   4.423   4.913   6.875
 2210TIP3   OH228264   4.596   5.385   7.518
 2210TIP3    H128265   4.653   5.459   7.498
 2210TIP3    H228266   4.647   5.331   7.579
 2211TIP3   OH228267   4.420   5.475   6.848
 2211TIP3    H128268   4.329   5.495   6.869
 2211TIP3    H228269   4.468   5.554   6.873
 2212TIP3   OH228270   4.899   4.985   7.495
 2212TIP3    H128271   4.872   4.948   7.579
 2212TIP3    H228272   4.961   4.921   7.459
 2213TIP3   OH228273   5.197   5.424   7.708
 2213TIP3    H128274   5.109   5.402   7.677
 2213TIP3    H228275   5.222   5.501   7.657
 2214TIP3   OH228276   3.992   4.165   7.652
 2214TIP3    H128277   3.901   4.189   7.636
 2214TIP3    H228278   3.988   4.089   7.710
 2215TIP3   OH228279   3.997   5.358   7.522
 2215TIP3    H128280   4.028   5.283   7.571
 2215TIP3    H228281   4.012   5.433   7.580
 2216TIP3   OH228282   4.536   5.166   6.509
 2216TIP3    H128283   4.478   5.113   6.563
 2216TIP3    H228284   4.517   5.256   6.534
 2217TIP3   OH228285   4.076   4.903   6.565
 2217TIP3    H128286   4.005   4.966   6.557
 2217TIP3    H228287   4.134   4.923   6.491
 2218TIP3   OH228288   4.882   4.126   7.580
 2218TIP3    H128289   4.958   4.147   7.635
 2218TIP3    H228290   4.852   4.041   7.612
 2219TIP3   OH228291   4.977   4.097   6.729
 2219TIP3    H128292   4.990   4.167   6.665
 2219TIP3    H228293   5.024   4.128   6.807
 2220TIP3   OH228294   4.659   4.279   6.749
 2220TIP3    H128295   4.730   4.341   6.767
 2220TIP3    H228296   4.640   4.239   6.834
 2221TIP3   OH228297   4.750   4.369   7.652
 2221TIP3    H128298   4.763   4.387   7.746
 2221TIP3    H228299   4.789   4.283   7.639
 2222TIP3   OH228300   4.747   3.958   6.822
 2222TIP3    H128301   4.715   4.024   6.884
 2222TIP3    H228302   4.831   3.993   6.792
 2223TIP3   OH228303   4.479   5.422   6.581
 2223TIP3    H128304   4.519   5.504   6.550
 2223TIP3    H228305   4.453   5.441   6.671
 2224TIP3   OH228306   4.335   4.102   6.622
 2224TIP3    H128307   4.342   4.197   6.621
 2224TIP3    H228308   4.423   4.071   6.600
 2225TIP3   OH228309   5.335   4.159   7.775
 2225TIP3    H128310   5.243   4.174   7.755
 2225TIP3    H228311   5.376   4.141   7.690
 2226TIP3   OH228312   5.211   4.535   7.160
 2226TIP3    H128313   5.129   4.491   7.137
 2226TIP3    H228314   5.258   4.471   7.214
 2227TIP3   OH228315   5.339   5.492   7.305
 2227TIP3    H128316   5.325   5.551   7.231
 2227TIP3    H228317   5.433   5.493   7.319
 2228TIP3   OH228318   4.067   3.885   7.195
 2228TIP3    H128319   4.061   3.878   7.100
 2228TIP3    H228320   4.033   3.801   7.227
 2229TIP3   OH228321   4.012   5.322   6.787
 2229TIP3    H128322   3.938   5.263   6.800
 2229TIP3    H228323   4.019   5.333   6.692
 2230TIP3   OH228324   3.911   5.560   7.983
 2230TIP3    H128325   3.966   5.533   8.056
 2230TIP3    H228326   3.881   5.478   7.944
 2231TIP3   OH228327   4.317   5.427   8.112
 2231TIP3    H128328   4.402   5.404   8.149
 2231TIP3    H228329   4.311   5.375   8.032
 2232TIP3   OH228330   5.014   5.251   8.055
 2232TIP3    H128331   5.002   5.169   8.102
 2232TIP3    H228332   5.094   5.289   8.093
 2233TIP3   OH228333   3.875   4.939   8.061
 2233TIP3    H128334   3.882   4.844   8.052
 2233TIP3    H228335   3.808   4.964   7.997
 2234TIP3   OH228336   4.544   4.925   8.014
 2234TIP3    H128337   4.523   4.970   7.932
 2234TIP3    H228338   4.561   4.835   7.987
 2235TIP3   OH228339   5.112   4.949   7.778
 2235TIP3    H128340   5.205   4.956   7.754
 2235TIP3    H228341   5.074   5.032   7.752
 2236TIP3   OH228342   3.957   4.671   8.016
 2236TIP3    H128343   4.034   4.653   7.963
 2236TIP3    H228344   3.987   4.663   8.107
 2237TIP3   OH228345   4.391   4.560   7.752
 2237TIP3    H128346   4.307   4.606   7.755
 2237TIP3    H228347   4.447   4.616   7.698
 2238TIP3   OH228348   4.912   4.755   8.029
 2238TIP3    H128349   4.994   4.708   8.012
 2238TIP3    H228350   4.861   4.696   8.082
 2239TIP3   OH228351   4.422   4.292   7.822
 2239TIP3    H128352   4.430   4.233   7.748
 2239TIP3    H228353   4.414   4.379   7.783
 2240TIP3   OH228354   4.454   4.126   7.593
 2240TIP3    H128355   4.509   4.165   7.525
 2240TIP3    H228356   4.366   4.121   7.554
 2241TIP3   OH228357   4.595   4.712   7.628
 2241TIP3    H128358   4.657   4.659   7.577
 2241TIP3    H228359   4.549   4.765   7.563
 2242TIP3   OH228360   5.025   4.423   8.090
 2242TIP3    H128361   5.023   4.347   8.148
 2242TIP3    H228362   5.118   4.432   8.066
 2243TIP3   OH228363   5.176   4.716   7.909
 2243TIP3    H128364   5.153   4.797   7.863
 2243TIP3    H228365   5.272   4.718   7.913
 2244TIP3   OH228366   4.255   4.344   8.044
 2244TIP3    H128367   4.176   4.293   8.028
 2244TIP3    H228368   4.305   4.336   7.963
 2245TIP3   OH228369   4.512   3.859   7.662
 2245TIP3    H128370   4.492   3.950   7.640
 2245TIP3    H228371   4.443   3.809   7.618
 2246TIP3   OH228372   4.640   4.257   7.992
 2246TIP3    H128373   4.596   4.230   8.073
 2246TIP3    H228374   4.569   4.262   7.927
 2247TIP3   OH228375   4.904   4.190   7.907
 2247TIP3    H128376   4.817   4.189   7.948
 2247TIP3    H228377   4.960   4.142   7.968
 2248TIP3   OH228378   5.089   4.066   8.079
 2248TIP3    H128379   5.083   3.971   8.087
 2248TIP3    H228380   5.058   4.100   8.162
 2249TIP3   OH228381   4.049   4.157   7.999
 2249TIP3    H128382   4.052   4.083   7.939
 2249TIP3    H228383   4.054   4.118   8.086
 2250TIP3   OH228384   4.515   3.784   7.926
 2250TIP3    H128385   4.572   3.707   7.921
 2250TIP3    H228386   4.508   3.815   7.835
 2251TIP3   OH228387   4.581   3.948   8.141
 2251TIP3    H128388   4.566   3.890   8.066
 2251TIP3    H228389   4.523   4.022   8.127
 2252TIP3   OH228390   4.595   5.648   6.433
 2252TIP3    H128391   4.569   5.607   6.350
 2252TIP3    H228392   4.544   5.729   6.437
 2253TIP3   OH228393   3.781   5.620   6.917
 2253TIP3    H128394   3.723   5.580   6.852
 2253TIP3    H228395   3.801   5.548   6.978
 2254TIP3   OH228396   3.828   5.415   7.090
 2254TIP3    H128397   3.799   5.332   7.128
 2254TIP3    H228398   3.884   5.454   7.157
 2255TIP3   OH228399   5.604   5.499   7.382
 2255TIP3    H128400   5.601   5.507   7.477
 2255TIP3    H228401   5.683   5.547   7.356
 2256TIP3   OH228402   5.546   5.469   7.657
 2256TIP3    H128403   5.499   5.391   7.629
 2256TIP3    H228404   5.601   5.439   7.729
 2257TIP3   OH228405   5.361   5.051   8.184
 2257TIP3    H128406   5.281   5.068   8.235
 2257TIP3    H228407   5.414   5.130   8.196
 2258TIP3   OH228408   5.568   4.890   6.665
 2258TIP3    H128409   5.652   4.937   6.672
 2258TIP3    H228410   5.566   4.833   6.741
 2259TIP3   OH228411   5.586   4.699   6.865
 2259TIP3    H128412   5.503   4.659   6.893
 2259TIP3    H228413   5.639   4.703   6.945
 2260TIP3   OH228414   5.575   4.976   7.373
 2260TIP3    H128415   5.630   4.907   7.337
 2260TIP3    H228416   5.609   5.057   7.334
 2261TIP3   OH228417   5.383   5.253   7.592
 2261TIP3    H128418   5.312   5.305   7.628
 2261TIP3    H228419   5.358   5.239   7.500
 2262TIP3   OH228420   5.579   4.673   6.495
 2262TIP3    H128421   5.492   4.688   6.458
 2262TIP3    H228422   5.591   4.746   6.557
 2263TIP3   OH228423   5.433   4.354   6.319
 2263TIP3    H128424   5.348   4.362   6.274
 2263TIP3    H228425   5.471   4.274   6.284
 2264TIP3   OH228426   5.346   4.566   6.918
 2264TIP3    H128427   5.343   4.477   6.881
 2264TIP3    H228428   5.305   4.558   7.004
 2265TIP3   OH228429   3.832   4.728   7.323
 2265TIP3    H128430   3.844   4.724   7.228
 2265TIP3    H228431   3.919   4.710   7.359
 2266TIP3   OH228432   5.447   4.758   7.916
 2266TIP3    H128433   5.497   4.677   7.903
 2266TIP3    H228434   5.499   4.826   7.873
 2267TIP3   OH228435   5.560   4.514   7.900
 2267TIP3    H128436   5.474   4.473   7.904
 2267TIP3    H228437   5.622   4.442   7.911
 2268TIP3   OH228438   5.335   4.317   6.743
 2268TIP3    H128439   5.362   4.226   6.746
 2268TIP3    H228440   5.402   4.360   6.689
 2269TIP3   OH228441   5.363   4.348   7.307
 2269TIP3    H128442   5.455   4.359   7.283
 2269TIP3    H228443   5.361   4.366   7.401
 2270TIP3   OH228444   5.388   4.432   7.574
 2270TIP3    H128445   5.307   4.466   7.612
 2270TIP3    H228446   5.442   4.509   7.557
 2271TIP3   OH228447   3.821   4.279   7.904
 2271TIP3    H128448   3.907   4.255   7.937
 2271TIP3    H228449   3.767   4.201   7.917
 2272TIP3   OH228450   5.606   3.856   8.098
 2272TIP3    H128451   5.678   3.796   8.078
 2272TIP3    H228452   5.613   3.924   8.030
 2273TIP3   OH228453   5.397   4.049   6.757
 2273TIP3    H128454   5.415   4.006   6.841
 2273TIP3    H228455   5.329   3.995   6.717
 2274TIP3   OH228456   3.934   4.126   7.244
 2274TIP3    H128457   3.973   4.039   7.233
 2274TIP3    H228458   4.009   4.185   7.253
 2275TIP3   OH228459   3.743   4.417   7.297
 2275TIP3    H128460   3.811   4.406   7.230
 2275TIP3    H228461   3.763   4.501   7.337
 2276TIP3   OH228462   5.549   4.032   7.897
 2276TIP3    H128463   5.469   4.085   7.899
 2276TIP3    H228464   5.536   3.970   7.826
 2277TIP3   OH228465   3.777   4.033   6.734
 2277TIP3    H128466   3.691   4.049   6.696
 2277TIP3    H228467   3.837   4.086   6.681
 2278TIP3   OH228468   5.241   5.505   6.884
 2278TIP3    H128469   5.317   5.515   6.827
 2278TIP3    H228470   5.261   5.561   6.960
 2279TIP3   OH228471   3.804   3.895   7.558
 2279TIP3    H128472   3.736   3.889   7.625
 2279TIP3    H228473   3.771   3.959   7.495
 2280TIP3   OH228474   4.016   5.254   7.965
 2280TIP3    H128475   3.927   5.262   7.933
 2280TIP3    H228476   4.008   5.253   8.061
 2281TIP3   OH228477   4.337   5.357   7.607
 2281TIP3    H128478   4.300   5.441   7.581
 2281TIP3    H228479   4.429   5.361   7.581
 2282TIP3   OH228480   4.710   5.482   7.866
 2282TIP3    H128481   4.722   5.448   7.955
 2282TIP3    H228482   4.790   5.531   7.849
 2283TIP3   OH228483   4.948   5.617   7.844
 2283TIP3    H128484   5.024   5.598   7.789
 2283TIP3    H228485   4.985   5.640   7.929
 2284TIP3   OH228486   5.464   3.842   7.713
 2284TIP3    H128487   5.398   3.871   7.650
 2284TIP3    H228488   5.479   3.749   7.691
 2285TIP3   OH228489   4.028   5.634   7.626
 2285TIP3    H128490   3.950   5.674   7.586
 2285TIP3    H228491   4.042   5.685   7.706
 2286TIP3   OH228492   4.286   5.617   7.529
 2286TIP3    H128493   4.195   5.630   7.556
 2286TIP3    H228494   4.295   5.665   7.447
 2287TIP3   OH228495   4.756   5.596   7.436
 2287TIP3    H128496   4.702   5.633   7.365
 2287TIP3    H228497   4.768   5.669   7.497
 2288TIP3   OH228498   4.977   5.469   7.538
 2288TIP3    H128499   4.898   5.512   7.505
 2288TIP3    H228500   5.048   5.530   7.517
 2289TIP3   OH228501   5.216   5.619   7.516
 2289TIP3    H128502   5.236   5.711   7.504
 2289TIP3    H228503   5.257   5.575   7.441
 2290TIP3   OH228504   3.994   5.514   7.291
 2290TIP3    H128505   3.991   5.468   7.375
 2290TIP3    H228506   4.072   5.478   7.248
 2291TIP3   OH228507   4.207   5.387   7.181
 2291TIP3    H128508   4.193   5.296   7.208
 2291TIP3    H228509   4.296   5.407   7.209
 2292TIP3   OH228510   4.469   5.408   7.271
 2292TIP3    H128511   4.477   5.316   7.244
 2292TIP3    H228512   4.504   5.409   7.361
 2293TIP3   OH228513   4.798   3.990   7.171
 2293TIP3    H128514   4.738   3.919   7.191
 2293TIP3    H228515   4.872   3.947   7.126
 2294TIP3   OH228516   5.289   3.816   7.158
 2294TIP3    H128517   5.352   3.872   7.113
 2294TIP3    H228518   5.204   3.860   7.143
 2295TIP3   OH228519   5.476   3.920   6.990
 2295TIP3    H128520   5.547   3.862   6.960
 2295TIP3    H228521   5.521   4.001   7.015
 2296TIP3   OH228522   4.041   3.849   6.920
 2296TIP3    H128523   3.953   3.851   6.881
 2296TIP3    H228524   4.071   3.759   6.908
 2297TIP3   OH228525   4.524   3.803   6.943
 2297TIP3    H128526   4.589   3.859   6.901
 2297TIP3    H228527   4.544   3.807   7.036
 2298TIP3   OH228528   5.016   3.857   7.064
 2298TIP3    H128529   5.043   3.837   6.974
 2298TIP3    H228530   4.997   3.772   7.103
 2299TIP3   OH228531   5.183   3.896   6.684
 2299TIP3    H128532   5.105   3.952   6.679
 2299TIP3    H228533   5.147   3.807   6.690
 2300TIP3   OH228534   4.610   4.044   6.597
 2300TIP3    H128535   4.655   3.994   6.665
 2300TIP3    H228536   4.624   4.135   6.621
 2301TIP3   OH228537   5.455   5.520   6.694
 2301TIP3    H128538   5.426   5.474   6.615
 2301TIP3    H228539   5.470   5.610   6.665
 2302TIP3   OH228540   4.046   3.903   7.864
 2302TIP3    H128541   3.985   3.841   7.903
 2302TIP3    H228542   4.129   3.886   7.908
 2303TIP3   OH228543   4.254   3.827   8.030
 2303TIP3    H128544   4.343   3.807   8.002
 2303TIP3    H228545   4.225   3.750   8.078
 2304TIP3   OH228546   5.101   3.786   8.085
 2304TIP3    H128547   5.091   3.731   8.163
 2304TIP3    H228548   5.192   3.772   8.058
 2305TIP3   OH228549   5.372   5.404   7.929
 2305TIP3    H128550   5.312   5.399   7.854
 2305TIP3    H228551   5.375   5.497   7.951
 2306TIP3   OH228552   6.826   4.790   6.916
 2306TIP3    H128553   6.807   4.884   6.917
 2306TIP3    H228554   6.776   4.757   6.842
 2307TIP3   OH228555   6.724   4.708   7.298
 2307TIP3    H128556   6.740   4.663   7.381
 2307TIP3    H228557   6.670   4.647   7.248
 2308TIP3   OH228558   5.946   4.637   7.445
 2308TIP3    H128559   5.958   4.569   7.512
 2308TIP3    H228560   6.034   4.659   7.417
 2309TIP3   OH228561   7.122   4.994   7.151
 2309TIP3    H128562   7.069   4.929   7.197
 2309TIP3    H228563   7.131   5.067   7.213
 2310TIP3   OH228564   6.070   5.120   7.246
 2310TIP3    H128565   6.043   5.031   7.224
 2310TIP3    H228566   6.164   5.114   7.258
 2311TIP3   OH228567   5.725   4.461   6.791
 2311TIP3    H128568   5.684   4.546   6.809
 2311TIP3    H228569   5.669   4.422   6.724
 2312TIP3   OH228570   5.779   4.692   7.072
 2312TIP3    H128571   5.808   4.601   7.085
 2312TIP3    H228572   5.860   4.743   7.070
 2313TIP3   OH228573   6.840   5.515   7.156
 2313TIP3    H128574   6.870   5.452   7.091
 2313TIP3    H228575   6.799   5.461   7.224
 2314TIP3   OH228576   6.561   4.963   7.318
 2314TIP3    H128577   6.601   4.896   7.263
 2314TIP3    H228578   6.632   4.990   7.377
 2315TIP3   OH228579   6.886   4.373   7.327
 2315TIP3    H128580   6.898   4.279   7.338
 2315TIP3    H228581   6.863   4.385   7.235
 2316TIP3   OH228582   6.221   4.177   7.051
 2316TIP3    H128583   6.233   4.264   7.011
 2316TIP3    H228584   6.165   4.130   6.989
 2317TIP3   OH228585   6.985   4.222   6.919
 2317TIP3    H128586   7.031   4.165   6.980
 2317TIP3    H228587   7.052   4.253   6.859
 2318TIP3   OH228588   5.866   4.434   7.134
 2318TIP3    H128589   5.932   4.393   7.191
 2318TIP3    H228590   5.889   4.405   7.046
 2319TIP3   OH228591   6.338   4.577   7.116
 2319TIP3    H128592   6.426   4.546   7.138
 2319TIP3    H228593   6.306   4.514   7.050
 2320TIP3   OH228594   6.096   4.104   7.489
 2320TIP3    H128595   6.072   4.165   7.418
 2320TIP3    H228596   6.026   4.113   7.553
 2321TIP3   OH228597   6.710   5.037   6.849
 2321TIP3    H128598   6.618   5.009   6.854
 2321TIP3    H228599   6.705   5.133   6.841
 2322TIP3   OH228600   6.348   4.871   7.468
 2322TIP3    H128601   6.297   4.943   7.504
 2322TIP3    H228602   6.417   4.914   7.418
 2323TIP3   OH228603   7.095   4.107   7.142
 2323TIP3    H128604   7.023   4.096   7.204
 2323TIP3    H228605   7.157   4.164   7.188
 2324TIP3   OH228606   6.062   4.271   7.265
 2324TIP3    H128607   6.119   4.329   7.315
 2324TIP3    H228608   6.119   4.236   7.196
 2325TIP3   OH228609   6.198   5.079   7.577
 2325TIP3    H128610   6.205   5.173   7.560
 2325TIP3    H228611   6.106   5.066   7.602
 2326TIP3   OH228612   5.798   5.054   6.642
 2326TIP3    H128613   5.771   5.107   6.567
 2326TIP3    H228614   5.804   5.117   6.714
 2327TIP3   OH228615   7.136   5.206   7.341
 2327TIP3    H128616   7.041   5.211   7.354
 2327TIP3    H228617   7.161   5.296   7.321
 2328TIP3   OH228618   7.160   4.021   7.435
 2328TIP3    H128619   7.067   4.032   7.412
 2328TIP3    H228620   7.203   4.097   7.397
 2329TIP3   OH228621   6.411   3.787   7.201
 2329TIP3    H128622   6.386   3.696   7.218
 2329TIP3    H228623   6.339   3.838   7.237
 2330TIP3   OH228624   6.946   5.342   6.964
 2330TIP3    H128625   6.983   5.255   6.949
 2330TIP3    H228626   7.022   5.400   6.970
 2331TIP3   OH228627   7.081   5.112   6.900
 2331TIP3    H128628   7.117   5.060   6.827
 2331TIP3    H228629   7.099   5.059   6.978
 2332TIP3   OH228630   7.236   4.960   7.719
 2332TIP3    H128631   7.230   4.911   7.637
 2332TIP3    H228632   7.258   5.049   7.692
 2333TIP3   OH228633   6.700   4.703   6.686
 2333TIP3    H128634   6.614   4.732   6.656
 2333TIP3    H228635   6.761   4.737   6.620
 2334TIP3   OH228636   7.070   4.737   6.797
 2334TIP3    H128637   6.989   4.751   6.845
 2334TIP3    H228638   7.119   4.674   6.849
 2335TIP3   OH228639   7.002   4.535   7.709
 2335TIP3    H128640   6.989   4.603   7.776
 2335TIP3    H228641   6.939   4.555   7.641
 2336TIP3   OH228642   6.215   4.786   6.973
 2336TIP3    H128643   6.179   4.747   6.893
 2336TIP3    H228644   6.266   4.715   7.013
 2337TIP3   OH228645   6.351   5.131   7.228
 2337TIP3    H128646   6.352   5.138   7.132
 2337TIP3    H228647   6.428   5.078   7.248
 2338TIP3   OH228648   6.202   4.680   7.336
 2338TIP3    H128649   6.253   4.654   7.260
 2338TIP3    H228650   6.255   4.746   7.380
 2339TIP3   OH228651   6.873   5.234   7.409
 2339TIP3    H128652   6.861   5.300   7.477
 2339TIP3    H228653   6.831   5.156   7.444
 2340TIP3   OH228654   6.353   5.109   7.805
 2340TIP3    H128655   6.291   5.169   7.847
 2340TIP3    H228656   6.308   5.081   7.725
 2341TIP3   OH228657   6.051   4.707   7.746
 2341TIP3    H128658   6.051   4.784   7.803
 2341TIP3    H228659   5.962   4.702   7.711
 2342TIP3   OH228660   6.693   5.317   6.841
 2342TIP3    H128661   6.768   5.336   6.898
 2342TIP3    H228662   6.669   5.403   6.805
 2343TIP3   OH228663   6.153   5.288   7.875
 2343TIP3    H128664   6.151   5.314   7.783
 2343TIP3    H228665   6.061   5.267   7.895
 2344TIP3   OH228666   7.271   3.965   6.538
 2344TIP3    H128667   7.189   3.931   6.574
 2344TIP3    H228668   7.244   4.025   6.469
 2345TIP3   OH228669   6.098   4.677   6.747
 2345TIP3    H128670   6.065   4.749   6.694
 2345TIP3    H228671   6.043   4.603   6.723
 2346TIP3   OH228672   5.720   4.940   7.619
 2346TIP3    H128673   5.672   4.944   7.536
 2346TIP3    H228674   5.737   4.847   7.633
 2347TIP3   OH228675   5.713   5.212   7.292
 2347TIP3    H128676   5.806   5.199   7.306
 2347TIP3    H228677   5.689   5.284   7.350
 2348TIP3   OH228678   6.591   5.233   7.748
 2348TIP3    H128679   6.587   5.318   7.793
 2348TIP3    H228680   6.506   5.192   7.767
 2349TIP3   OH228681   6.666   5.576   6.723
 2349TIP3    H128682   6.665   5.574   6.627
 2349TIP3    H228683   6.645   5.667   6.745
 2350TIP3   OH228684   5.974   5.460   6.909
 2350TIP3    H128685   6.067   5.461   6.930
 2350TIP3    H228686   5.930   5.436   6.991
 2351TIP3   OH228687   6.937   5.528   6.749
 2351TIP3    H128688   6.853   5.556   6.713
 2351TIP3    H228689   6.917   5.450   6.801
 2352TIP3   OH228690   7.173   4.440   7.948
 2352TIP3    H128691   7.143   4.482   7.868
 2352TIP3    H228692   7.252   4.392   7.923
 2353TIP3   OH228693   5.942   5.091   7.684
 2353TIP3    H128694   5.967   5.050   7.767
 2353TIP3    H228695   5.865   5.042   7.656
 2354TIP3   OH228696   6.190   3.907   7.317
 2354TIP3    H128697   6.114   3.903   7.260
 2354TIP3    H228698   6.173   3.980   7.376
 2355TIP3   OH228699   6.675   3.916   7.729
 2355TIP3    H128700   6.738   3.899   7.799
 2355TIP3    H228701   6.610   3.974   7.769
 2356TIP3   OH228702   7.000   4.255   7.741
 2356TIP3    H128703   6.935   4.241   7.811
 2356TIP3    H228704   7.004   4.350   7.731
 2357TIP3   OH228705   6.211   4.424   7.444
 2357TIP3    H128706   6.148   4.425   7.515
 2357TIP3    H228707   6.214   4.514   7.413
 2358TIP3   OH228708   6.228   4.415   6.918
 2358TIP3    H128709   6.134   4.411   6.901
 2358TIP3    H228710   6.268   4.415   6.830
 2359TIP3   OH228711   6.762   4.463   6.799
 2359TIP3    H128712   6.739   4.550   6.765
 2359TIP3    H228713   6.826   4.430   6.736
 2360TIP3   OH228714   6.692   4.477   7.913
 2360TIP3    H128715   6.643   4.406   7.955
 2360TIP3    H228716   6.777   4.476   7.958
 2361TIP3   OH228717   6.834   4.405   7.059
 2361TIP3    H128718   6.797   4.456   6.986
 2361TIP3    H228719   6.882   4.334   7.018
 2362TIP3   OH228720   6.003   4.426   7.628
 2362TIP3    H128721   6.011   4.459   7.717
 2362TIP3    H228722   5.961   4.340   7.637
 2363TIP3   OH228723   5.631   4.137   7.030
 2363TIP3    H128724   5.704   4.146   7.091
 2363TIP3    H228725   5.673   4.129   6.944
 2364TIP3   OH228726   5.774   4.233   6.569
 2364TIP3    H128727   5.839   4.245   6.500
 2364TIP3    H228728   5.705   4.296   6.548
 2365TIP3   OH228729   6.793   4.547   7.517
 2365TIP3    H128730   6.832   4.488   7.452
 2365TIP3    H228731   6.730   4.492   7.564
 2366TIP3   OH228732   6.494   4.093   7.033
 2366TIP3    H128733   6.399   4.106   7.037
 2366TIP3    H228734   6.530   4.161   7.090
 2367TIP3   OH228735   5.957   4.349   6.886
 2367TIP3    H128736   5.878   4.379   6.842
 2367TIP3    H228737   5.968   4.258   6.858
 2368TIP3   OH228738   6.377   4.423   6.677
 2368TIP3    H128739   6.450   4.473   6.713
 2368TIP3    H228740   6.335   4.482   6.615
 2369TIP3   OH228741   6.900   4.094   7.342
 2369TIP3    H128742   6.862   4.107   7.429
 2369TIP3    H228743   6.831   4.051   7.292
 2370TIP3   OH228744   7.236   5.683   7.983
 2370TIP3    H128745   7.234   5.761   7.927
 2370TIP3    H228746   7.329   5.665   7.995
 2371TIP3   OH228747   6.011   4.933   7.911
 2371TIP3    H128748   6.078   4.935   7.979
 2371TIP3    H228749   5.928   4.931   7.960
 2372TIP3   OH228750   6.582   4.467   7.204
 2372TIP3    H128751   6.660   4.433   7.160
 2372TIP3    H228752   6.567   4.405   7.276
 2373TIP3   OH228753   6.056   4.080   6.846
 2373TIP3    H128754   6.005   4.003   6.871
 2373TIP3    H228755   6.063   4.074   6.751
 2374TIP3   OH228756   6.470   4.314   7.442
 2374TIP3    H128757   6.387   4.361   7.445
 2374TIP3    H228758   6.519   4.348   7.517
 2375TIP3   OH228759   7.199   4.831   7.480
 2375TIP3    H128760   7.273   4.820   7.420
 2375TIP3    H228761   7.122   4.822   7.425
 2376TIP3   OH228762   6.654   4.941   7.744
 2376TIP3    H128763   6.696   4.915   7.825
 2376TIP3    H228764   6.633   5.034   7.755
 2377TIP3   OH228765   6.947   4.374   6.609
 2377TIP3    H128766   7.034   4.393   6.645
 2377TIP3    H228767   6.945   4.423   6.526
 2378TIP3   OH228768   6.032   4.846   7.171
 2378TIP3    H128769   6.091   4.840   7.096
 2378TIP3    H228770   6.072   4.791   7.238
 2379TIP3   OH228771   5.761   4.688   7.729
 2379TIP3    H128772   5.780   4.663   7.820
 2379TIP3    H228773   5.689   4.630   7.703
 2380TIP3   OH228774   6.464   4.650   7.949
 2380TIP3    H128775   6.400   4.617   7.885
 2380TIP3    H228776   6.547   4.613   7.922
 2381TIP3   OH228777   6.868   5.201   7.742
 2381TIP3    H128778   6.775   5.215   7.724
 2381TIP3    H228779   6.879   5.227   7.834
 2382TIP3   OH228780   7.340   5.188   6.632
 2382TIP3    H128781   7.296   5.106   6.654
 2382TIP3    H228782   7.385   5.170   6.550
 2383TIP3   OH228783   6.997   4.781   7.295
 2383TIP3    H128784   6.902   4.773   7.284
 2383TIP3    H228785   7.032   4.710   7.241
 2384TIP3   OH228786   6.295   5.202   6.964
 2384TIP3    H128787   6.320   5.291   6.939
 2384TIP3    H228788   6.201   5.197   6.947
 2385TIP3   OH228789   6.432   4.965   6.909
 2385TIP3    H128790   6.394   5.052   6.915
 2385TIP3    H228791   6.359   4.906   6.926
 2386TIP3   OH228792   6.480   5.382   7.525
 2386TIP3    H128793   6.538   5.454   7.501
 2386TIP3    H228794   6.535   5.323   7.577
 2387TIP3   OH228795   6.260   5.473   6.884
 2387TIP3    H128796   6.265   5.482   6.789
 2387TIP3    H228797   6.311   5.546   6.918
 2388TIP3   OH228798   6.774   4.986   7.497
 2388TIP3    H128799   6.738   4.962   7.583
 2388TIP3    H228800   6.847   4.926   7.484
 2389TIP3   OH228801   7.106   5.417   7.702
 2389TIP3    H128802   7.020   5.383   7.678
 2389TIP3    H228803   7.117   5.495   7.647
 2390TIP3   OH228804   5.890   4.173   7.664
 2390TIP3    H128805   5.796   4.182   7.648
 2390TIP3    H228806   5.897   4.150   7.756
 2391TIP3   OH228807   7.191   4.949   6.677
 2391TIP3    H128808   7.151   4.874   6.721
 2391TIP3    H228809   7.192   4.924   6.584
 2392TIP3   OH228810   5.870   5.355   7.516
 2392TIP3    H128811   5.903   5.279   7.565
 2392TIP3    H228812   5.890   5.430   7.572
 2393TIP3   OH228813   6.005   4.874   6.585
 2393TIP3    H128814   5.932   4.931   6.608
 2393TIP3    H228815   6.049   4.920   6.513
 2394TIP3   OH228816   6.802   4.130   7.591
 2394TIP3    H128817   6.875   4.159   7.645
 2394TIP3    H228818   6.765   4.055   7.639
 2395TIP3   OH228819   6.840   4.110   6.711
 2395TIP3    H128820   6.868   4.172   6.644
 2395TIP3    H228821   6.879   4.141   6.792
 2396TIP3   OH228822   6.640   4.367   7.658
 2396TIP3    H128823   6.656   4.402   7.746
 2396TIP3    H228824   6.689   4.285   7.657
 2397TIP3   OH228825   6.616   3.962   6.818
 2397TIP3    H128826   6.583   4.020   6.886
 2397TIP3    H228827   6.692   4.009   6.783
 2398TIP3   OH228828   7.229   4.090   7.733
 2398TIP3    H128829   7.151   4.134   7.769
 2398TIP3    H228830   7.244   4.134   7.649
 2399TIP3   OH228831   7.071   4.538   7.162
 2399TIP3    H128832   6.986   4.514   7.125
 2399TIP3    H228833   7.081   4.482   7.239
 2400TIP3   OH228834   5.839   4.397   6.324
 2400TIP3    H128835   5.919   4.450   6.330
 2400TIP3    H228836   5.856   4.336   6.252
 2401TIP3   OH228837   7.245   5.464   7.338
 2401TIP3    H128838   7.238   5.537   7.277
 2401TIP3    H228839   7.327   5.421   7.314
 2402TIP3   OH228840   5.949   3.882   7.191
 2402TIP3    H128841   5.938   3.876   7.096
 2402TIP3    H228842   5.916   3.798   7.224
 2403TIP3   OH228843   5.800   5.270   6.809
 2403TIP3    H128844   5.744   5.285   6.885
 2403TIP3    H228845   5.870   5.335   6.817
 2404TIP3   OH228846   5.787   5.524   7.980
 2404TIP3    H128847   5.844   5.501   8.053
 2404TIP3    H228848   5.742   5.442   7.958
 2405TIP3   OH228849   6.212   5.406   8.117
 2405TIP3    H128850   6.290   5.360   8.147
 2405TIP3    H228851   6.193   5.368   8.031
 2406TIP3   OH228852   6.870   5.253   8.013
 2406TIP3    H128853   6.857   5.168   8.056
 2406TIP3    H228854   6.947   5.290   8.056
 2407TIP3   OH228855   5.764   4.906   8.044
 2407TIP3    H128856   5.776   4.814   8.020
 2407TIP3    H228857   5.697   4.938   7.983
 2408TIP3   OH228858   6.426   4.932   8.005
 2408TIP3    H128859   6.415   4.977   7.922
 2408TIP3    H228860   6.455   4.845   7.982
 2409TIP3   OH228861   6.968   4.943   7.773
 2409TIP3    H128862   7.061   4.953   7.754
 2409TIP3    H228863   6.930   5.029   7.752
 2410TIP3   OH228864   5.859   4.645   7.986
 2410TIP3    H128865   5.924   4.580   7.959
 2410TIP3    H228866   5.871   4.653   8.081
 2411TIP3   OH228867   6.308   4.637   6.522
 2411TIP3    H128868   6.257   4.700   6.572
 2411TIP3    H228869   6.383   4.687   6.490
 2412TIP3   OH228870   6.272   4.538   7.767
 2412TIP3    H128871   6.196   4.595   7.758
 2412TIP3    H228872   6.333   4.569   7.700
 2413TIP3   OH228873   6.763   4.783   8.054
 2413TIP3    H128874   6.839   4.747   8.010
 2413TIP3    H228875   6.733   4.712   8.112
 2414TIP3   OH228876   6.332   4.270   7.836
 2414TIP3    H128877   6.328   4.212   7.760
 2414TIP3    H228878   6.309   4.356   7.802
 2415TIP3   OH228879   6.351   4.100   7.598
 2415TIP3    H128880   6.401   4.155   7.538
 2415TIP3    H228881   6.261   4.103   7.563
 2416TIP3   OH228882   6.457   4.656   7.603
 2416TIP3    H128883   6.549   4.679   7.612
 2416TIP3    H228884   6.417   4.731   7.559
 2417TIP3   OH228885   6.914   4.419   8.079
 2417TIP3    H128886   6.919   4.344   8.139
 2417TIP3    H228887   7.003   4.427   8.043
 2418TIP3   OH228888   7.003   4.722   7.924
 2418TIP3    H128889   6.978   4.800   7.875
 2418TIP3    H228890   7.098   4.722   7.922
 2419TIP3   OH228891   6.052   4.448   7.956
 2419TIP3    H128892   6.055   4.391   8.032
 2419TIP3    H228893   6.143   4.454   7.926
 2420TIP3   OH228894   6.396   3.822   7.642
 2420TIP3    H128895   6.388   3.916   7.625
 2420TIP3    H228896   6.319   3.784   7.599
 2421TIP3   OH228897   6.556   4.256   7.993
 2421TIP3    H128898   6.516   4.225   8.074
 2421TIP3    H228899   6.484   4.263   7.931
 2422TIP3   OH228900   6.795   4.157   7.897
 2422TIP3    H128901   6.716   4.187   7.942
 2422TIP3    H228902   6.854   4.129   7.967
 2423TIP3   OH228903   6.991   4.075   8.082
 2423TIP3    H128904   6.977   3.981   8.089
 2423TIP3    H228905   6.952   4.111   8.162
 2424TIP3   OH228906   5.922   4.149   7.952
 2424TIP3    H128907   5.921   4.054   7.956
 2424TIP3    H228908   5.963   4.177   8.033
 2425TIP3   OH228909   6.391   3.775   7.916
 2425TIP3    H128910   6.453   3.701   7.913
 2425TIP3    H228911   6.379   3.798   7.824
 2426TIP3   OH228912   6.492   3.941   8.115
 2426TIP3    H128913   6.460   3.879   8.048
 2426TIP3    H228914   6.428   4.012   8.114
 2427TIP3   OH228915   5.634   5.605   6.906
 2427TIP3    H128916   5.590   5.565   6.831
 2427TIP3    H228917   5.669   5.532   6.955
 2428TIP3   OH228918   5.734   5.396   7.072
 2428TIP3    H128919   5.703   5.320   7.121
 2428TIP3    H228920   5.768   5.455   7.139
 2429TIP3   OH228921   7.229   5.019   8.173
 2429TIP3    H128922   7.154   5.042   8.228
 2429TIP3    H228923   7.301   5.072   8.207
 2430TIP3   OH228924   7.256   5.205   7.595
 2430TIP3    H128925   7.214   5.282   7.634
 2430TIP3    H228926   7.216   5.197   7.508
 2431TIP3   OH228927   7.272   4.347   6.359
 2431TIP3    H128928   7.264   4.442   6.374
 2431TIP3    H228929   7.206   4.328   6.293
 2432TIP3   OH228930   7.226   4.546   6.933
 2432TIP3    H128931   7.203   4.459   6.901
 2432TIP3    H228932   7.185   4.552   7.019
 2433TIP3   OH228933   5.719   4.742   7.336
 2433TIP3    H128934   5.731   4.729   7.242
 2433TIP3    H228935   5.803   4.715   7.374
 2434TIP3   OH228936   7.269   4.758   7.905
 2434TIP3    H128937   7.356   4.719   7.902
 2434TIP3    H228938   7.273   4.830   7.842
 2435TIP3   OH228939   7.205   4.295   6.751
 2435TIP3    H128940   7.226   4.208   6.784
 2435TIP3    H228941   7.233   4.293   6.659
 2436TIP3   OH228942   7.265   4.244   7.308
 2436TIP3    H128943   7.348   4.207   7.279
 2436TIP3    H228944   7.284   4.336   7.327
 2437TIP3   OH228945   7.267   4.472   7.619
 2437TIP3    H128946   7.175   4.497   7.627
 2437TIP3    H228947   7.285   4.477   7.525
 2438TIP3   OH228948   5.686   4.272   7.895
 2438TIP3    H128949   5.776   4.255   7.923
 2438TIP3    H228950   5.639   4.191   7.915
 2439TIP3   OH228951   7.200   4.026   6.837
 2439TIP3    H128952   7.280   3.973   6.839
 2439TIP3    H228953   7.139   3.974   6.784
 2440TIP3   OH228954   5.819   4.124   7.235
 2440TIP3    H128955   5.860   4.037   7.228
 2440TIP3    H228956   5.893   4.183   7.250
 2441TIP3   OH228957   5.632   4.409   7.294
 2441TIP3    H128958   5.700   4.404   7.226
 2441TIP3    H228959   5.664   4.477   7.354
 2442TIP3   OH228960   5.689   4.064   6.767
 2442TIP3    H128961   5.597   4.056   6.741
 2442TIP3    H228962   5.729   4.115   6.697
 2443TIP3   OH228963   7.126   5.553   6.946
 2443TIP3    H128964   7.079   5.562   6.863
 2443TIP3    H228965   7.212   5.591   6.928
 2444TIP3   OH228966   5.683   3.868   7.526
 2444TIP3    H128967   5.622   3.866   7.600
 2444TIP3    H228968   5.655   3.943   7.474
 2445TIP3   OH228969   5.896   5.240   7.977
 2445TIP3    H128970   5.812   5.251   7.932
 2445TIP3    H228971   5.872   5.212   8.065
 2446TIP3   OH228972   6.217   5.357   7.605
 2446TIP3    H128973   6.186   5.444   7.577
 2446TIP3    H228974   6.310   5.357   7.584
 2447TIP3   OH228975   6.590   5.475   7.887
 2447TIP3    H128976   6.607   5.447   7.977
 2447TIP3    H228977   6.669   5.525   7.863
 2448TIP3   OH228978   6.822   5.613   7.841
 2448TIP3    H128979   6.887   5.575   7.782
 2448TIP3    H228980   6.872   5.637   7.919
 2449TIP3   OH228981   5.905   5.632   7.608
 2449TIP3    H128982   5.829   5.676   7.570
 2449TIP3    H228983   5.917   5.673   7.693
 2450TIP3   OH228984   6.172   5.619   7.530
 2450TIP3    H128985   6.078   5.630   7.547
 2450TIP3    H228986   6.186   5.665   7.447
 2451TIP3   OH228987   6.638   5.594   7.438
 2451TIP3    H128988   6.594   5.628   7.360
 2451TIP3    H228989   6.651   5.670   7.494
 2452TIP3   OH228990   6.869   5.483   7.550
 2452TIP3    H128991   6.790   5.517   7.507
 2452TIP3    H228992   6.939   5.541   7.519
 2453TIP3   OH228993   7.117   5.631   7.521
 2453TIP3    H128994   7.112   5.720   7.485
 2453TIP3    H228995   7.160   5.581   7.452
 2454TIP3   OH228996   5.878   5.513   7.286
 2454TIP3    H128997   5.873   5.465   7.369
 2454TIP3    H228998   5.957   5.479   7.243
 2455TIP3   OH228999   6.089   5.387   7.175
 2455TIP3    H129000   6.081   5.294   7.197
 2455TIP3    H229001   6.179   5.409   7.195
 2456TIP3   OH229002   6.354   5.410   7.274
 2456TIP3    H129003   6.363   5.319   7.245
 2456TIP3    H229004   6.388   5.409   7.364
 2457TIP3   OH229005   6.703   3.967   7.202
 2457TIP3    H129006   6.622   3.967   7.152
 2457TIP3    H229007   6.768   3.927   7.144
 2458TIP3   OH229008   7.172   3.826   7.155
 2458TIP3    H129009   7.216   3.911   7.148
 2458TIP3    H229010   7.079   3.846   7.145
 2459TIP3   OH229011   5.915   3.851   6.918
 2459TIP3    H129012   5.823   3.853   6.890
 2459TIP3    H229013   5.945   3.763   6.895
 2460TIP3   OH229014   5.821   3.791   6.487
 2460TIP3    H129015   5.905   3.829   6.462
 2460TIP3    H229016   5.758   3.862   6.474
 2461TIP3   OH229017   6.397   3.802   6.921
 2461TIP3    H129018   6.465   3.861   6.886
 2461TIP3    H229019   6.406   3.809   7.016
 2462TIP3   OH229020   6.906   3.839   7.069
 2462TIP3    H129021   6.923   3.822   6.976
 2462TIP3    H229022   6.878   3.755   7.104
 2463TIP3   OH229023   7.040   3.879   6.668
 2463TIP3    H129024   6.961   3.930   6.648
 2463TIP3    H229025   7.009   3.788   6.670
 2464TIP3   OH229026   6.704   5.576   6.453
 2464TIP3    H129027   6.788   5.609   6.423
 2464TIP3    H229028   6.659   5.547   6.374
 2465TIP3   OH229029   5.930   3.872   7.872
 2465TIP3    H129030   5.870   3.811   7.915
 2465TIP3    H229031   6.012   3.863   7.921
 2466TIP3   OH229032   6.139   3.816   8.042
 2466TIP3    H129033   6.227   3.797   8.009
 2466TIP3    H229034   6.115   3.737   8.092
 2467TIP3   OH229035   6.992   3.800   8.081
 2467TIP3    H129036   7.003   3.759   8.167
 2467TIP3    H229037   7.080   3.799   8.043
 2468TIP3   OH229038   7.241   5.403   7.944
 2468TIP3    H129039   7.200   5.390   7.858
 2468TIP3    H229040   7.238   5.498   7.957
 2469TIP3   OH229041   1.183   6.671   6.911
 2469TIP3    H129042   1.173   6.766   6.910
 2469TIP3    H229043   1.117   6.639   6.848
 2470TIP3   OH229044   1.081   6.587   7.303
 2470TIP3    H129045   1.100   6.540   7.384
 2470TIP3    H229046   1.032   6.524   7.249
 2471TIP3   OH229047   0.312   6.538   7.424
 2471TIP3    H129048   0.316   6.463   7.483
 2471TIP3    H229049   0.403   6.555   7.399
 2472TIP3   OH229050   1.460   6.896   7.124
 2472TIP3    H129051   1.414   6.830   7.175
 2472TIP3    H229052   1.477   6.967   7.186
 2473TIP3   OH229053   0.432   6.989   7.285
 2473TIP3    H129054   0.394   6.906   7.257
 2473TIP3    H229055   0.524   6.982   7.260
 2474TIP3   OH229056   0.081   6.349   6.787
 2474TIP3    H129057  -0.000   6.380   6.828
 2474TIP3    H229058   0.054   6.321   6.700
 2475TIP3   OH229059   0.170   6.583   7.080
 2475TIP3    H129060   0.146   6.490   7.087
 2475TIP3    H229061   0.143   6.608   6.992
 2476TIP3   OH229062   0.922   6.825   7.320
 2476TIP3    H129063   0.963   6.746   7.285
 2476TIP3    H229064   0.989   6.865   7.376
 2477TIP3   OH229065   1.808   5.979   7.416
 2477TIP3    H129066   1.822   6.048   7.481
 2477TIP3    H229067   1.872   5.998   7.347
 2478TIP3   OH229068   1.230   6.258   7.327
 2478TIP3    H129069   1.252   6.165   7.337
 2478TIP3    H229070   1.212   6.268   7.233
 2479TIP3   OH229071   0.614   6.073   7.073
 2479TIP3    H129072   0.608   6.158   7.030
 2479TIP3    H229073   0.564   6.014   7.017
 2480TIP3   OH229074   1.347   6.117   6.899
 2480TIP3    H129075   1.394   6.076   6.972
 2480TIP3    H229076   1.416   6.153   6.843
 2481TIP3   OH229077   0.118   6.306   7.103
 2481TIP3    H129078   0.067   6.225   7.096
 2481TIP3    H229079   0.168   6.310   7.021
 2482TIP3   OH229080   0.699   6.469   7.102
 2482TIP3    H129081   0.787   6.438   7.122
 2482TIP3    H229082   0.664   6.404   7.041
 2483TIP3   OH229083   1.842   6.156   7.631
 2483TIP3    H129084   1.761   6.205   7.615
 2483TIP3    H229085   1.862   6.174   7.723
 2484TIP3   OH229086   0.397   6.018   7.484
 2484TIP3    H129087   0.326   6.000   7.422
 2484TIP3    H229088   0.353   6.031   7.568
 2485TIP3   OH229089   1.142   6.931   6.835
 2485TIP3    H129090   1.138   6.932   6.739
 2485TIP3    H229091   1.101   7.014   6.860
 2486TIP3   OH229092   0.701   6.759   7.478
 2486TIP3    H129093   0.640   6.830   7.503
 2486TIP3    H229094   0.766   6.802   7.423
 2487TIP3   OH229095   1.468   6.047   7.136
 2487TIP3    H129096   1.413   5.998   7.197
 2487TIP3    H229097   1.517   6.107   7.193
 2488TIP3   OH229098   0.354   6.168   7.196
 2488TIP3    H129099   0.307   6.247   7.225
 2488TIP3    H229100   0.334   6.161   7.103
 2489TIP3   OH229101   0.522   6.969   7.551
 2489TIP3    H129102   0.487   6.979   7.462
 2489TIP3    H229103   0.444   6.971   7.607
 2490TIP3   OH229104   0.174   6.963   6.670
 2490TIP3    H129105   0.189   6.928   6.582
 2490TIP3    H229106   0.083   6.994   6.668
 2491TIP3   OH229107   1.500   7.120   7.311
 2491TIP3    H129108   1.409   7.119   7.341
 2491TIP3    H229109   1.508   7.201   7.261
 2492TIP3   OH229110   1.540   5.893   7.498
 2492TIP3    H129111   1.469   5.929   7.446
 2492TIP3    H229112   1.619   5.917   7.449
 2493TIP3   OH229113   0.803   5.687   7.233
 2493TIP3    H129114   0.764   5.600   7.232
 2493TIP3    H229115   0.730   5.747   7.249
 2494TIP3   OH229116   1.328   7.247   6.927
 2494TIP3    H129117   1.360   7.156   6.922
 2494TIP3    H229118   1.391   7.297   6.874
 2495TIP3   OH229119   1.464   7.013   6.868
 2495TIP3    H129120   1.433   6.951   6.802
 2495TIP3    H229121   1.464   6.963   6.949
 2496TIP3   OH229122   1.591   6.902   7.680
 2496TIP3    H129123   1.586   6.841   7.606
 2496TIP3    H229124   1.605   6.987   7.639
 2497TIP3   OH229125   1.061   6.587   6.672
 2497TIP3    H129126   0.992   6.652   6.655
 2497TIP3    H229127   1.120   6.594   6.597
 2498TIP3   OH229128   1.776   6.543   7.500
 2498TIP3    H129129   1.704   6.605   7.497
 2498TIP3    H229130   1.840   6.578   7.438
 2499TIP3   OH229131   1.397   6.601   6.758
 2499TIP3    H129132   1.322   6.624   6.814
 2499TIP3    H229133   1.464   6.570   6.820
 2500TIP3   OH229134   1.373   6.420   7.708
 2500TIP3    H129135   1.368   6.490   7.773
 2500TIP3    H229136   1.307   6.443   7.643
 2501TIP3   OH229137   0.550   6.666   6.971
 2501TIP3    H129138   0.512   6.630   6.891
 2501TIP3    H229139   0.600   6.593   7.008
 2502TIP3   OH229140   0.697   6.955   7.212
 2502TIP3    H129141   0.693   6.964   7.117
 2502TIP3    H229142   0.779   6.908   7.228
 2503TIP3   OH229143   0.584   6.540   7.350
 2503TIP3    H129144   0.621   6.536   7.262
 2503TIP3    H229145   0.622   6.619   7.389
 2504TIP3   OH229146   1.247   7.105   7.415
 2504TIP3    H129147   1.169   7.160   7.405
 2504TIP3    H229148   1.213   7.021   7.445
 2505TIP3   OH229149   0.685   6.981   7.780
 2505TIP3    H129150   0.624   7.037   7.829
 2505TIP3    H229151   0.641   6.963   7.698
 2506TIP3   OH229152   1.289   6.545   6.505
 2506TIP3    H129153   1.327   6.570   6.589
 2506TIP3    H229154   1.344   6.590   6.440
 2507TIP3   OH229155   0.419   6.605   7.747
 2507TIP3    H129156   0.411   6.680   7.805
 2507TIP3    H229157   0.331   6.593   7.711
 2508TIP3   OH229158   1.056   7.195   6.891
 2508TIP3    H129159   1.148   7.215   6.909
 2508TIP3    H229160   1.022   7.274   6.850
 2509TIP3   OH229161   0.507   7.170   7.882
 2509TIP3    H129162   0.505   7.210   7.795
 2509TIP3    H229163   0.415   7.156   7.904
 2510TIP3   OH229164   1.671   5.733   6.556
 2510TIP3    H129165   1.578   5.754   6.565
 2510TIP3    H229166   1.704   5.797   6.493
 2511TIP3   OH229167   0.448   6.594   6.719
 2511TIP3    H129168   0.421   6.674   6.673
 2511TIP3    H229169   0.388   6.527   6.687
 2512TIP3   OH229170   0.147   6.781   7.599
 2512TIP3    H129171   0.100   6.776   7.516
 2512TIP3    H229172   0.148   6.692   7.632
 2513TIP3   OH229173   0.118   7.162   7.268
 2513TIP3    H129174   0.185   7.098   7.289
 2513TIP3    H229175   0.041   7.133   7.316
 2514TIP3   OH229176   1.854   7.144   7.915
 2514TIP3    H129177   1.834   7.051   7.906
 2514TIP3    H229178   1.768   7.186   7.922
 2515TIP3   OH229179   0.928   7.108   7.766
 2515TIP3    H129180   0.911   7.184   7.822
 2515TIP3    H229181   0.845   7.059   7.766
 2516TIP3   OH229182   1.553   6.287   7.904
 2516TIP3    H129183   1.488   6.327   7.846
 2516TIP3    H229184   1.557   6.195   7.877
 2517TIP3   OH229185   0.297   6.978   7.711
 2517TIP3    H129186   0.322   6.932   7.791
 2517TIP3    H229187   0.235   6.920   7.668
 2518TIP3   OH229188   0.566   5.847   7.304
 2518TIP3    H129189   0.487   5.825   7.254
 2518TIP3    H229190   0.558   5.797   7.385
 2519TIP3   OH229191   1.017   5.761   7.659
 2519TIP3    H129192   1.061   5.716   7.731
 2519TIP3    H229193   0.924   5.750   7.678
 2520TIP3   OH229194   1.313   6.149   7.733
 2520TIP3    H129195   1.248   6.135   7.801
 2520TIP3    H229196   1.315   6.244   7.721
 2521TIP3   OH229197   0.547   6.283   7.427
 2521TIP3    H129198   0.477   6.288   7.492
 2521TIP3    H229199   0.560   6.374   7.400
 2522TIP3   OH229200   0.567   6.300   6.927
 2522TIP3    H129201   0.472   6.293   6.928
 2522TIP3    H229202   0.592   6.278   6.838
 2523TIP3   OH229203   1.114   6.351   6.796
 2523TIP3    H129204   1.090   6.435   6.758
 2523TIP3    H229205   1.182   6.316   6.737
 2524TIP3   OH229206   1.022   6.349   7.915
 2524TIP3    H129207   0.968   6.280   7.953
 2524TIP3    H229208   1.105   6.344   7.962
 2525TIP3   OH229209   1.194   6.289   7.053
 2525TIP3    H129210   1.157   6.339   6.980
 2525TIP3    H229211   1.238   6.215   7.012
 2526TIP3   OH229212   0.334   6.309   7.603
 2526TIP3    H129213   0.309   6.373   7.670
 2526TIP3    H229214   0.282   6.231   7.623
 2527TIP3   OH229215   0.045   6.048   7.024
 2527TIP3    H129216  -0.036   6.005   7.053
 2527TIP3    H229217   0.049   6.029   6.930
 2528TIP3   OH229218   0.243   6.132   6.639
 2528TIP3    H129219   0.312   6.137   6.574
 2528TIP3    H229220   0.171   6.183   6.602
 2529TIP3   OH229221   1.152   6.429   7.524
 2529TIP3    H129222   1.187   6.371   7.456
 2529TIP3    H229223   1.085   6.377   7.568
 2530TIP3   OH229224   0.884   6.043   7.006
 2530TIP3    H129225   0.794   6.043   7.038
 2530TIP3    H229226   0.934   5.998   7.074
 2531TIP3   OH229227   0.304   6.225   6.906
 2531TIP3    H129228   0.238   6.259   6.847
 2531TIP3    H229229   0.327   6.139   6.870
 2532TIP3   OH229230   0.637   6.238   6.664
 2532TIP3    H129231   0.725   6.228   6.701
 2532TIP3    H229232   0.636   6.326   6.628
 2533TIP3   OH229233   1.269   5.978   7.344
 2533TIP3    H129234   1.219   5.985   7.425
 2533TIP3    H229235   1.209   5.935   7.283
 2534TIP3   OH229236   0.364   6.815   7.926
 2534TIP3    H129237   0.426   6.812   7.999
 2534TIP3    H229238   0.278   6.813   7.968
 2535TIP3   OH229239   0.945   6.356   7.192
 2535TIP3    H129240   1.015   6.321   7.137
 2535TIP3    H229241   0.928   6.286   7.255
 2536TIP3   OH229242   0.447   5.965   6.881
 2536TIP3    H129243   0.390   5.890   6.897
 2536TIP3    H229244   0.473   5.957   6.789
 2537TIP3   OH229245   0.797   6.174   7.455
 2537TIP3    H129246   0.731   6.243   7.456
 2537TIP3    H229247   0.866   6.205   7.514
 2538TIP3   OH229248   0.863   6.769   6.621
 2538TIP3    H129249   0.800   6.707   6.584
 2538TIP3    H229250   0.828   6.789   6.708
 2539TIP3   OH229251   1.578   6.734   7.458
 2539TIP3    H129252   1.636   6.790   7.406
 2539TIP3    H229253   1.503   6.717   7.401
 2540TIP3   OH229254   1.200   6.028   6.462
 2540TIP3    H129255   1.118   6.023   6.413
 2540TIP3    H229256   1.228   6.119   6.451
 2541TIP3   OH229257   1.032   6.836   7.752
 2541TIP3    H129258   1.042   6.792   7.837
 2541TIP3    H229259   0.993   6.921   7.774
 2542TIP3   OH229260   1.307   6.281   6.607
 2542TIP3    H129261   1.397   6.258   6.628
 2542TIP3    H229262   1.314   6.363   6.557
 2543TIP3   OH229263   0.382   6.743   7.176
 2543TIP3    H129264   0.447   6.727   7.109
 2543TIP3    H229265   0.311   6.682   7.156
 2544TIP3   OH229266   1.110   6.920   6.553
 2544TIP3    H129267   1.085   7.013   6.545
 2544TIP3    H229268   1.027   6.873   6.547
 2545TIP3   OH229269   0.155   6.525   7.714
 2545TIP3    H129270   0.160   6.508   7.808
 2545TIP3    H229271   0.079   6.475   7.684
 2546TIP3   OH229272   0.801   6.530   7.941
 2546TIP3    H129273   0.738   6.495   7.878
 2546TIP3    H229274   0.884   6.487   7.917
 2547TIP3   OH229275   1.213   7.101   7.754
 2547TIP3    H129276   1.119   7.102   7.738
 2547TIP3    H229277   1.222   7.109   7.849
 2548TIP3   OH229278   1.760   6.284   6.554
 2548TIP3    H129279   1.709   6.248   6.481
 2548TIP3    H229280   1.779   6.374   6.527
 2549TIP3   OH229281   1.804   6.869   7.847
 2549TIP3    H129282   1.720   6.890   7.807
 2549TIP3    H229283   1.865   6.864   7.773
 2550TIP3   OH229284   1.704   7.108   6.611
 2550TIP3    H129285   1.626   7.082   6.661
 2550TIP3    H229286   1.680   7.192   6.572
 2551TIP3   OH229287   1.362   6.666   7.281
 2551TIP3    H129288   1.266   6.657   7.277
 2551TIP3    H229289   1.395   6.592   7.230
 2552TIP3   OH229290   0.614   7.052   6.959
 2552TIP3    H129291   0.627   7.144   6.935
 2552TIP3    H229292   0.522   7.034   6.940
 2553TIP3   OH229293   0.742   6.828   6.857
 2553TIP3    H129294   0.716   6.917   6.882
 2553TIP3    H229295   0.678   6.771   6.900
 2554TIP3   OH229296   0.848   7.224   7.511
 2554TIP3    H129297   0.865   7.316   7.531
 2554TIP3    H229298   0.884   7.176   7.586
 2555TIP3   OH229299   0.606  -0.013   6.888
 2555TIP3    H129300   0.515   0.003   6.911
 2555TIP3    H229301   0.656   0.031   6.957
 2556TIP3   OH229302   1.137   6.863   7.498
 2556TIP3    H129303   1.101   6.850   7.586
 2556TIP3    H229304   1.195   6.788   7.486
 2557TIP3   OH229305   1.379   6.905   6.387
 2557TIP3    H129306   1.417   6.892   6.474
 2557TIP3    H229307   1.287   6.926   6.403
 2558TIP3   OH229308   1.418   7.280   7.711
 2558TIP3    H129309   1.348   7.214   7.717
 2558TIP3    H229310   1.375   7.357   7.673
 2559TIP3   OH229311   0.210   6.038   7.690
 2559TIP3    H129312   0.116   6.055   7.691
 2559TIP3    H229313   0.218   5.952   7.731
 2560TIP3   OH229314   1.478   6.833   6.632
 2560TIP3    H129315   1.442   6.756   6.677
 2560TIP3    H229316   1.573   6.818   6.631
 2561TIP3   OH229317   0.266   7.252   7.581
 2561TIP3    H129318   0.236   7.165   7.608
 2561TIP3    H229319   0.186   7.304   7.577
 2562TIP3   OH229320   0.796   6.911   6.283
 2562TIP3    H129321   0.775   6.987   6.229
 2562TIP3    H229322   0.746   6.923   6.363
 2563TIP3   OH229323   0.701   6.984   6.537
 2563TIP3    H129324   0.767   6.922   6.568
 2563TIP3    H229325   0.721   7.066   6.583
 2564TIP3   OH229326   1.127   6.002   7.580
 2564TIP3    H129327   1.193   6.025   7.646
 2564TIP3    H229328   1.088   5.922   7.613
 2565TIP3   OH229329   1.196   5.950   6.725
 2565TIP3    H129330   1.195   5.983   6.635
 2565TIP3    H229331   1.239   6.018   6.776
 2566TIP3   OH229332   1.001   7.169   6.550
 2566TIP3    H129333   0.927   7.181   6.610
 2566TIP3    H229334   0.970   7.202   6.466
 2567TIP3   OH229335   0.879   6.209   6.783
 2567TIP3    H129336   0.960   6.259   6.788
 2567TIP3    H229337   0.882   6.150   6.858
 2568TIP3   OH229338   0.988   6.245   7.647
 2568TIP3    H129339   0.993   6.272   7.739
 2568TIP3    H229340   1.030   6.160   7.644
 2569TIP3   OH229341   0.966   5.840   6.832
 2569TIP3    H129342   0.936   5.918   6.878
 2569TIP3    H229343   1.046   5.868   6.788
 2570TIP3   OH229344   0.752   7.227   6.665
 2570TIP3    H129345   0.750   7.307   6.613
 2570TIP3    H229346   0.704   7.249   6.745
 2571TIP3   OH229347   0.548   5.966   6.619
 2571TIP3    H129348   0.583   6.055   6.624
 2571TIP3    H229349   0.619   5.915   6.581
 2572TIP3   OH229350   1.558   6.037   7.744
 2572TIP3    H129351   1.468   6.069   7.744
 2572TIP3    H229352   1.568   5.992   7.660
 2573TIP3   OH229353   1.438   6.417   7.146
 2573TIP3    H129354   1.352   6.385   7.120
 2573TIP3    H229355   1.470   6.354   7.210
 2574TIP3   OH229356   0.207   6.382   6.367
 2574TIP3    H129357   0.167   6.455   6.320
 2574TIP3    H229358   0.143   6.358   6.434
 2575TIP3   OH229359   0.316   5.776   7.212
 2575TIP3    H129360   0.304   5.772   7.117
 2575TIP3    H229361   0.279   5.694   7.244
 2576TIP3   OH229362   0.225   7.153   6.857
 2576TIP3    H129363   0.142   7.141   6.903
 2576TIP3    H229364   0.230   7.078   6.798
 2577TIP3   OH229365   0.641   7.257   8.105
 2577TIP3    H129366   0.702   7.190   8.133
 2577TIP3    H229367   0.585   7.213   8.040
 2578TIP3   OH229368   1.148   7.317   6.278
 2578TIP3    H129369   1.056   7.310   6.302
 2578TIP3    H229370   1.164   7.243   6.219
 2579TIP3   OH229371   1.245   7.136   8.024
 2579TIP3    H129372   1.210   7.053   8.057
 2579TIP3    H229373   1.323   7.152   8.077
 2580TIP3   OH229374   1.469   7.169   6.312
 2580TIP3    H129375   1.448   7.075   6.312
 2580TIP3    H229376   1.520   7.182   6.232
 2581TIP3   OH229377   0.120   6.807   8.054
 2581TIP3    H129378   0.100   6.713   8.053
 2581TIP3    H229379   0.034   6.849   8.057
 2582TIP3   OH229380   0.768   6.807   7.988
 2582TIP3    H129381   0.746   6.847   7.904
 2582TIP3    H229382   0.789   6.716   7.967
 2583TIP3   OH229383   1.340   6.823   7.768
 2583TIP3    H129384   1.425   6.859   7.742
 2583TIP3    H229385   1.278   6.895   7.750
 2584TIP3   OH229386   0.161   6.485   7.984
 2584TIP3    H129387   0.160   6.389   7.989
 2584TIP3    H229388   0.187   6.513   8.071
 2585TIP3   OH229389   0.678   6.551   6.562
 2585TIP3    H129390   0.620   6.573   6.636
 2585TIP3    H229391   0.622   6.557   6.485
 2586TIP3   OH229392   0.627   6.426   7.746
 2586TIP3    H129393   0.551   6.484   7.743
 2586TIP3    H229394   0.688   6.461   7.681
 2587TIP3   OH229395   1.112   6.657   8.041
 2587TIP3    H129396   1.190   6.617   8.004
 2587TIP3    H229397   1.078   6.591   8.102
 2588TIP3   OH229398   0.659   6.170   7.836
 2588TIP3    H129399   0.651   6.108   7.764
 2588TIP3    H229400   0.646   6.256   7.794
 2589TIP3   OH229401   0.650   5.997   7.612
 2589TIP3    H129402   0.709   6.048   7.555
 2589TIP3    H229403   0.564   6.005   7.571
 2590TIP3   OH229404   0.819   6.541   7.593
 2590TIP3    H129405   0.912   6.562   7.593
 2590TIP3    H229406   0.776   6.618   7.556
 2591TIP3   OH229407   1.241   6.305   8.093
 2591TIP3    H129408   1.242   6.229   8.151
 2591TIP3    H229409   1.333   6.330   8.083
 2592TIP3   OH229410   1.388   6.607   7.921
 2592TIP3    H129411   1.359   6.685   7.874
 2592TIP3    H229412   1.484   6.611   7.919
 2593TIP3   OH229413   0.501   6.231   8.061
 2593TIP3    H129414   0.415   6.193   8.045
 2593TIP3    H229415   0.545   6.226   7.976
 2594TIP3   OH229416   0.733   5.737   7.656
 2594TIP3    H129417   0.708   5.829   7.646
 2594TIP3    H229418   0.672   5.689   7.601
 2595TIP3   OH229419   0.873   6.137   8.004
 2595TIP3    H129420   0.830   6.112   8.085
 2595TIP3    H229421   0.803   6.144   7.940
 2596TIP3   OH229422   1.126   6.061   7.905
 2596TIP3    H129423   1.042   6.072   7.949
 2596TIP3    H229424   1.183   6.022   7.971
 2597TIP3   OH229425   1.322   5.957   8.084
 2597TIP3    H129426   1.309   5.862   8.091
 2597TIP3    H229427   1.288   5.991   8.167
 2598TIP3   OH229428   0.292   6.053   8.003
 2598TIP3    H129429   0.294   5.984   7.937
 2598TIP3    H229430   0.294   6.007   8.086
 2599TIP3   OH229431   0.744   5.667   7.923
 2599TIP3    H129432   0.799   5.590   7.915
 2599TIP3    H229433   0.731   5.697   7.833
 2600TIP3   OH229434   0.811   5.824   8.147
 2600TIP3    H129435   0.794   5.774   8.067
 2600TIP3    H229436   0.754   5.901   8.140
 2601TIP3   OH229437   0.124   6.930   6.395
 2601TIP3    H129438   0.089   7.013   6.363
 2601TIP3    H229439   0.048   6.874   6.405
 2602TIP3   OH229440   0.024   0.008   7.086
 2602TIP3    H129441   0.047  -0.073   7.131
 2602TIP3    H229442   0.096   0.068   7.108
 2603TIP3   OH229443   1.625   6.942   8.193
 2603TIP3    H129444   1.542   6.957   8.238
 2603TIP3    H229445   1.670   7.026   8.197
 2604TIP3   OH229446   1.749   6.789   6.647
 2604TIP3    H129447   1.775   6.879   6.664
 2604TIP3    H229448   1.768   6.742   6.728
 2605TIP3   OH229449   1.785   6.631   6.872
 2605TIP3    H129450   1.731   6.554   6.891
 2605TIP3    H229451   1.863   6.619   6.926
 2606TIP3   OH229452   1.816   6.863   7.375
 2606TIP3    H129453   1.866   6.795   7.330
 2606TIP3    H229454   1.835   6.944   7.328
 2607TIP3   OH229455   1.614   7.153   7.565
 2607TIP3    H129456   1.537   7.192   7.606
 2607TIP3    H229457   1.589   7.142   7.473
 2608TIP3   OH229458   1.823   6.553   6.512
 2608TIP3    H129459   1.780   6.541   6.427
 2608TIP3    H229460   1.791   6.638   6.543
 2609TIP3   OH229461   1.645   6.391   6.960
 2609TIP3    H129462   1.607   6.335   6.893
 2609TIP3    H229463   1.573   6.408   7.021
 2610TIP3   OH229464   0.092   6.669   7.333
 2610TIP3    H129465   0.103   6.666   7.238
 2610TIP3    H229466   0.177   6.640   7.368
 2611TIP3   OH229467   1.664   6.633   7.915
 2611TIP3    H129468   1.719   6.558   7.890
 2611TIP3    H229469   1.711   6.709   7.882
 2612TIP3   OH229470   1.800   6.401   7.868
 2612TIP3    H129471   1.714   6.359   7.882
 2612TIP3    H229472   1.863   6.333   7.892
 2613TIP3   OH229473   1.603   6.106   6.382
 2613TIP3    H129474   1.667   6.035   6.381
 2613TIP3    H229475   1.539   6.083   6.315
 2614TIP3   OH229476   1.571   6.214   6.749
 2614TIP3    H129477   1.586   6.120   6.757
 2614TIP3    H229478   1.632   6.242   6.681
 2615TIP3   OH229479   1.589   6.233   7.305
 2615TIP3    H129480   1.680   6.251   7.282
 2615TIP3    H229481   1.584   6.251   7.399
 2616TIP3   OH229482   1.619   6.323   7.569
 2616TIP3    H129483   1.540   6.355   7.612
 2616TIP3    H229484   1.672   6.402   7.555
 2617TIP3   OH229485   0.069   6.201   7.941
 2617TIP3    H129486   0.153   6.161   7.960
 2617TIP3    H229487   0.008   6.127   7.937
 2618TIP3   OH229488   1.836   5.759   8.090
 2618TIP3    H129489   1.909   5.702   8.067
 2618TIP3    H229490   1.834   5.825   8.021
 2619TIP3   OH229491   1.603   5.945   6.779
 2619TIP3    H129492   1.620   5.895   6.859
 2619TIP3    H229493   1.543   5.890   6.729
 2620TIP3   OH229494   0.167   5.981   7.327
 2620TIP3    H129495   0.195   5.899   7.285
 2620TIP3    H229496   0.181   6.047   7.260
 2621TIP3   OH229497   0.034   6.395   7.359
 2621TIP3    H129498   0.071   6.371   7.274
 2621TIP3    H229499   0.048   6.489   7.365
 2622TIP3   OH229500   1.773   5.952   7.911
 2622TIP3    H129501   1.708   5.983   7.974
 2622TIP3    H229502   1.724   5.935   7.831
 2623TIP3   OH229503   1.807   5.920   6.389
 2623TIP3    H129504   1.846   5.872   6.317
 2623TIP3    H229505   1.878   5.978   6.420
 2624TIP3   OH229506   0.025   5.985   6.739
 2624TIP3    H129507  -0.040   6.027   6.683
 2624TIP3    H229508   0.109   6.018   6.707
 2625TIP3   OH229509   0.051   5.765   7.559
 2625TIP3    H129510  -0.039   5.734   7.565
 2625TIP3    H229511   0.046   5.840   7.499
 2626TIP3   OH229512   0.252   7.176   8.001
 2626TIP3    H129513   0.177   7.173   7.942
 2626TIP3    H229514   0.222   7.132   8.080
 2627TIP3   OH229515   0.535   7.273   7.622
 2627TIP3    H129516   0.442   7.278   7.599
 2627TIP3    H229517   0.571   7.209   7.561
 2628TIP3   OH229518   1.675   5.734   7.720
 2628TIP3    H129519   1.610   5.764   7.657
 2628TIP3    H229520   1.693   5.643   7.695
 2629TIP3   OH229521   0.448   7.261   7.166
 2629TIP3    H129522   0.409   7.175   7.185
 2629TIP3    H229523   0.536   7.256   7.204
 2630TIP3   OH229524   0.693   7.216   7.286
 2630TIP3    H129525   0.699   7.125   7.258
 2630TIP3    H229526   0.743   7.220   7.367
 2631TIP3   OH229527   1.029   5.873   7.175
 2631TIP3    H129528   0.967   5.802   7.192
 2631TIP3    H229529   1.100   5.830   7.127
 2632TIP3   OH229530   1.519   5.719   7.185
 2632TIP3    H129531   1.581   5.768   7.130
 2632TIP3    H229532   1.433   5.739   7.148
 2633TIP3   OH229533   1.707   5.821   7.006
 2633TIP3    H129534   1.775   5.765   6.970
 2633TIP3    H229535   1.750   5.904   7.024
 2634TIP3   OH229536   0.289   5.745   6.941
 2634TIP3    H129537   0.199   5.737   6.908
 2634TIP3    H229538   0.329   5.660   6.922
 2635TIP3   OH229539   0.111   5.734   6.522
 2635TIP3    H129540   0.053   5.711   6.450
 2635TIP3    H229541   0.058   5.791   6.579
 2636TIP3   OH229542   0.760   5.688   6.946
 2636TIP3    H129543   0.825   5.736   6.894
 2636TIP3    H229544   0.793   5.692   7.035
 2637TIP3   OH229545   1.261   5.751   7.071
 2637TIP3    H129546   1.266   5.741   6.976
 2637TIP3    H229547   1.235   5.665   7.104
 2638TIP3   OH229548   1.414   5.784   6.658
 2638TIP3    H129549   1.334   5.837   6.665
 2638TIP3    H229550   1.385   5.694   6.675
 2639TIP3   OH229551   0.199   7.300   6.613
 2639TIP3    H129552   0.153   7.242   6.552
 2639TIP3    H229553   0.213   7.247   6.691
 2640TIP3   OH229554   0.362   5.958   6.407
 2640TIP3    H129555   0.360   5.877   6.357
 2640TIP3    H229556   0.414   5.938   6.484
 2641TIP3   OH229557   0.284   5.801   7.872
 2641TIP3    H129558   0.221   5.737   7.908
 2641TIP3    H229559   0.366   5.782   7.919
 2642TIP3   OH229560   0.489   5.717   8.039
 2642TIP3    H129561   0.576   5.691   8.008
 2642TIP3    H229562   0.456   5.640   8.084
 2643TIP3   OH229563   1.327   5.675   8.075
 2643TIP3    H129564   1.320   5.629   8.159
 2643TIP3    H229565   1.419   5.670   8.052
 2644TIP3   OH229566   1.610   7.281   7.926
 2644TIP3    H129567   1.540   7.267   7.862
 2644TIP3    H229568   1.639   7.371   7.910
 2645TIP3   OH229569   3.060   6.674   6.904
 2645TIP3    H129570   3.064   6.767   6.884
 2645TIP3    H229571   3.000   6.638   6.839
 2646TIP3   OH229572   2.972   6.599   7.303
 2646TIP3    H129573   2.988   6.542   7.378
 2646TIP3    H229574   2.934   6.541   7.237
 2647TIP3   OH229575   2.174   6.525   7.436
 2647TIP3    H129576   2.182   6.453   7.499
 2647TIP3    H229577   2.264   6.544   7.409
 2648TIP3   OH229578   3.337   6.895   7.148
 2648TIP3    H129579   3.302   6.815   7.187
 2648TIP3    H229580   3.361   6.950   7.222
 2649TIP3   OH229581   2.321   6.960   7.288
 2649TIP3    H129582   2.279   6.881   7.255
 2649TIP3    H229583   2.411   6.955   7.255
 2650TIP3   OH229584   1.911   6.349   6.793
 2650TIP3    H129585   1.975   6.411   6.758
 2650TIP3    H229586   1.859   6.323   6.717
 2651TIP3   OH229587   2.010   6.553   7.035
 2651TIP3    H129588   2.063   6.478   7.063
 2651TIP3    H229589   2.073   6.614   6.998
 2652TIP3   OH229590   2.803   6.826   7.337
 2652TIP3    H129591   2.843   6.753   7.289
 2652TIP3    H229592   2.875   6.864   7.387
 2653TIP3   OH229593   3.689   5.979   7.419
 2653TIP3    H129594   3.701   6.052   7.480
 2653TIP3    H229595   3.746   6.000   7.345
 2654TIP3   OH229596   3.110   6.263   7.325
 2654TIP3    H129597   3.129   6.170   7.332
 2654TIP3    H229598   3.098   6.279   7.231
 2655TIP3   OH229599   2.466   6.055   7.075
 2655TIP3    H129600   2.456   6.145   7.044
 2655TIP3    H229601   2.425   6.002   7.007
 2656TIP3   OH229602   3.234   6.109   6.908
 2656TIP3    H129603   3.279   6.074   6.986
 2656TIP3    H229604   3.302   6.156   6.860
 2657TIP3   OH229605   2.093   6.298   7.108
 2657TIP3    H129606   2.167   6.282   7.167
 2657TIP3    H229607   2.118   6.255   7.026
 2658TIP3   OH229608   2.603   6.486   7.133
 2658TIP3    H129609   2.685   6.441   7.155
 2658TIP3    H229610   2.599   6.483   7.037
 2659TIP3   OH229611   3.721   6.150   7.640
 2659TIP3    H129612   3.655   6.215   7.617
 2659TIP3    H229613   3.743   6.169   7.731
 2660TIP3   OH229614   2.317   5.986   7.480
 2660TIP3    H129615   2.299   6.045   7.407
 2660TIP3    H229616   2.244   6.000   7.540
 2661TIP3   OH229617   3.029   6.930   6.794
 2661TIP3    H129618   3.025   6.975   6.709
 2661TIP3    H229619   3.000   6.996   6.857
 2662TIP3   OH229620   2.587   6.742   7.484
 2662TIP3    H129621   2.533   6.818   7.508
 2662TIP3    H229622   2.658   6.779   7.431
 2663TIP3   OH229623   3.340   6.037   7.154
 2663TIP3    H129624   3.273   6.013   7.218
 2663TIP3    H229625   3.396   6.099   7.200
 2664TIP3   OH229626   2.286   6.155   7.265
 2664TIP3    H129627   2.343   6.216   7.312
 2664TIP3    H229628   2.341   6.119   7.196
 2665TIP3   OH229629   2.419   6.954   7.553
 2665TIP3    H129630   2.391   6.975   7.464
 2665TIP3    H229631   2.338   6.947   7.603
 2666TIP3   OH229632   3.380   7.109   7.341
 2666TIP3    H129633   3.289   7.116   7.367
 2666TIP3    H229634   3.389   7.170   7.267
 2667TIP3   OH229635   3.434   5.873   7.494
 2667TIP3    H129636   3.365   5.923   7.452
 2667TIP3    H229637   3.515   5.906   7.454
 2668TIP3   OH229638   2.685   5.688   7.233
 2668TIP3    H129639   2.655   5.598   7.219
 2668TIP3    H229640   2.606   5.736   7.257
 2669TIP3   OH229641   3.194   7.256   6.926
 2669TIP3    H129642   3.235   7.170   6.924
 2669TIP3    H229643   3.223   7.298   6.845
 2670TIP3   OH229644   3.328   7.018   6.897
 2670TIP3    H129645   3.339   6.957   6.824
 2670TIP3    H229646   3.334   6.964   6.976
 2671TIP3   OH229647   3.474   6.907   7.685
 2671TIP3    H129648   3.474   6.849   7.609
 2671TIP3    H229649   3.493   6.993   7.649
 2672TIP3   OH229650   2.943   6.604   6.661
 2672TIP3    H129651   2.865   6.660   6.662
 2672TIP3    H229652   3.006   6.652   6.607
 2673TIP3   OH229653   2.981   6.337   6.367
 2673TIP3    H129654   2.955   6.425   6.394
 2673TIP3    H229655   3.072   6.347   6.338
 2674TIP3   OH229656   3.654   6.548   7.522
 2674TIP3    H129657   3.583   6.611   7.515
 2674TIP3    H229658   3.716   6.573   7.453
 2675TIP3   OH229659   3.264   6.520   6.790
 2675TIP3    H129660   3.196   6.570   6.834
 2675TIP3    H229661   3.338   6.580   6.783
 2676TIP3   OH229662   3.259   6.417   7.708
 2676TIP3    H129663   3.254   6.488   7.771
 2676TIP3    H229664   3.196   6.441   7.640
 2677TIP3   OH229665   2.392   6.695   6.955
 2677TIP3    H129666   2.329   6.683   6.884
 2677TIP3    H229667   2.459   6.629   6.938
 2678TIP3   OH229668   2.586   6.936   7.209
 2678TIP3    H129669   2.598   6.914   7.117
 2678TIP3    H229670   2.666   6.904   7.252
 2679TIP3   OH229671   2.436   6.564   7.334
 2679TIP3    H129672   2.489   6.540   7.258
 2679TIP3    H229673   2.489   6.627   7.382
 2680TIP3   OH229674   3.130   7.113   7.452
 2680TIP3    H129675   3.123   7.121   7.547
 2680TIP3    H229676   3.089   7.028   7.432
 2681TIP3   OH229677   2.579   6.996   7.783
 2681TIP3    H129678   2.514   7.049   7.829
 2681TIP3    H229679   2.539   6.976   7.699
 2682TIP3   OH229680   2.256   6.584   7.779
 2682TIP3    H129681   2.260   6.667   7.826
 2682TIP3    H229682   2.171   6.586   7.735
 2683TIP3   OH229683   2.913   7.243   6.873
 2683TIP3    H129684   3.005   7.245   6.902
 2683TIP3    H229685   2.919   7.224   6.779
 2684TIP3   OH229686   2.329   7.144   7.833
 2684TIP3    H129687   2.286   7.074   7.784
 2684TIP3    H229688   2.279   7.150   7.914
 2685TIP3   OH229689   2.245   6.591   6.750
 2685TIP3    H129690   2.236   6.635   6.666
 2685TIP3    H229691   2.328   6.542   6.743
 2686TIP3   OH229692   1.954   6.836   7.619
 2686TIP3    H129693   1.904   6.844   7.538
 2686TIP3    H229694   1.966   6.742   7.631
 2687TIP3   OH229695   1.940   7.114   7.289
 2687TIP3    H129696   2.034   7.106   7.303
 2687TIP3    H229697   1.910   7.175   7.356
 2688TIP3   OH229698   3.735   7.156   7.930
 2688TIP3    H129699   3.726   7.062   7.917
 2688TIP3    H229700   3.645   7.188   7.936
 2689TIP3   OH229701   2.813   7.150   7.759
 2689TIP3    H129702   2.837   7.167   7.850
 2689TIP3    H229703   2.733   7.098   7.765
 2690TIP3   OH229704   3.431   6.297   7.919
 2690TIP3    H129705   3.373   6.335   7.853
 2690TIP3    H229706   3.441   6.205   7.893
 2691TIP3   OH229707   2.192   6.942   7.707
 2691TIP3    H129708   2.202   6.894   7.789
 2691TIP3    H229709   2.109   6.912   7.671
 2692TIP3   OH229710   2.427   5.786   7.314
 2692TIP3    H129711   2.357   5.784   7.249
 2692TIP3    H229712   2.407   5.862   7.368
 2693TIP3   OH229713   2.908   5.763   7.657
 2693TIP3    H129714   2.952   5.718   7.729
 2693TIP3    H229715   2.815   5.754   7.676
 2694TIP3   OH229716   3.203   6.143   7.722
 2694TIP3    H129717   3.141   6.131   7.795
 2694TIP3    H229718   3.211   6.238   7.713
 2695TIP3   OH229719   2.445   6.308   7.435
 2695TIP3    H129720   2.380   6.313   7.505
 2695TIP3    H229721   2.448   6.396   7.398
 2696TIP3   OH229722   2.375   6.291   6.984
 2696TIP3    H129723   2.310   6.271   6.918
 2696TIP3    H229724   2.438   6.349   6.939
 2697TIP3   OH229725   2.993   6.354   6.775
 2697TIP3    H129726   2.963   6.437   6.740
 2697TIP3    H229727   3.070   6.332   6.722
 2698TIP3   OH229728   2.913   6.351   7.923
 2698TIP3    H129729   2.860   6.278   7.957
 2698TIP3    H229730   2.997   6.342   7.967
 2699TIP3   OH229731   3.081   6.297   7.048
 2699TIP3    H129732   3.048   6.353   6.978
 2699TIP3    H229733   3.123   6.224   7.002
 2700TIP3   OH229734   2.223   6.309   7.605
 2700TIP3    H129735   2.267   6.336   7.686
 2700TIP3    H229736   2.183   6.225   7.628
 2701TIP3   OH229737   1.870   6.082   7.023
 2701TIP3    H129738   1.936   6.046   7.082
 2701TIP3    H229739   1.893   6.046   6.937
 2702TIP3   OH229740   1.980   6.111   6.527
 2702TIP3    H129741   2.054   6.159   6.487
 2702TIP3    H229742   1.909   6.175   6.531
 2703TIP3   OH229743   3.038   6.432   7.523
 2703TIP3    H129744   3.072   6.377   7.453
 2703TIP3    H229745   2.974   6.377   7.568
 2704TIP3   OH229746   2.749   6.037   7.023
 2704TIP3    H129747   2.658   6.043   7.054
 2704TIP3    H229748   2.797   6.000   7.097
 2705TIP3   OH229749   2.147   6.163   6.878
 2705TIP3    H129750   2.088   6.155   6.803
 2705TIP3    H229751   2.208   6.090   6.867
 2706TIP3   OH229752   2.539   6.178   6.693
 2706TIP3    H129753   2.630   6.175   6.721
 2706TIP3    H229754   2.514   6.270   6.700
 2707TIP3   OH229755   3.134   5.987   7.342
 2707TIP3    H129756   3.088   5.996   7.425
 2707TIP3    H229757   3.070   5.946   7.283
 2708TIP3   OH229758   2.238   6.809   7.941
 2708TIP3    H129759   2.304   6.814   8.010
 2708TIP3    H229760   2.155   6.818   7.987
 2709TIP3   OH229761   2.833   6.349   7.213
 2709TIP3    H129762   2.896   6.312   7.151
 2709TIP3    H229763   2.808   6.275   7.269
 2710TIP3   OH229764   2.324   5.951   6.857
 2710TIP3    H129765   2.274   5.869   6.866
 2710TIP3    H229766   2.398   5.927   6.801
 2711TIP3   OH229767   2.697   6.189   7.439
 2711TIP3    H129768   2.617   6.241   7.434
 2711TIP3    H229769   2.748   6.230   7.509
 2712TIP3   OH229770   2.728   6.777   6.678
 2712TIP3    H129771   2.644   6.749   6.641
 2712TIP3    H229772   2.708   6.799   6.769
 2713TIP3   OH229773   3.465   6.741   7.463
 2713TIP3    H129774   3.526   6.792   7.410
 2713TIP3    H229775   3.393   6.720   7.404
 2714TIP3   OH229776   3.123   6.083   6.482
 2714TIP3    H129777   3.061   6.115   6.417
 2714TIP3    H229778   3.163   6.162   6.519
 2715TIP3   OH229779   2.929   6.847   7.755
 2715TIP3    H129780   2.959   6.797   7.831
 2715TIP3    H229781   2.839   6.873   7.778
 2716TIP3   OH229782   3.216   6.316   6.603
 2716TIP3    H129783   3.249   6.387   6.658
 2716TIP3    H229784   3.229   6.348   6.514
 2717TIP3   OH229785   2.251   6.714   7.184
 2717TIP3    H129786   2.298   6.716   7.100
 2717TIP3    H229787   2.303   6.656   7.239
 2718TIP3   OH229788   1.978   6.577   7.718
 2718TIP3    H129789   1.967   6.540   7.806
 2718TIP3    H229790   1.914   6.531   7.665
 2719TIP3   OH229791   2.701   6.533   7.932
 2719TIP3    H129792   2.669   6.525   7.842
 2719TIP3    H229793   2.785   6.488   7.933
 2720TIP3   OH229794   3.098   7.107   7.730
 2720TIP3    H129795   3.007   7.078   7.724
 2720TIP3    H229796   3.118   7.104   7.823
 2721TIP3   OH229797   3.647   6.334   6.608
 2721TIP3    H129798   3.571   6.389   6.587
 2721TIP3    H229799   3.722   6.383   6.574
 2722TIP3   OH229800   3.691   6.873   7.850
 2722TIP3    H129801   3.606   6.896   7.812
 2722TIP3    H229802   3.749   6.864   7.775
 2723TIP3   OH229803   3.542   7.183   6.535
 2723TIP3    H129804   3.523   7.117   6.601
 2723TIP3    H229805   3.486   7.160   6.461
 2724TIP3   OH229806   3.250   6.666   7.291
 2724TIP3    H129807   3.155   6.659   7.280
 2724TIP3    H229808   3.285   6.590   7.246
 2725TIP3   OH229809   2.476   7.105   6.877
 2725TIP3    H129810   2.529   7.109   6.797
 2725TIP3    H229811   2.390   7.077   6.846
 2726TIP3   OH229812   2.093   6.496   6.478
 2726TIP3    H129813   2.145   6.576   6.472
 2726TIP3    H229814   2.003   6.526   6.486
 2727TIP3   OH229815   2.609   6.867   6.945
 2727TIP3    H129816   2.573   6.951   6.916
 2727TIP3    H229817   2.535   6.807   6.940
 2728TIP3   OH229818   2.716   7.229   7.503
 2728TIP3    H129819   2.773   7.289   7.455
 2728TIP3    H229820   2.769   7.200   7.577
 2729TIP3   OH229821   2.461   0.064   6.805
 2729TIP3    H129822   2.416  -0.016   6.832
 2729TIP3    H229823   2.541   0.066   6.858
 2730TIP3   OH229824   3.026   6.859   7.495
 2730TIP3    H129825   2.997   6.843   7.584
 2730TIP3    H229826   3.073   6.779   7.470
 2731TIP3   OH229827   3.293   7.300   7.710
 2731TIP3    H129828   3.222   7.236   7.712
 2731TIP3    H229829   3.258   7.373   7.658
 2732TIP3   OH229830   2.105   6.053   7.649
 2732TIP3    H129831   2.016   6.084   7.633
 2732TIP3    H229832   2.095   5.982   7.712
 2733TIP3   OH229833   3.397   6.830   6.691
 2733TIP3    H129834   3.363   6.796   6.609
 2733TIP3    H229835   3.491   6.811   6.688
 2734TIP3   OH229836   2.100   7.242   7.592
 2734TIP3    H129837   2.049   7.164   7.614
 2734TIP3    H229838   2.036   7.306   7.563
 2735TIP3   OH229839   2.534   7.069   6.612
 2735TIP3    H129840   2.591   7.006   6.568
 2735TIP3    H229841   2.547   7.151   6.564
 2736TIP3   OH229842   2.243   6.748   6.509
 2736TIP3    H129843   2.336   6.739   6.527
 2736TIP3    H229844   2.239   6.795   6.425
 2737TIP3   OH229845   3.000   6.015   7.583
 2737TIP3    H129846   3.075   6.035   7.639
 2737TIP3    H229847   2.970   5.930   7.613
 2738TIP3   OH229848   3.112   5.945   6.719
 2738TIP3    H129849   3.103   5.994   6.637
 2738TIP3    H229850   3.145   6.008   6.782
 2739TIP3   OH229851   2.797   6.160   6.776
 2739TIP3    H129852   2.863   6.230   6.775
 2739TIP3    H229853   2.784   6.142   6.869
 2740TIP3   OH229854   2.868   6.259   7.652
 2740TIP3    H129855   2.884   6.277   7.745
 2740TIP3    H229856   2.906   6.173   7.638
 2741TIP3   OH229857   2.862   5.863   6.825
 2741TIP3    H129858   2.828   5.936   6.878
 2741TIP3    H229859   2.941   5.898   6.784
 2742TIP3   OH229860   2.554   0.003   6.546
 2742TIP3    H129861   2.643   0.037   6.541
 2742TIP3    H229862   2.521   0.033   6.631
 2743TIP3   OH229863   3.455   6.057   7.773
 2743TIP3    H129864   3.363   6.068   7.750
 2743TIP3    H229865   3.501   6.057   7.689
 2744TIP3   OH229866   3.317   6.426   7.168
 2744TIP3    H129867   3.241   6.386   7.126
 2744TIP3    H229868   3.360   6.355   7.213
 2745TIP3   OH229869   2.175   5.776   7.183
 2745TIP3    H129870   2.173   5.768   7.088
 2745TIP3    H229871   2.143   5.691   7.215
 2746TIP3   OH229872   2.121   7.162   6.853
 2746TIP3    H129873   2.052   7.125   6.908
 2746TIP3    H229874   2.074   7.206   6.782
 2747TIP3   OH229875   2.477   7.237   8.120
 2747TIP3    H129876   2.527   7.163   8.155
 2747TIP3    H229877   2.535   7.276   8.054
 2748TIP3   OH229878   3.136   7.116   8.001
 2748TIP3    H129879   3.095   7.037   8.038
 2748TIP3    H229880   3.210   7.134   8.059
 2749TIP3   OH229881   3.342   7.184   6.276
 2749TIP3    H129882   3.284   7.123   6.230
 2749TIP3    H229883   3.408   7.207   6.211
 2750TIP3   OH229884   1.984   6.800   8.050
 2750TIP3    H129885   1.992   6.705   8.039
 2750TIP3    H229886   1.914   6.826   7.991
 2751TIP3   OH229887   2.645   6.804   7.994
 2751TIP3    H129888   2.626   6.845   7.909
 2751TIP3    H229889   2.672   6.715   7.971
 2752TIP3   OH229890   3.227   6.818   7.769
 2752TIP3    H129891   3.314   6.851   7.746
 2752TIP3    H229892   3.166   6.885   7.736
 2753TIP3   OH229893   2.070   6.536   8.002
 2753TIP3    H129894   2.153   6.526   7.956
 2753TIP3    H229895   2.091   6.528   8.094
 2754TIP3   OH229896   2.501   6.661   6.558
 2754TIP3    H129897   2.526   6.592   6.620
 2754TIP3    H229898   2.536   6.631   6.474
 2755TIP3   OH229899   2.461   6.409   7.734
 2755TIP3    H129900   2.399   6.480   7.754
 2755TIP3    H229901   2.535   6.452   7.693
 2756TIP3   OH229902   3.002   6.654   8.038
 2756TIP3    H129903   3.085   6.619   8.007
 2756TIP3    H229904   2.971   6.588   8.101
 2757TIP3   OH229905   2.537   6.164   7.828
 2757TIP3    H129906   2.547   6.104   7.754
 2757TIP3    H229907   2.518   6.249   7.787
 2758TIP3   OH229908   2.564   6.003   7.599
 2758TIP3    H129909   2.620   6.050   7.538
 2758TIP3    H229910   2.478   6.000   7.556
 2759TIP3   OH229911   2.682   6.540   7.644
 2759TIP3    H129912   2.767   6.515   7.608
 2759TIP3    H229913   2.652   6.612   7.587
 2760TIP3   OH229914   3.131   6.305   8.096
 2760TIP3    H129915   3.137   6.230   8.155
 2760TIP3    H229916   3.223   6.329   8.079
 2761TIP3   OH229917   3.276   6.604   7.923
 2761TIP3    H129918   3.249   6.682   7.875
 2761TIP3    H229919   3.371   6.607   7.923
 2762TIP3   OH229920   2.371   6.225   8.048
 2762TIP3    H129921   2.289   6.178   8.029
 2762TIP3    H229922   2.420   6.221   7.966
 2763TIP3   OH229923   2.625   5.741   7.658
 2763TIP3    H129924   2.608   5.832   7.637
 2763TIP3    H229925   2.558   5.692   7.610
 2764TIP3   OH229926   2.757   6.137   7.996
 2764TIP3    H129927   2.709   6.113   8.075
 2764TIP3    H229928   2.689   6.144   7.929
 2765TIP3   OH229929   3.019   6.067   7.905
 2765TIP3    H129930   2.934   6.072   7.948
 2765TIP3    H229931   3.076   6.027   7.970
 2766TIP3   OH229932   3.207   5.956   8.084
 2766TIP3    H129933   3.196   5.861   8.090
 2766TIP3    H229934   3.176   5.990   8.167
 2767TIP3   OH229935   2.164   6.036   7.997
 2767TIP3    H129936   2.171   5.961   7.939
 2767TIP3    H229937   2.170   6.000   8.086
 2768TIP3   OH229938   2.632   5.674   7.921
 2768TIP3    H129939   2.689   5.598   7.916
 2768TIP3    H229940   2.624   5.704   7.830
 2769TIP3   OH229941   2.700   5.831   8.141
 2769TIP3    H129942   2.686   5.782   8.060
 2769TIP3    H229943   2.643   5.907   8.133
 2770TIP3   OH229944   1.914   7.314   7.085
 2770TIP3    H129945   1.905   7.234   7.137
 2770TIP3    H229946   1.980   7.365   7.131
 2771TIP3   OH229947   3.490   6.927   8.174
 2771TIP3    H129948   3.408   6.940   8.223
 2771TIP3    H229949   3.540   7.007   8.189
 2772TIP3   OH229950   3.666   6.768   6.687
 2772TIP3    H129951   3.746   6.820   6.680
 2772TIP3    H229952   3.688   6.699   6.750
 2773TIP3   OH229953   3.718   6.568   6.869
 2773TIP3    H129954   3.638   6.526   6.901
 2773TIP3    H229955   3.770   6.583   6.947
 2774TIP3   OH229956   3.700   6.870   7.376
 2774TIP3    H129957   3.749   6.799   7.335
 2774TIP3    H229958   3.732   6.949   7.333
 2775TIP3   OH229959   3.501   7.166   7.587
 2775TIP3    H129960   3.423   7.207   7.621
 2775TIP3    H229961   3.480   7.146   7.495
 2776TIP3   OH229962   3.679   6.584   6.481
 2776TIP3    H129963   3.589   6.573   6.451
 2776TIP3    H229964   3.676   6.659   6.540
 2777TIP3   OH229965   3.502   6.432   6.958
 2777TIP3    H129966   3.469   6.362   6.902
 2777TIP3    H229967   3.432   6.447   7.022
 2778TIP3   OH229968   1.956   6.631   7.309
 2778TIP3    H129969   1.976   6.623   7.215
 2778TIP3    H229970   2.039   6.607   7.352
 2779TIP3   OH229971   3.551   6.633   7.917
 2779TIP3    H129972   3.608   6.560   7.892
 2779TIP3    H229973   3.596   6.711   7.886
 2780TIP3   OH229974   3.685   6.399   7.874
 2780TIP3    H129975   3.598   6.362   7.891
 2780TIP3    H229976   3.746   6.329   7.900
 2781TIP3   OH229977   3.470   6.201   6.790
 2781TIP3    H129978   3.485   6.109   6.768
 2781TIP3    H229979   3.529   6.249   6.731
 2782TIP3   OH229980   3.474   6.229   7.307
 2782TIP3    H129981   3.565   6.244   7.282
 2782TIP3    H229982   3.471   6.251   7.400
 2783TIP3   OH229983   3.506   6.320   7.576
 2783TIP3    H129984   3.425   6.355   7.613
 2783TIP3    H229985   3.559   6.398   7.557
 2784TIP3   OH229986   1.940   6.167   7.902
 2784TIP3    H129987   2.025   6.138   7.935
 2784TIP3    H229988   1.883   6.091   7.915
 2785TIP3   OH229989   3.727   5.731   8.093
 2785TIP3    H129990   3.794   5.671   8.061
 2785TIP3    H229991   3.726   5.803   8.030
 2786TIP3   OH229992   3.505   5.928   6.742
 2786TIP3    H129993   3.520   5.889   6.829
 2786TIP3    H229994   3.436   5.873   6.704
 2787TIP3   OH229995   2.039   6.010   7.242
 2787TIP3    H129996   2.080   5.924   7.228
 2787TIP3    H229997   2.112   6.070   7.250
 2788TIP3   OH229998   1.852   6.327   7.260
 2788TIP3    H129999   1.944   6.303   7.257
 2788TIP3    H230000   1.846   6.393   7.328
 2789TIP3   OH230001   3.667   5.929   7.920
 2789TIP3    H130002   3.595   5.971   7.966
 2789TIP3    H230003   3.628   5.894   7.840
 2790TIP3   OH230004   1.894   5.992   6.765
 2790TIP3    H130005   1.808   5.955   6.744
 2790TIP3    H230006   1.930   6.017   6.680
 2791TIP3   OH230007   1.906   5.760   7.554
 2791TIP3    H130008   1.838   5.758   7.622
 2791TIP3    H230009   1.878   5.828   7.494
 2792TIP3   OH230010   2.116   7.140   8.005
 2792TIP3    H130011   2.030   7.151   7.963
 2792TIP3    H230012   2.095   7.119   8.096
 2793TIP3   OH230013   2.446   7.299   7.547
 2793TIP3    H130014   2.435   7.329   7.456
 2793TIP3    H230015   2.519   7.237   7.542
 2794TIP3   OH230016   3.565   5.741   7.722
 2794TIP3    H130017   3.508   5.776   7.654
 2794TIP3    H230018   3.580   5.650   7.696
 2795TIP3   OH230019   2.288   7.230   7.201
 2795TIP3    H130020   2.274   7.136   7.203
 2795TIP3    H230021   2.383   7.241   7.214
 2796TIP3   OH230022   2.548   7.197   7.282
 2796TIP3    H130023   2.565   7.113   7.242
 2796TIP3    H230024   2.615   7.206   7.350
 2797TIP3   OH230025   2.911   5.876   7.193
 2797TIP3    H130026   2.845   5.806   7.202
 2797TIP3    H230027   2.982   5.835   7.144
 2798TIP3   OH230028   3.413   5.699   7.142
 2798TIP3    H130029   3.475   5.761   7.103
 2798TIP3    H230030   3.329   5.745   7.139
 2799TIP3   OH230031   3.603   5.822   6.979
 2799TIP3    H130032   3.670   5.755   6.963
 2799TIP3    H230033   3.652   5.902   6.995
 2800TIP3   OH230034   2.157   5.733   6.907
 2800TIP3    H130035   2.065   5.720   6.886
 2800TIP3    H230036   2.195   5.645   6.909
 2801TIP3   OH230037   2.620   5.710   6.936
 2801TIP3    H130038   2.661   5.769   6.872
 2801TIP3    H230039   2.665   5.729   7.018
 2802TIP3   OH230040   3.134   5.755   7.083
 2802TIP3    H130041   3.137   5.752   6.988
 2802TIP3    H230042   3.115   5.665   7.110
 2803TIP3   OH230043   3.301   5.763   6.633
 2803TIP3    H130044   3.235   5.826   6.662
 2803TIP3    H230045   3.280   5.683   6.681
 2804TIP3   OH230046   1.960   7.309   6.683
 2804TIP3    H130047   1.875   7.279   6.650
 2804TIP3    H230048   1.951   7.404   6.690
 2805TIP3   OH230049   2.605   5.906   6.691
 2805TIP3    H130050   2.700   5.898   6.689
 2805TIP3    H230051   2.588   5.998   6.674
 2806TIP3   OH230052   2.168   5.779   7.874
 2806TIP3    H130053   2.103   5.719   7.912
 2806TIP3    H230054   2.249   5.758   7.919
 2807TIP3   OH230055   2.381   5.692   8.038
 2807TIP3    H130056   2.466   5.703   7.995
 2807TIP3    H230057   2.385   5.605   8.076
 2808TIP3   OH230058   3.212   5.674   8.075
 2808TIP3    H130059   3.207   5.629   8.160
 2808TIP3    H230060   3.304   5.667   8.050
 2809TIP3   OH230061   3.482   7.277   7.925
 2809TIP3    H130062   3.417   7.270   7.856
 2809TIP3    H230063   3.519   7.365   7.915
 2810TIP3   OH230064   4.959   6.661   6.939
 2810TIP3    H130065   4.941   6.755   6.934
 2810TIP3    H230066   4.904   6.622   6.872
 2811TIP3   OH230067   4.858   6.585   7.303
 2811TIP3    H130068   4.870   6.538   7.385
 2811TIP3    H230069   4.801   6.528   7.251
 2812TIP3   OH230070   4.064   6.534   7.445
 2812TIP3    H130071   4.074   6.458   7.502
 2812TIP3    H230072   4.152   6.551   7.411
 2813TIP3   OH230073   5.236   6.889   7.133
 2813TIP3    H130074   5.188   6.825   7.185
 2813TIP3    H230075   5.252   6.962   7.193
 2814TIP3   OH230076   4.164   6.983   7.243
 2814TIP3    H130077   4.136   6.895   7.217
 2814TIP3    H230078   4.259   6.978   7.246
 2815TIP3   OH230079   3.824   6.306   6.821
 2815TIP3    H130080   3.813   6.398   6.844
 2815TIP3    H230081   3.769   6.294   6.743
 2816TIP3   OH230082   3.899   6.572   7.076
 2816TIP3    H130083   3.930   6.482   7.091
 2816TIP3    H230084   3.978   6.623   7.060
 2817TIP3   OH230085   4.680   6.835   7.332
 2817TIP3    H130086   4.712   6.782   7.259
 2817TIP3    H230087   4.757   6.852   7.385
 2818TIP3   OH230088   5.572   5.988   7.412
 2818TIP3    H130089   5.588   6.061   7.471
 2818TIP3    H230090   5.619   6.011   7.332
 2819TIP3   OH230091   4.992   6.261   7.327
 2819TIP3    H130092   5.009   6.168   7.339
 2819TIP3    H230093   4.975   6.271   7.233
 2820TIP3   OH230094   4.331   6.080   7.051
 2820TIP3    H130095   4.341   6.166   7.010
 2820TIP3    H230096   4.281   6.029   6.988
 2821TIP3   OH230097   5.085   6.081   6.936
 2821TIP3    H130098   5.137   6.046   7.008
 2821TIP3    H230099   5.150   6.123   6.878
 2822TIP3   OH230100   3.976   6.312   7.141
 2822TIP3    H130101   4.044   6.276   7.198
 2822TIP3    H230102   4.003   6.286   7.053
 2823TIP3   OH230103   4.456   6.458   7.122
 2823TIP3    H130104   4.546   6.431   7.141
 2823TIP3    H230105   4.428   6.402   7.050
 2824TIP3   OH230106   5.610   6.161   7.632
 2824TIP3    H130107   5.539   6.222   7.613
 2824TIP3    H230108   5.626   6.171   7.725
 2825TIP3   OH230109   4.204   5.989   7.482
 2825TIP3    H130110   4.183   6.046   7.408
 2825TIP3    H230111   4.132   6.002   7.544
 2826TIP3   OH230112   4.893   6.908   6.832
 2826TIP3    H130113   4.980   6.947   6.826
 2826TIP3    H230114   4.836   6.980   6.860
 2827TIP3   OH230115   4.463   6.748   7.478
 2827TIP3    H130116   4.408   6.821   7.505
 2827TIP3    H230117   4.534   6.788   7.428
 2828TIP3   OH230118   5.230   6.031   7.165
 2828TIP3    H130119   5.162   6.011   7.229
 2828TIP3    H230120   5.285   6.096   7.207
 2829TIP3   OH230121   4.173   6.156   7.266
 2829TIP3    H130122   4.233   6.214   7.315
 2829TIP3    H230123   4.225   6.126   7.192
 2830TIP3   OH230124   4.306   6.955   7.575
 2830TIP3    H130125   4.306   7.043   7.538
 2830TIP3    H230126   4.216   6.943   7.607
 2831TIP3   OH230127   3.887   6.927   6.643
 2831TIP3    H130128   3.874   6.955   6.553
 2831TIP3    H230129   3.909   7.007   6.691
 2832TIP3   OH230130   5.266   7.105   7.315
 2832TIP3    H130131   5.175   7.110   7.345
 2832TIP3    H230132   5.279   7.187   7.267
 2833TIP3   OH230133   5.317   5.876   7.481
 2833TIP3    H130134   5.246   5.925   7.439
 2833TIP3    H230135   5.397   5.911   7.442
 2834TIP3   OH230136   4.568   5.685   7.247
 2834TIP3    H130137   4.537   5.597   7.228
 2834TIP3    H230138   4.490   5.734   7.271
 2835TIP3   OH230139   5.077   7.282   6.907
 2835TIP3    H130140   5.112   7.193   6.908
 2835TIP3    H230141   5.109   7.319   6.825
 2836TIP3   OH230142   5.155   7.010   6.886
 2836TIP3    H130143   5.208   6.979   6.813
 2836TIP3    H230144   5.192   6.966   6.963
 2837TIP3   OH230145   5.365   6.897   7.685
 2837TIP3    H130146   5.358   6.837   7.612
 2837TIP3    H230147   5.377   6.983   7.645
 2838TIP3   OH230148   4.823   6.619   6.699
 2838TIP3    H130149   4.801   6.712   6.710
 2838TIP3    H230150   4.887   6.618   6.628
 2839TIP3   OH230151   5.533   6.550   7.529
 2839TIP3    H130152   5.462   6.613   7.519
 2839TIP3    H230153   5.592   6.569   7.456
 2840TIP3   OH230154   5.213   6.645   6.824
 2840TIP3    H130155   5.137   6.659   6.880
 2840TIP3    H230156   5.268   6.585   6.874
 2841TIP3   OH230157   5.143   6.421   7.709
 2841TIP3    H130158   5.138   6.493   7.772
 2841TIP3    H230159   5.076   6.443   7.644
 2842TIP3   OH230160   4.306   6.649   6.959
 2842TIP3    H130161   4.267   6.613   6.879
 2842TIP3    H230162   4.365   6.580   6.990
 2843TIP3   OH230163   4.448   6.942   7.225
 2843TIP3    H130164   4.455   6.915   7.133
 2843TIP3    H230165   4.531   6.913   7.264
 2844TIP3   OH230166   4.318   6.563   7.335
 2844TIP3    H130167   4.369   6.537   7.258
 2844TIP3    H230168   4.372   6.629   7.379
 2845TIP3   OH230169   5.021   7.093   7.438
 2845TIP3    H130170   5.018   7.114   7.531
 2845TIP3    H230171   4.973   7.010   7.431
 2846TIP3   OH230172   4.463   6.984   7.799
 2846TIP3    H130173   4.401   7.041   7.843
 2846TIP3    H230174   4.419   6.957   7.718
 2847TIP3   OH230175   5.100   6.552   6.598
 2847TIP3    H130176   5.136   6.585   6.680
 2847TIP3    H230177   5.117   6.622   6.535
 2848TIP3   OH230178   4.137   6.570   7.777
 2848TIP3    H130179   4.149   6.658   7.815
 2848TIP3    H230180   4.051   6.574   7.736
 2849TIP3   OH230181   4.816   7.171   6.905
 2849TIP3    H130182   4.901   7.213   6.913
 2849TIP3    H230183   4.785   7.198   6.818
 2850TIP3   OH230184   4.268   7.168   7.872
 2850TIP3    H130185   4.267   7.202   7.782
 2850TIP3    H230186   4.175   7.163   7.896
 2851TIP3   OH230187   5.475   5.752   6.546
 2851TIP3    H130188   5.386   5.736   6.515
 2851TIP3    H230189   5.530   5.743   6.468
 2852TIP3   OH230190   4.179   6.538   6.738
 2852TIP3    H130191   4.163   6.622   6.695
 2852TIP3    H230192   4.134   6.474   6.684
 2853TIP3   OH230193   5.621   7.229   6.425
 2853TIP3    H130194   5.632   7.294   6.356
 2853TIP3    H230195   5.669   7.152   6.394
 2854TIP3   OH230196   3.834   6.826   7.623
 2854TIP3    H130197   3.789   6.840   7.540
 2854TIP3    H230198   3.851   6.732   7.625
 2855TIP3   OH230199   3.871   7.093   7.277
 2855TIP3    H130200   3.953   7.052   7.252
 2855TIP3    H230201   3.888   7.131   7.363
 2856TIP3   OH230202   5.641   7.157   7.928
 2856TIP3    H130203   5.633   7.063   7.911
 2856TIP3    H230204   5.550   7.189   7.931
 2857TIP3   OH230205   4.714   7.085   7.764
 2857TIP3    H130206   4.729   7.132   7.846
 2857TIP3    H230207   4.625   7.051   7.771
 2858TIP3   OH230208   5.325   6.292   7.911
 2858TIP3    H130209   5.257   6.332   7.857
 2858TIP3    H230210   5.326   6.200   7.885
 2859TIP3   OH230211   4.056   6.969   7.695
 2859TIP3    H130212   4.081   6.931   7.779
 2859TIP3    H230213   3.978   6.921   7.668
 2860TIP3   OH230214   4.316   5.792   7.318
 2860TIP3    H130215   4.241   5.785   7.258
 2860TIP3    H230216   4.294   5.865   7.375
 2861TIP3   OH230217   4.792   5.760   7.656
 2861TIP3    H130218   4.833   5.719   7.732
 2861TIP3    H230219   4.698   5.755   7.674
 2862TIP3   OH230220   5.100   6.148   7.740
 2862TIP3    H130221   5.030   6.135   7.804
 2862TIP3    H230222   5.098   6.243   7.722
 2863TIP3   OH230223   4.331   6.306   7.439
 2863TIP3    H130224   4.265   6.308   7.508
 2863TIP3    H230225   4.334   6.396   7.406
 2864TIP3   OH230226   4.345   6.316   6.914
 2864TIP3    H130227   4.251   6.327   6.901
 2864TIP3    H230228   4.380   6.302   6.826
 2865TIP3   OH230229   4.878   6.349   6.749
 2865TIP3    H130230   4.845   6.438   6.740
 2865TIP3    H230231   4.926   6.333   6.668
 2866TIP3   OH230232   4.795   6.352   7.917
 2866TIP3    H130233   4.743   6.281   7.955
 2866TIP3    H230234   4.878   6.349   7.964
 2867TIP3   OH230235   4.952   6.291   7.056
 2867TIP3    H130236   4.931   6.352   6.986
 2867TIP3    H230237   4.987   6.214   7.012
 2868TIP3   OH230238   4.115   6.312   7.612
 2868TIP3    H130239   4.117   6.359   7.695
 2868TIP3    H230240   4.072   6.229   7.631
 2869TIP3   OH230241   3.780   6.030   7.005
 2869TIP3    H130242   3.828   6.030   7.087
 2869TIP3    H230243   3.793   6.118   6.969
 2870TIP3   OH230244   4.923   6.429   7.529
 2870TIP3    H130245   4.955   6.373   7.458
 2870TIP3    H230246   4.856   6.377   7.573
 2871TIP3   OH230247   4.601   6.004   7.043
 2871TIP3    H130248   4.510   6.033   7.051
 2871TIP3    H230249   4.640   6.024   7.128
 2872TIP3   OH230250   4.074   6.228   6.901
 2872TIP3    H130251   3.998   6.255   6.851
 2872TIP3    H230252   4.101   6.145   6.861
 2873TIP3   OH230253   4.427   6.243   6.660
 2873TIP3    H130254   4.509   6.259   6.613
 2873TIP3    H230255   4.359   6.252   6.593
 2874TIP3   OH230256   5.027   5.986   7.351
 2874TIP3    H130257   4.988   5.995   7.437
 2874TIP3    H230258   4.959   5.945   7.297
 2875TIP3   OH230259   4.127   6.814   7.924
 2875TIP3    H130260   4.193   6.814   7.994
 2875TIP3    H230261   4.043   6.819   7.970
 2876TIP3   OH230262   4.702   6.352   7.207
 2876TIP3    H130263   4.778   6.313   7.163
 2876TIP3    H230264   4.681   6.291   7.277
 2877TIP3   OH230265   4.183   5.965   6.847
 2877TIP3    H130266   4.129   5.889   6.868
 2877TIP3    H230267   4.192   5.962   6.752
 2878TIP3   OH230268   4.591   6.205   7.433
 2878TIP3    H130269   4.508   6.253   7.437
 2878TIP3    H230270   4.641   6.236   7.509
 2879TIP3   OH230271   5.343   6.737   7.462
 2879TIP3    H130272   5.401   6.793   7.410
 2879TIP3    H230273   5.268   6.721   7.405
 2880TIP3   OH230274   4.795   6.810   7.746
 2880TIP3    H130275   4.817   6.778   7.834
 2880TIP3    H230276   4.766   6.900   7.759
 2881TIP3   OH230277   4.143   6.717   7.167
 2881TIP3    H130278   4.195   6.711   7.087
 2881TIP3    H230279   4.191   6.665   7.232
 2882TIP3   OH230280   3.862   6.557   7.713
 2882TIP3    H130281   3.836   6.518   7.796
 2882TIP3    H230282   3.793   6.533   7.652
 2883TIP3   OH230283   4.576   6.528   7.933
 2883TIP3    H130284   4.514   6.491   7.870
 2883TIP3    H230285   4.659   6.485   7.914
 2884TIP3   OH230286   4.989   7.107   7.714
 2884TIP3    H130287   4.893   7.103   7.708
 2884TIP3    H230288   5.006   7.108   7.808
 2885TIP3   OH230289   5.583   6.878   7.849
 2885TIP3    H130290   5.497   6.899   7.813
 2885TIP3    H230291   5.639   6.866   7.772
 2886TIP3   OH230292   5.432   7.158   6.622
 2886TIP3    H130293   5.394   7.071   6.626
 2886TIP3    H230294   5.495   7.154   6.550
 2887TIP3   OH230295   5.128   6.669   7.292
 2887TIP3    H130296   5.033   6.659   7.281
 2887TIP3    H230297   5.165   6.594   7.247
 2888TIP3   OH230298   4.379   7.061   6.899
 2888TIP3    H130299   4.389   7.155   6.881
 2888TIP3    H230300   4.345   7.024   6.818
 2889TIP3   OH230301   3.945   6.510   6.523
 2889TIP3    H130302   4.009   6.577   6.501
 2889TIP3    H230303   3.863   6.542   6.486
 2890TIP3   OH230304   4.515   6.834   6.983
 2890TIP3    H130305   4.499   6.916   6.936
 2890TIP3    H230306   4.445   6.776   6.956
 2891TIP3   OH230307   4.596   7.222   7.506
 2891TIP3    H130308   4.655   7.292   7.478
 2891TIP3    H230309   4.650   7.167   7.563
 2892TIP3   OH230310   4.342  -0.014   6.824
 2892TIP3    H130311   4.257   0.016   6.855
 2892TIP3    H230312   4.405   0.043   6.869
 2893TIP3   OH230313   4.905   6.845   7.494
 2893TIP3    H130314   4.872   6.823   7.581
 2893TIP3    H230315   4.967   6.776   7.473
 2894TIP3   OH230316   5.213   7.285   7.721
 2894TIP3    H130317   5.126   7.248   7.711
 2894TIP3    H230318   5.198   7.370   7.764
 2895TIP3   OH230319   3.991   6.056   7.650
 2895TIP3    H130320   3.901   6.083   7.632
 2895TIP3    H230321   3.982   5.984   7.714
 2896TIP3   OH230322   5.282   6.883   6.671
 2896TIP3    H130323   5.276   6.795   6.708
 2896TIP3    H230324   5.294   6.868   6.577
 2897TIP3   OH230325   3.961   7.179   7.524
 2897TIP3    H130326   3.998   7.115   7.584
 2897TIP3    H230327   3.956   7.260   7.575
 2898TIP3   OH230328   4.103   6.756   6.596
 2898TIP3    H130329   4.028   6.812   6.616
 2898TIP3    H230330   4.174   6.817   6.575
 2899TIP3   OH230331   4.901   6.006   7.591
 2899TIP3    H130332   4.964   6.025   7.661
 2899TIP3    H230333   4.861   5.923   7.617
 2900TIP3   OH230334   4.750   7.231   6.644
 2900TIP3    H130335   4.686   7.172   6.605
 2900TIP3    H230336   4.814   7.248   6.575
 2901TIP3   OH230337   4.720   6.121   6.765
 2901TIP3    H130338   4.777   6.198   6.750
 2901TIP3    H230339   4.661   6.149   6.834
 2902TIP3   OH230340   4.756   6.251   7.655
 2902TIP3    H130341   4.766   6.279   7.746
 2902TIP3    H230342   4.796   6.164   7.652
 2903TIP3   OH230343   4.795   5.871   6.898
 2903TIP3    H130344   4.732   5.915   6.955
 2903TIP3    H230345   4.830   5.941   6.843
 2904TIP3   OH230346   4.399   0.031   6.541
 2904TIP3    H130347   4.384   0.111   6.591
 2904TIP3    H230348   4.398  -0.039   6.606
 2905TIP3   OH230349   5.349   6.043   7.755
 2905TIP3    H130350   5.255   6.063   7.749
 2905TIP3    H230351   5.381   6.052   7.666
 2906TIP3   OH230352   5.204   6.422   7.175
 2906TIP3    H130353   5.119   6.386   7.152
 2906TIP3    H230354   5.245   6.353   7.228
 2907TIP3   OH230355   4.067   5.771   7.196
 2907TIP3    H130356   4.057   5.768   7.100
 2907TIP3    H230357   4.030   5.689   7.227
 2908TIP3   OH230358   3.932   7.171   6.763
 2908TIP3    H130359   3.874   7.209   6.829
 2908TIP3    H230360   4.015   7.216   6.775
 2909TIP3   OH230361   4.337   7.201   8.141
 2909TIP3    H130362   4.421   7.155   8.151
 2909TIP3    H230363   4.310   7.182   8.051
 2910TIP3   OH230364   4.941   7.340   6.431
 2910TIP3    H130365   4.900   7.297   6.356
 2910TIP3    H230366   5.035   7.329   6.417
 2911TIP3   OH230367   5.010   7.108   7.982
 2911TIP3    H130368   4.969   7.037   8.032
 2911TIP3    H230369   5.079   7.140   8.039
 2912TIP3   OH230370   5.240   7.298   6.402
 2912TIP3    H130371   5.280   7.212   6.392
 2912TIP3    H230372   5.291   7.356   6.346
 2913TIP3   OH230373   3.877   6.801   8.045
 2913TIP3    H130374   3.884   6.706   8.037
 2913TIP3    H230375   3.804   6.825   7.987
 2914TIP3   OH230376   4.535   6.798   7.996
 2914TIP3    H130377   4.520   6.844   7.913
 2914TIP3    H230378   4.561   6.709   7.970
 2915TIP3   OH230379   4.877   6.821   6.390
 2915TIP3    H130380   4.964   6.856   6.411
 2915TIP3    H230381   4.852   6.867   6.311
 2916TIP3   OH230382   5.111   6.831   7.768
 2916TIP3    H130383   5.200   6.859   7.746
 2916TIP3    H230384   5.055   6.902   7.737
 2917TIP3   OH230385   3.958   6.534   8.009
 2917TIP3    H130386   4.039   6.526   7.958
 2917TIP3    H230387   3.987   6.530   8.100
 2918TIP3   OH230388   4.380   6.424   7.755
 2918TIP3    H130389   4.304   6.482   7.755
 2918TIP3    H230390   4.439   6.462   7.690
 2919TIP3   OH230391   4.882   6.662   8.044
 2919TIP3    H130392   4.960   6.622   8.007
 2919TIP3    H230393   4.847   6.596   8.104
 2920TIP3   OH230394   4.425   6.166   7.831
 2920TIP3    H130395   4.436   6.109   7.755
 2920TIP3    H230396   4.414   6.253   7.794
 2921TIP3   OH230397   4.455   6.010   7.594
 2921TIP3    H130398   4.509   6.060   7.533
 2921TIP3    H230399   4.368   6.010   7.554
 2922TIP3   OH230400   4.576   6.536   7.605
 2922TIP3    H130401   4.670   6.555   7.612
 2922TIP3    H230402   4.540   6.612   7.560
 2923TIP3   OH230403   5.013   6.316   8.091
 2923TIP3    H130404   5.016   6.235   8.143
 2923TIP3    H230405   5.102   6.352   8.097
 2924TIP3   OH230406   5.160   6.612   7.921
 2924TIP3    H130407   5.132   6.690   7.874
 2924TIP3    H230408   5.256   6.618   7.921
 2925TIP3   OH230409   4.249   6.231   8.044
 2925TIP3    H130410   4.171   6.181   8.025
 2925TIP3    H230411   4.302   6.225   7.965
 2926TIP3   OH230412   4.510   5.745   7.652
 2926TIP3    H130413   4.493   5.837   7.631
 2926TIP3    H230414   4.440   5.697   7.607
 2927TIP3   OH230415   4.647   6.137   7.999
 2927TIP3    H130416   4.611   6.116   8.085
 2927TIP3    H230417   4.571   6.141   7.941
 2928TIP3   OH230418   4.898   6.058   7.895
 2928TIP3    H130419   4.815   6.073   7.941
 2928TIP3    H230420   4.954   6.016   7.961
 2929TIP3   OH230421   5.091   5.941   8.068
 2929TIP3    H130422   5.074   5.848   8.083
 2929TIP3    H230423   5.056   5.984   8.146
 2930TIP3   OH230424   4.047   6.039   7.998
 2930TIP3    H130425   4.051   5.962   7.942
 2930TIP3    H230426   4.058   6.004   8.087
 2931TIP3   OH230427   4.512   5.675   7.914
 2931TIP3    H130428   4.570   5.599   7.907
 2931TIP3    H230429   4.504   5.707   7.824
 2932TIP3   OH230430   4.577   5.833   8.132
 2932TIP3    H130431   4.562   5.788   8.049
 2932TIP3    H230432   4.521   5.910   8.129
 2933TIP3   OH230433   3.831   7.315   7.061
 2933TIP3    H130434   3.817   7.232   7.107
 2933TIP3    H230435   3.869   7.373   7.127
 2934TIP3   OH230436   5.392   6.948   8.173
 2934TIP3    H130437   5.309   6.958   8.219
 2934TIP3    H230438   5.441   7.028   8.194
 2935TIP3   OH230439   5.574   6.695   6.644
 2935TIP3    H130440   5.626   6.776   6.643
 2935TIP3    H230441   5.585   6.661   6.733
 2936TIP3   OH230442   5.602   6.539   6.874
 2936TIP3    H130443   5.515   6.521   6.908
 2936TIP3    H230444   5.651   6.573   6.948
 2937TIP3   OH230445   5.586   6.863   7.383
 2937TIP3    H130446   5.628   6.798   7.327
 2937TIP3    H230447   5.610   6.947   7.344
 2938TIP3   OH230448   5.387   7.141   7.565
 2938TIP3    H130449   5.319   7.195   7.605
 2938TIP3    H230450   5.359   7.131   7.474
 2939TIP3   OH230451   5.491   6.512   6.462
 2939TIP3    H130452   5.477   6.571   6.388
 2939TIP3    H230453   5.517   6.569   6.534
 2940TIP3   OH230454   5.356   6.436   6.948
 2940TIP3    H130455   5.340   6.349   6.911
 2940TIP3    H230456   5.309   6.436   7.031
 2941TIP3   OH230457   3.834   6.628   7.334
 2941TIP3    H130458   3.846   6.618   7.240
 2941TIP3    H230459   3.919   6.607   7.371
 2942TIP3   OH230460   5.439   6.636   7.928
 2942TIP3    H130461   5.494   6.562   7.900
 2942TIP3    H230462   5.481   6.713   7.889
 2943TIP3   OH230463   5.574   6.399   7.874
 2943TIP3    H130464   5.485   6.364   7.886
 2943TIP3    H230465   5.632   6.328   7.900
 2944TIP3   OH230466   5.331   6.043   6.296
 2944TIP3    H130467   5.346   5.988   6.219
 2944TIP3    H230468   5.247   6.087   6.277
 2945TIP3   OH230469   5.309   6.192   6.804
 2945TIP3    H130470   5.337   6.102   6.788
 2945TIP3    H230471   5.300   6.230   6.716
 2946TIP3   OH230472   5.364   6.229   7.311
 2946TIP3    H130473   5.455   6.246   7.285
 2946TIP3    H230474   5.361   6.254   7.403
 2947TIP3   OH230475   5.386   6.322   7.576
 2947TIP3    H130476   5.304   6.353   7.616
 2947TIP3    H230477   5.437   6.402   7.561
 2948TIP3   OH230478   3.817   6.160   7.908
 2948TIP3    H130479   3.904   6.136   7.940
 2948TIP3    H230480   3.764   6.081   7.922
 2949TIP3   OH230481   5.685   5.766   8.074
 2949TIP3    H130482   5.679   5.674   8.048
 2949TIP3    H230483   5.625   5.812   8.016
 2950TIP3   OH230484   5.375   5.930   6.742
 2950TIP3    H130485   5.409   5.892   6.824
 2950TIP3    H230486   5.415   5.876   6.673
 2951TIP3   OH230487   3.923   6.005   7.248
 2951TIP3    H130488   3.970   5.922   7.236
 2951TIP3    H230489   3.993   6.070   7.257
 2952TIP3   OH230490   3.745   6.297   7.301
 2952TIP3    H130491   3.814   6.292   7.235
 2952TIP3    H230492   3.759   6.382   7.343
 2953TIP3   OH230493   5.521   5.934   7.938
 2953TIP3    H130494   5.467   5.972   8.007
 2953TIP3    H230495   5.471   5.946   7.857
 2954TIP3   OH230496   3.757   5.943   6.632
 2954TIP3    H130497   3.674   5.945   6.679
 2954TIP3    H230498   3.807   6.015   6.670
 2955TIP3   OH230499   3.796   5.759   7.550
 2955TIP3    H130500   3.730   5.761   7.620
 2955TIP3    H230501   3.770   5.830   7.491
 2956TIP3   OH230502   4.009   7.163   7.978
 2956TIP3    H130503   3.920   7.164   7.944
 2956TIP3    H230504   3.999   7.140   8.071
 2957TIP3   OH230505   4.332   7.251   7.581
 2957TIP3    H130506   4.291   7.288   7.503
 2957TIP3    H230507   4.422   7.233   7.555
 2958TIP3   OH230508   5.445   5.726   7.714
 2958TIP3    H130509   5.390   5.763   7.645
 2958TIP3    H230510   5.468   5.639   7.682
 2959TIP3   OH230511   4.182   7.248   7.162
 2959TIP3    H130512   4.158   7.156   7.178
 2959TIP3    H230513   4.274   7.254   7.187
 2960TIP3   OH230514   4.435   7.205   7.277
 2960TIP3    H130515   4.440   7.117   7.242
 2960TIP3    H230516   4.492   7.204   7.354
 2961TIP3   OH230517   4.808   5.868   7.221
 2961TIP3    H130518   4.732   5.810   7.217
 2961TIP3    H230519   4.870   5.830   7.159
 2962TIP3   OH230520   5.286   5.676   7.103
 2962TIP3    H130521   5.351   5.740   7.072
 2962TIP3    H230522   5.204   5.725   7.104
 2963TIP3   OH230523   5.484   5.826   6.974
 2963TIP3    H130524   5.548   5.757   6.956
 2963TIP3    H230525   5.537   5.905   6.988
 2964TIP3   OH230526   4.035   5.741   6.922
 2964TIP3    H130527   3.943   5.719   6.906
 2964TIP3    H230528   4.082   5.658   6.913
 2965TIP3   OH230529   3.843   5.777   6.437
 2965TIP3    H130530   3.930   5.812   6.417
 2965TIP3    H230531   3.813   5.830   6.511
 2966TIP3   OH230532   4.556   5.708   6.918
 2966TIP3    H130533   4.641   5.747   6.899
 2966TIP3    H230534   4.524   5.756   6.995
 2967TIP3   OH230535   5.012   5.751   7.063
 2967TIP3    H130536   4.964   5.781   6.986
 2967TIP3    H230537   4.978   5.664   7.081
 2968TIP3   OH230538   5.204   5.715   6.640
 2968TIP3    H130539   5.222   5.793   6.692
 2968TIP3    H230540   5.132   5.672   6.686
 2969TIP3   OH230541   4.614   5.895   6.648
 2969TIP3    H130542   4.537   5.884   6.704
 2969TIP3    H230543   4.644   5.984   6.666
 2970TIP3   OH230544   4.047   5.781   7.873
 2970TIP3    H130545   3.984   5.716   7.906
 2970TIP3    H230546   4.129   5.760   7.917
 2971TIP3   OH230547   4.261   5.695   8.033
 2971TIP3    H130548   4.346   5.706   7.991
 2971TIP3    H230549   4.263   5.606   8.068
 2972TIP3   OH230550   5.092   5.660   8.077
 2972TIP3    H130551   5.089   5.617   8.163
 2972TIP3    H230552   5.184   5.657   8.051
 2973TIP3   OH230553   5.382   7.242   7.944
 2973TIP3    H130554   5.329   7.220   7.867
 2973TIP3    H230555   5.367   7.336   7.957
 2974TIP3   OH230556   6.827   6.680   6.907
 2974TIP3    H130557   6.815   6.774   6.898
 2974TIP3    H230558   6.769   6.641   6.841
 2975TIP3   OH230559   6.714   6.585   7.297
 2975TIP3    H130560   6.737   6.541   7.379
 2975TIP3    H230561   6.678   6.516   7.241
 2976TIP3   OH230562   5.956   6.540   7.437
 2976TIP3    H130563   5.959   6.464   7.495
 2976TIP3    H230564   6.047   6.554   7.411
 2977TIP3   OH230565   7.104   6.885   7.142
 2977TIP3    H130566   7.056   6.810   7.178
 2977TIP3    H230567   7.128   6.937   7.219
 2978TIP3   OH230568   6.084   6.956   7.289
 2978TIP3    H130569   6.036   6.883   7.248
 2978TIP3    H230570   6.173   6.947   7.255
 2979TIP3   OH230571   5.699   6.299   6.782
 2979TIP3    H130572   5.671   6.387   6.809
 2979TIP3    H230573   5.662   6.241   6.848
 2980TIP3   OH230574   5.790   6.581   7.076
 2980TIP3    H130575   5.823   6.492   7.081
 2980TIP3    H230576   5.868   6.636   7.086
 2981TIP3   OH230577   6.572   6.825   7.314
 2981TIP3    H130578   6.612   6.743   7.284
 2981TIP3    H230579   6.641   6.867   7.366
 2982TIP3   OH230580   6.872   6.260   7.336
 2982TIP3    H130581   6.897   6.168   7.348
 2982TIP3    H230582   6.862   6.271   7.242
 2983TIP3   OH230583   6.215   6.092   7.066
 2983TIP3    H130584   6.245   6.167   7.015
 2983TIP3    H230585   6.174   6.034   7.001
 2984TIP3   OH230586   7.018   6.119   6.909
 2984TIP3    H130587   7.056   6.032   6.893
 2984TIP3    H230588   6.991   6.149   6.822
 2985TIP3   OH230589   5.870   6.318   7.115
 2985TIP3    H130590   5.931   6.277   7.176
 2985TIP3    H230591   5.899   6.287   7.029
 2986TIP3   OH230592   6.354   6.450   7.121
 2986TIP3    H130593   6.442   6.418   7.143
 2986TIP3    H230594   6.326   6.395   7.048
 2987TIP3   OH230595   6.085   5.990   7.478
 2987TIP3    H130596   6.064   6.047   7.404
 2987TIP3    H230597   6.014   6.005   7.541
 2988TIP3   OH230598   6.798   6.945   6.846
 2988TIP3    H130599   6.782   6.934   6.752
 2988TIP3    H230600   6.749   7.024   6.869
 2989TIP3   OH230601   6.356   6.753   7.473
 2989TIP3    H130602   6.300   6.825   7.501
 2989TIP3    H230603   6.423   6.795   7.419
 2990TIP3   OH230604   7.152   5.958   7.152
 2990TIP3    H130605   7.083   5.912   7.105
 2990TIP3    H230606   7.120   6.048   7.160
 2991TIP3   OH230607   6.050   6.165   7.268
 2991TIP3    H130608   6.106   6.220   7.322
 2991TIP3    H230609   6.106   6.134   7.197
 2992TIP3   OH230610   6.175   6.954   7.553
 2992TIP3    H130611   6.144   6.968   7.464
 2992TIP3    H230612   6.097   6.965   7.608
 2993TIP3   OH230613   5.755   6.913   6.654
 2993TIP3    H130614   5.765   6.948   6.566
 2993TIP3    H230615   5.789   6.982   6.711
 2994TIP3   OH230616   7.156   7.111   7.330
 2994TIP3    H130617   7.069   7.107   7.369
 2994TIP3    H230618   7.145   7.169   7.254
 2995TIP3   OH230619   7.145   5.902   7.439
 2995TIP3    H130620   7.056   5.938   7.431
 2995TIP3    H230621   7.178   5.900   7.349
 2996TIP3   OH230622   6.454   5.679   7.234
 2996TIP3    H130623   6.423   5.589   7.226
 2996TIP3    H230624   6.376   5.728   7.260
 2997TIP3   OH230625   6.967   7.225   6.941
 2997TIP3    H130626   6.970   7.131   6.957
 2997TIP3    H230627   7.036   7.241   6.876
 2998TIP3   OH230628   7.107   6.994   6.888
 2998TIP3    H130629   7.061   6.937   6.827
 2998TIP3    H230630   7.112   6.942   6.969
 2999TIP3   OH230631   7.212   6.873   7.699
 2999TIP3    H130632   7.213   6.823   7.618
 2999TIP3    H230633   7.257   6.955   7.678
 3000TIP3   OH230634   6.685   6.576   6.645
 3000TIP3    H130635   6.616   6.642   6.638
 3000TIP3    H230636   6.694   6.542   6.556
 3001TIP3   OH230637   7.048   6.612   6.756
 3001TIP3    H130638   6.976   6.633   6.815
 3001TIP3    H230639   7.106   6.556   6.809
 3002TIP3   OH230640   7.005   6.430   7.695
 3002TIP3    H130641   7.006   6.516   7.738
 3002TIP3    H230642   6.936   6.437   7.629
 3003TIP3   OH230643   6.228   6.647   6.980
 3003TIP3    H130644   6.192   6.583   6.919
 3003TIP3    H230645   6.289   6.598   7.034
 3004TIP3   OH230646   6.343   6.938   7.202
 3004TIP3    H130647   6.343   6.962   7.109
 3004TIP3    H230648   6.429   6.900   7.217
 3005TIP3   OH230649   6.214   6.562   7.333
 3005TIP3    H130650   6.268   6.530   7.261
 3005TIP3    H230651   6.268   6.628   7.377
 3006TIP3   OH230652   6.911   7.104   7.450
 3006TIP3    H130653   6.892   7.134   7.539
 3006TIP3    H230654   6.864   7.021   7.442
 3007TIP3   OH230655   6.343   6.978   7.779
 3007TIP3    H130656   6.284   7.035   7.827
 3007TIP3    H230657   6.298   6.962   7.696
 3008TIP3   OH230658   6.017   6.572   7.780
 3008TIP3    H130659   6.031   6.661   7.813
 3008TIP3    H230660   5.931   6.575   7.737
 3009TIP3   OH230661   6.694   7.202   6.881
 3009TIP3    H130662   6.783   7.227   6.905
 3009TIP3    H230663   6.648   7.285   6.867
 3010TIP3   OH230664   6.160   7.162   7.875
 3010TIP3    H130665   6.159   7.206   7.790
 3010TIP3    H230666   6.067   7.156   7.900
 3011TIP3   OH230667   5.725   6.823   7.622
 3011TIP3    H130668   5.674   6.839   7.542
 3011TIP3    H230669   5.738   6.728   7.623
 3012TIP3   OH230670   5.715   7.107   7.307
 3012TIP3    H130671   5.811   7.115   7.311
 3012TIP3    H230672   5.683   7.177   7.364
 3013TIP3   OH230673   6.584   7.111   7.764
 3013TIP3    H130674   6.568   7.187   7.820
 3013TIP3    H230675   6.502   7.061   7.768
 3014TIP3   OH230676   7.162   6.331   7.955
 3014TIP3    H130677   7.133   6.363   7.869
 3014TIP3    H230678   7.249   6.296   7.939
 3015TIP3   OH230679   5.941   6.973   7.703
 3015TIP3    H130680   5.966   6.927   7.783
 3015TIP3    H230681   5.865   6.926   7.670
 3016TIP3   OH230682   6.203   5.791   7.317
 3016TIP3    H130683   6.131   5.783   7.254
 3016TIP3    H230684   6.178   5.864   7.372
 3017TIP3   OH230685   6.675   5.766   7.656
 3017TIP3    H130686   6.719   5.717   7.725
 3017TIP3    H230687   6.582   5.753   7.673
 3018TIP3   OH230688   7.002   6.147   7.737
 3018TIP3    H130689   6.936   6.135   7.805
 3018TIP3    H230690   7.000   6.241   7.719
 3019TIP3   OH230691   6.211   6.308   7.445
 3019TIP3    H130692   6.144   6.312   7.513
 3019TIP3    H230693   6.218   6.398   7.412
 3020TIP3   OH230694   6.237   6.320   6.896
 3020TIP3    H130695   6.149   6.293   6.870
 3020TIP3    H230696   6.291   6.300   6.820
 3021TIP3   OH230697   6.806   6.381   6.812
 3021TIP3    H130698   6.755   6.440   6.755
 3021TIP3    H230699   6.848   6.320   6.751
 3022TIP3   OH230700   6.675   6.356   7.923
 3022TIP3    H130701   6.631   6.279   7.961
 3022TIP3    H230702   6.763   6.354   7.961
 3023TIP3   OH230703   6.858   6.285   7.061
 3023TIP3    H130704   6.826   6.335   6.986
 3023TIP3    H230705   6.905   6.211   7.022
 3024TIP3   OH230706   5.991   6.320   7.610
 3024TIP3    H130707   5.972   6.370   7.690
 3024TIP3    H230708   5.950   6.235   7.625
 3025TIP3   OH230709   5.669   6.039   6.963
 3025TIP3    H130710   5.722   6.033   7.042
 3025TIP3    H230711   5.719   5.993   6.896
 3026TIP3   OH230712   6.783   6.434   7.520
 3026TIP3    H130713   6.822   6.377   7.454
 3026TIP3    H230714   6.724   6.378   7.569
 3027TIP3   OH230715   6.508   6.052   7.060
 3027TIP3    H130716   6.417   6.044   7.089
 3027TIP3    H230717   6.558   6.000   7.124
 3028TIP3   OH230718   5.967   6.220   6.870
 3028TIP3    H130719   5.890   6.233   6.815
 3028TIP3    H230720   5.992   6.129   6.857
 3029TIP3   OH230721   6.395   6.260   6.671
 3029TIP3    H130722   6.418   6.167   6.677
 3029TIP3    H230723   6.470   6.301   6.629
 3030TIP3   OH230724   6.886   5.983   7.364
 3030TIP3    H130725   6.830   5.998   7.440
 3030TIP3    H230726   6.829   5.943   7.299
 3031TIP3   OH230727   6.008   6.812   7.924
 3031TIP3    H130728   6.076   6.815   7.992
 3031TIP3    H230729   5.926   6.817   7.972
 3032TIP3   OH230730   6.597   6.345   7.200
 3032TIP3    H130731   6.657   6.305   7.137
 3032TIP3    H230732   6.574   6.274   7.260
 3033TIP3   OH230733   6.077   5.962   6.862
 3033TIP3    H130734   6.023   5.885   6.881
 3033TIP3    H230735   6.134   5.934   6.790
 3034TIP3   OH230736   6.468   6.196   7.436
 3034TIP3    H130737   6.386   6.246   7.438
 3034TIP3    H230738   6.519   6.231   7.509
 3035TIP3   OH230739   6.478   6.759   6.611
 3035TIP3    H130740   6.441   6.825   6.552
 3035TIP3    H230741   6.454   6.789   6.699
 3036TIP3   OH230742   7.201   6.743   7.459
 3036TIP3    H130743   7.275   6.717   7.403
 3036TIP3    H230744   7.123   6.717   7.409
 3037TIP3   OH230745   6.712   6.856   7.755
 3037TIP3    H130746   6.693   6.807   7.835
 3037TIP3    H230747   6.666   6.939   7.766
 3038TIP3   OH230748   6.967   6.213   6.651
 3038TIP3    H130749   7.049   6.183   6.611
 3038TIP3    H230750   6.898   6.181   6.593
 3039TIP3   OH230751   6.028   6.707   7.162
 3039TIP3    H130752   6.093   6.708   7.091
 3039TIP3    H230753   6.069   6.655   7.231
 3040TIP3   OH230754   6.724   6.931   6.585
 3040TIP3    H130755   6.711   7.003   6.524
 3040TIP3    H230756   6.677   6.857   6.547
 3041TIP3   OH230757   5.749   6.548   7.706
 3041TIP3    H130758   5.718   6.513   7.790
 3041TIP3    H230759   5.677   6.532   7.645
 3042TIP3   OH230760   6.454   6.527   7.955
 3042TIP3    H130761   6.395   6.493   7.888
 3042TIP3    H230762   6.538   6.487   7.935
 3043TIP3   OH230763   6.869   7.151   7.731
 3043TIP3    H130764   6.774   7.138   7.725
 3043TIP3    H230765   6.890   7.133   7.823
 3044TIP3   OH230766   7.288   7.108   6.607
 3044TIP3    H130767   7.223   7.041   6.586
 3044TIP3    H230768   7.318   7.140   6.522
 3045TIP3   OH230769   6.991   6.662   7.291
 3045TIP3    H130770   6.897   6.652   7.275
 3045TIP3    H230771   7.031   6.586   7.249
 3046TIP3   OH230772   6.244   7.063   6.964
 3046TIP3    H130773   6.266   7.149   6.928
 3046TIP3    H230774   6.149   7.060   6.963
 3047TIP3   OH230775   6.361   6.850   6.840
 3047TIP3    H130776   6.331   6.932   6.879
 3047TIP3    H230777   6.320   6.782   6.893
 3048TIP3   OH230778   6.475   7.217   7.514
 3048TIP3    H130779   6.515   7.304   7.509
 3048TIP3    H230780   6.523   7.172   7.584
 3049TIP3   OH230781   6.261  -0.032   6.849
 3049TIP3    H130782   6.214   0.010   6.777
 3049TIP3    H230783   6.307   0.039   6.892
 3050TIP3   OH230784   6.791   6.857   7.486
 3050TIP3    H130785   6.762   6.844   7.577
 3050TIP3    H230786   6.850   6.783   7.469
 3051TIP3   OH230787   7.108   7.295   7.698
 3051TIP3    H130788   7.032   7.238   7.707
 3051TIP3    H230789   7.072   7.378   7.666
 3052TIP3   OH230790   5.873   6.062   7.646
 3052TIP3    H130791   5.785   6.094   7.627
 3052TIP3    H230792   5.859   5.985   7.701
 3053TIP3   OH230793   5.931   7.231   7.550
 3053TIP3    H130794   5.900   7.157   7.603
 3053TIP3    H230795   5.860   7.294   7.552
 3054TIP3   OH230796   6.350   6.963   6.272
 3054TIP3    H130797   6.309   6.884   6.237
 3054TIP3    H230798   6.331   6.962   6.366
 3055TIP3   OH230799   6.330   6.992   6.547
 3055TIP3    H130800   6.333   6.991   6.643
 3055TIP3    H230801   6.278   7.070   6.526
 3056TIP3   OH230802   6.766   6.023   7.607
 3056TIP3    H130803   6.844   6.035   7.661
 3056TIP3    H230804   6.735   5.935   7.629
 3057TIP3   OH230805   6.667   7.213   6.531
 3057TIP3    H130806   6.609   7.265   6.586
 3057TIP3    H230807   6.744   7.196   6.586
 3058TIP3   OH230808   6.628   6.258   7.659
 3058TIP3    H130809   6.646   6.284   7.750
 3058TIP3    H230810   6.672   6.174   7.648
 3059TIP3   OH230811   6.584   5.874   6.844
 3059TIP3    H130812   6.581   5.948   6.905
 3059TIP3    H230813   6.572   5.914   6.758
 3060TIP3   OH230814   6.489   0.033   6.663
 3060TIP3    H130815   6.436   0.068   6.591
 3060TIP3    H230816   6.425   0.003   6.727
 3061TIP3   OH230817   7.245   6.011   7.708
 3061TIP3    H130818   7.167   6.063   7.731
 3061TIP3    H230819   7.224   5.973   7.623
 3062TIP3   OH230820   7.076   6.424   7.169
 3062TIP3    H130821   6.994   6.392   7.132
 3062TIP3    H230822   7.113   6.349   7.214
 3063TIP3   OH230823   5.878   6.273   6.338
 3063TIP3    H130824   5.912   6.316   6.259
 3063TIP3    H230825   5.900   6.181   6.326
 3064TIP3   OH230826   5.953   5.769   7.190
 3064TIP3    H130827   5.945   5.759   7.095
 3064TIP3    H230828   5.919   5.686   7.225
 3065TIP3   OH230829   5.842   7.143   6.816
 3065TIP3    H130830   5.780   7.168   6.885
 3065TIP3    H230831   5.824   7.204   6.744
 3066TIP3   OH230832   6.295   7.265   8.088
 3066TIP3    H130833   6.354   7.198   8.122
 3066TIP3    H230834   6.244   7.219   8.021
 3067TIP3   OH230835   6.727   7.255   6.264
 3067TIP3    H130836   6.739   7.240   6.358
 3067TIP3    H230837   6.805   7.217   6.224
 3068TIP3   OH230838   6.905   7.127   8.005
 3068TIP3    H130839   6.864   7.045   8.034
 3068TIP3    H230840   6.978   7.140   8.064
 3069TIP3   OH230841   6.951   7.101   6.351
 3069TIP3    H130842   7.005   7.028   6.381
 3069TIP3    H230843   7.014   7.166   6.318
 3070TIP3   OH230844   5.760   6.801   8.045
 3070TIP3    H130845   5.761   6.706   8.038
 3070TIP3    H230846   5.689   6.829   7.988
 3071TIP3   OH230847   6.428   6.808   7.989
 3071TIP3    H130848   6.406   6.844   7.903
 3071TIP3    H230849   6.449   6.716   7.972
 3072TIP3   OH230850   6.972   6.752   7.755
 3072TIP3    H130851   7.050   6.806   7.739
 3072TIP3    H230852   6.899   6.813   7.746
 3073TIP3   OH230853   5.837   6.537   8.000
 3073TIP3    H130854   5.916   6.543   7.947
 3073TIP3    H230855   5.869   6.530   8.090
 3074TIP3   OH230856   6.260   6.428   7.768
 3074TIP3    H130857   6.181   6.482   7.760
 3074TIP3    H230858   6.321   6.465   7.704
 3075TIP3   OH230859   6.755   6.651   8.060
 3075TIP3    H130860   6.841   6.622   8.031
 3075TIP3    H230861   6.724   6.581   8.117
 3076TIP3   OH230862   6.332   6.162   7.811
 3076TIP3    H130863   6.336   6.103   7.736
 3076TIP3    H230864   6.318   6.249   7.772
 3077TIP3   OH230865   6.338   5.999   7.587
 3077TIP3    H130866   6.392   6.048   7.525
 3077TIP3    H230867   6.250   6.000   7.547
 3078TIP3   OH230868   6.452   6.538   7.612
 3078TIP3    H130869   6.545   6.529   7.594
 3078TIP3    H230870   6.425   6.617   7.565
 3079TIP3   OH230871   6.906   6.314   8.088
 3079TIP3    H130872   6.922   6.230   8.131
 3079TIP3    H230873   6.989   6.335   8.045
 3080TIP3   OH230874   7.014   6.604   7.974
 3080TIP3    H130875   6.987   6.662   7.902
 3080TIP3    H230876   7.108   6.591   7.961
 3081TIP3   OH230877   6.148   6.230   7.999
 3081TIP3    H130878   6.126   6.322   7.981
 3081TIP3    H230879   6.212   6.206   7.932
 3082TIP3   OH230880   6.395   5.740   7.661
 3082TIP3    H130881   6.379   5.830   7.634
 3082TIP3    H230882   6.329   5.689   7.614
 3083TIP3   OH230883   6.534   6.130   7.995
 3083TIP3    H130884   6.480   6.103   8.070
 3083TIP3    H230885   6.472   6.137   7.922
 3084TIP3   OH230886   6.800   6.075   7.907
 3084TIP3    H130887   6.712   6.077   7.946
 3084TIP3    H230888   6.853   6.026   7.969
 3085TIP3   OH230889   6.975   5.946   8.080
 3085TIP3    H130890   6.958   5.852   8.085
 3085TIP3    H230891   6.940   5.980   8.162
 3086TIP3   OH230892   5.930   6.058   8.042
 3086TIP3    H130893   6.010   6.095   8.005
 3086TIP3    H230894   5.903   6.122   8.108
 3087TIP3   OH230895   6.390   5.669   7.924
 3087TIP3    H130896   6.446   5.591   7.919
 3087TIP3    H230897   6.387   5.702   7.834
 3088TIP3   OH230898   6.462   5.826   8.143
 3088TIP3    H130899   6.452   5.774   8.064
 3088TIP3    H230900   6.404   5.901   8.130
 3089TIP3   OH230901   5.760   6.996   6.380
 3089TIP3    H130902   5.851   6.974   6.363
 3089TIP3    H230903   5.711   6.921   6.347
 3090TIP3   OH230904   5.698   7.290   7.048
 3090TIP3    H130905   5.670   7.221   7.108
 3090TIP3    H230906   5.740   7.354   7.104
 3091TIP3   OH230907   7.238   6.936   8.148
 3091TIP3    H130908   7.158   6.947   8.199
 3091TIP3    H230909   7.303   6.989   8.195
 3092TIP3   OH230910   7.285   7.118   7.576
 3092TIP3    H130911   7.224   7.175   7.622
 3092TIP3    H230912   7.245   7.103   7.491
 3093TIP3   OH230913   7.181   6.419   6.909
 3093TIP3    H130914   7.125   6.347   6.879
 3093TIP3    H230915   7.155   6.433   7.000
 3094TIP3   OH230916   5.713   6.604   7.334
 3094TIP3    H130917   5.726   6.605   7.239
 3094TIP3    H230918   5.800   6.593   7.370
 3095TIP3   OH230919   7.274   6.628   7.913
 3095TIP3    H130920   7.354   6.575   7.918
 3095TIP3    H230921   7.292   6.692   7.844
 3096TIP3   OH230922   7.202   6.202   7.285
 3096TIP3    H130923   7.252   6.120   7.292
 3096TIP3    H230924   7.258   6.268   7.327
 3097TIP3   OH230925   7.281   6.385   7.627
 3097TIP3    H130926   7.186   6.393   7.628
 3097TIP3    H230927   7.303   6.374   7.534
 3098TIP3   OH230928   5.695   6.147   7.901
 3098TIP3    H130929   5.778   6.123   7.942
 3098TIP3    H230930   5.636   6.075   7.922
 3099TIP3   OH230931   7.135   5.871   6.853
 3099TIP3    H130932   7.225   5.888   6.826
 3099TIP3    H230933   7.093   5.836   6.775
 3100TIP3   OH230934   5.810   6.007   7.211
 3100TIP3    H130935   5.855   5.922   7.211
 3100TIP3    H230936   5.878   6.070   7.236
 3101TIP3   OH230937   5.635   6.302   7.286
 3101TIP3    H130938   5.701   6.290   7.218
 3101TIP3    H230939   5.652   6.389   7.322
 3102TIP3   OH230940   5.755   5.886   6.733
 3102TIP3    H130941   5.669   5.884   6.690
 3102TIP3    H230942   5.817   5.882   6.661
 3103TIP3   OH230943   5.679   5.778   7.557
 3103TIP3    H130944   5.611   5.774   7.624
 3103TIP3    H230945   5.648   5.845   7.495
 3104TIP3   OH230946   5.907   7.176   8.004
 3104TIP3    H130947   5.823   7.176   7.958
 3104TIP3    H230948   5.889   7.130   8.086
 3105TIP3   OH230949   6.194   7.272   7.620
 3105TIP3    H130950   6.107   7.266   7.581
 3105TIP3    H230951   6.252   7.231   7.556
 3106TIP3   OH230952   6.069   7.224   7.212
 3106TIP3    H130953   6.057   7.133   7.238
 3106TIP3    H230954   6.163   7.239   7.219
 3107TIP3   OH230955   6.343   7.203   7.275
 3107TIP3    H130956   6.344   7.112   7.246
 3107TIP3    H230957   6.387   7.202   7.360
 3108TIP3   OH230958   6.684   5.869   7.192
 3108TIP3    H130959   6.622   5.795   7.191
 3108TIP3    H230960   6.752   5.844   7.130
 3109TIP3   OH230961   7.204   5.689   7.196
 3109TIP3    H130962   7.223   5.779   7.169
 3109TIP3    H230963   7.137   5.659   7.134
 3110TIP3   OH230964   5.918   5.738   6.918
 3110TIP3    H130965   5.845   5.764   6.862
 3110TIP3    H230966   5.937   5.648   6.893
 3111TIP3   OH230967   6.400   5.699   6.951
 3111TIP3    H130968   6.457   5.754   6.897
 3111TIP3    H230969   6.435   5.707   7.040
 3112TIP3   OH230970   6.932   5.768   7.076
 3112TIP3    H130971   6.961   5.760   6.985
 3112TIP3    H230972   6.903   5.680   7.100
 3113TIP3   OH230973   7.044   5.753   6.628
 3113TIP3    H130974   7.027   5.756   6.534
 3113TIP3    H230975   7.015   5.665   6.654
 3114TIP3   OH230976   5.749  -0.004   6.645
 3114TIP3    H130977   5.702  -0.048   6.574
 3114TIP3    H230978   5.694   0.071   6.667
 3115TIP3   OH230979   5.921   5.734   7.868
 3115TIP3    H130980   5.870   5.656   7.891
 3115TIP3    H230981   6.011   5.713   7.895
 3116TIP3   OH230982   6.136   5.701   8.036
 3116TIP3    H130983   6.224   5.699   8.000
 3116TIP3    H230984   6.125   5.617   8.079
 3117TIP3   OH230985   6.973   5.666   8.075
 3117TIP3    H130986   6.970   5.620   8.159
 3117TIP3    H230987   7.066   5.663   8.049
 3118TIP3   OH230988   7.272   7.292   7.940
 3118TIP3    H130989   7.221   7.267   7.863
 3118TIP3    H230990   7.247   7.383   7.957
 3119TIP3   OH230991   1.064   0.774   8.223
 3119TIP3    H130992   1.115   0.813   8.294
 3119TIP3    H230993   1.126   0.718   8.177
 3120TIP3   OH230994   1.254   0.875   8.391
 3120TIP3    H130995   1.277   0.933   8.464
 3120TIP3    H230996   1.311   0.903   8.320
 3121TIP3   OH230997   1.620   0.029   8.397
 3121TIP3    H130998   1.638   0.039   8.491
 3121TIP3    H230999   1.676   0.094   8.355
 3122TIP3   OH231000   1.775   1.506   8.245
 3122TIP3    H131001   1.792   1.598   8.269
 3122TIP3    H231002   1.854   1.460   8.272
 3123TIP3   OH231003   1.329   1.752   8.321
 3123TIP3    H131004   1.367   1.684   8.265
 3123TIP3    H231005   1.347   1.722   8.410
 3124TIP3   OH231006   1.429   0.953   8.201
 3124TIP3    H131007   1.397   0.958   8.111
 3124TIP3    H231008   1.521   0.977   8.196
 3125TIP3   OH231009   0.963   0.292   8.350
 3125TIP3    H131010   0.887   0.349   8.358
 3125TIP3    H231011   0.948   0.242   8.270
 3126TIP3   OH231012   0.671   0.384   8.167
 3126TIP3    H131013   0.619   0.355   8.242
 3126TIP3    H231014   0.618   0.452   8.126
 3127TIP3   OH231015   0.138   0.508   8.444
 3127TIP3    H131016   0.185   0.536   8.366
 3127TIP3    H231017   0.079   0.439   8.413
 3128TIP3   OH231018   0.551   0.697   8.324
 3128TIP3    H131019   0.492   0.651   8.265
 3128TIP3    H231020   0.631   0.709   8.273
 3129TIP3   OH231021   1.237   0.395   8.385
 3129TIP3    H131022   1.166   0.444   8.343
 3129TIP3    H231023   1.287   0.461   8.432
 3130TIP3   OH231024   1.301   0.634   0.013
 3130TIP3    H131025   1.388   0.638   0.054
 3130TIP3    H231026   1.295   0.714  -0.039
 3131TIP3   OH231027   1.055   1.275   8.408
 3131TIP3    H131028   1.006   1.357   8.411
 3131TIP3    H231029   1.038   1.234   8.493
 3132TIP3   OH231030   1.787   0.598   8.458
 3132TIP3    H131031   1.741   0.606   8.374
 3132TIP3    H231032   1.851   0.669   8.457
 3133TIP3   OH231033   0.182   0.910   8.252
 3133TIP3    H131034   0.221   0.979   8.304
 3133TIP3    H231035   0.098   0.892   8.293
 3134TIP3   OH231036   1.396   1.324   8.302
 3134TIP3    H131037   1.378   1.301   8.393
 3134TIP3    H231038   1.320   1.290   8.254
 3135TIP3   OH231039   1.831   1.767   8.333
 3135TIP3    H131040   1.904   1.830   8.334
 3135TIP3    H231041   1.778   1.792   8.409
 3136TIP3   OH231042   0.781   1.410   8.144
 3136TIP3    H131043   0.783   1.326   8.098
 3136TIP3    H231044   0.740   1.390   8.228
 3137TIP3   OH231045   0.653   1.387   8.389
 3137TIP3    H131046   0.645   1.325   8.461
 3137TIP3    H231047   0.662   1.472   8.432
 3138TIP3   OH231048   0.283   1.107   8.415
 3138TIP3    H131049   0.335   1.084   8.493
 3138TIP3    H231050   0.325   1.185   8.381
 3139TIP3   OH231051   0.934   1.523   8.405
 3139TIP3    H131052   0.849   1.560   8.427
 3139TIP3    H231053   0.950   1.552   8.315
 3140TIP3   OH231054   0.693   1.649   8.470
 3140TIP3    H131055   0.716   1.731   8.424
 3140TIP3    H231056   0.638   1.677   8.543
 3141TIP3   OH231057   0.523   0.325   8.391
 3141TIP3    H131058   0.456   0.311   8.458
 3141TIP3    H231059   0.597   0.362   8.439
 3142TIP3   OH231060   0.402   1.329   8.295
 3142TIP3    H131061   0.479   1.373   8.331
 3142TIP3    H231062   0.437   1.272   8.226
 3143TIP3   OH231063   0.235   0.639   8.222
 3143TIP3    H131064   0.252   0.732   8.239
 3143TIP3    H231065   0.142   0.635   8.203
 3144TIP3   OH231066   0.990   1.587   8.134
 3144TIP3    H131067   0.920   1.522   8.125
 3144TIP3    H231068   1.066   1.546   8.094
 3145TIP3   OH231069   1.440   1.560   8.164
 3145TIP3    H131070   1.444   1.480   8.216
 3145TIP3    H231071   1.518   1.556   8.108
 3146TIP3   OH231072   0.533   1.147   8.139
 3146TIP3    H131073   0.547   1.083   8.209
 3146TIP3    H231074   0.617   1.154   8.095
 3147TIP3   OH231075   1.167   1.253   8.160
 3147TIP3    H131076   1.116   1.252   8.241
 3147TIP3    H231077   1.146   1.169   8.118
 3148TIP3   OH231078   0.605   0.968   8.339
 3148TIP3    H131079   0.553   0.890   8.353
 3148TIP3    H231080   0.685   0.936   8.297
 3149TIP3   OH231081   0.792   0.809   8.211
 3149TIP3    H131082   0.782   0.833   8.119
 3149TIP3    H231083   0.885   0.789   8.221
 3150TIP3   OH231084   1.683   1.037   8.127
 3150TIP3    H131085   1.682   1.011   8.035
 3150TIP3    H231086   1.669   1.132   8.126
 3151TIP3   OH231087   0.803   1.892   8.380
 3151TIP3    H131088   0.892   1.862   8.366
 3151TIP3    H231089   0.785   1.950   8.306
 3152TIP3   OH231090   0.134   1.352   8.248
 3152TIP3    H131091   0.223   1.368   8.280
 3152TIP3    H231092   0.142   1.273   8.194
 3153TIP3   OH231093   1.808   1.036   8.376
 3153TIP3    H131094   1.775   1.024   8.287
 3153TIP3    H231095   1.866   0.961   8.390
 3154TIP3   OH231096   1.662   0.626   8.213
 3154TIP3    H131097   1.643   0.686   8.141
 3154TIP3    H231098   1.641   0.540   8.178
 3155TIP3   OH231099   1.608   0.374   8.119
 3155TIP3    H131100   1.662   0.317   8.174
 3155TIP3    H231101   1.519   0.340   8.129
 3156TIP3   OH231102   1.791   0.222   8.268
 3156TIP3    H131103   1.852   0.164   8.223
 3156TIP3    H231104   1.846   0.279   8.322
 3157TIP3   OH231105   0.226   0.099   8.439
 3157TIP3    H131106   0.251   0.152   8.363
 3157TIP3    H231107   0.134   0.078   8.425
 3158TIP3   OH231108   0.309   0.263   8.227
 3158TIP3    H131109   0.345   0.200   8.165
 3158TIP3    H231110   0.385   0.295   8.275
 3159TIP3   OH231111   1.050   1.799   8.306
 3159TIP3    H131112   1.145   1.794   8.318
 3159TIP3    H231113   1.031   1.736   8.236
 3160TIP3   OH231114   0.343   1.777   8.195
 3160TIP3    H131115   0.309   1.785   8.284
 3160TIP3    H231116   0.412   1.710   8.202
 3161TIP3   OH231117   2.957   0.780   8.226
 3161TIP3    H131118   3.003   0.825   8.298
 3161TIP3    H231119   2.989   0.690   8.230
 3162TIP3   OH231120   3.149   0.880   8.405
 3162TIP3    H131121   3.181   0.930   8.480
 3162TIP3    H231122   3.205   0.908   8.333
 3163TIP3   OH231123   3.537   0.018   8.401
 3163TIP3    H131124   3.536   0.038   8.494
 3163TIP3    H231125   3.573   0.097   8.360
 3164TIP3   OH231126   3.643   1.486   8.205
 3164TIP3    H131127   3.663   1.573   8.240
 3164TIP3    H231128   3.720   1.433   8.226
 3165TIP3   OH231129   3.181   1.773   8.335
 3165TIP3    H131130   3.235   1.701   8.303
 3165TIP3    H231131   3.210   1.786   8.426
 3166TIP3   OH231132   3.317   0.977   8.219
 3166TIP3    H131133   3.301   0.961   8.126
 3166TIP3    H231134   3.407   1.008   8.223
 3167TIP3   OH231135   2.879   0.367   8.302
 3167TIP3    H131136   2.806   0.380   8.363
 3167TIP3    H231137   2.847   0.302   8.239
 3168TIP3   OH231138   2.543   0.393   8.156
 3168TIP3    H131139   2.487   0.371   8.231
 3168TIP3    H231140   2.504   0.473   8.120
 3169TIP3   OH231141   1.968   0.392   8.401
 3169TIP3    H131142   2.061   0.413   8.389
 3169TIP3    H231143   1.927   0.475   8.423
 3170TIP3   OH231144   2.502   0.653   8.393
 3170TIP3    H131145   2.422   0.604   8.372
 3170TIP3    H231146   2.533   0.685   8.309
 3171TIP3   OH231147   3.110   0.507   8.280
 3171TIP3    H131148   3.031   0.454   8.295
 3171TIP3    H231149   3.145   0.523   8.367
 3172TIP3   OH231150   3.187   0.633   0.026
 3172TIP3    H131151   3.279   0.626   0.049
 3172TIP3    H231152   3.180   0.716  -0.020
 3173TIP3   OH231153   2.970   1.276   8.401
 3173TIP3    H131154   2.917   1.354   8.412
 3173TIP3    H231155   2.953   1.223   8.480
 3174TIP3   OH231156   3.687   0.652   8.428
 3174TIP3    H131157   3.638   0.634   8.348
 3174TIP3    H231158   3.725   0.738   8.415
 3175TIP3   OH231159   2.101   0.982   8.196
 3175TIP3    H131160   2.169   1.021   8.252
 3175TIP3    H231161   2.059   0.916   8.251
 3176TIP3   OH231162   3.280   1.312   8.337
 3176TIP3    H131163   3.285   1.314   8.433
 3176TIP3    H231164   3.195   1.271   8.319
 3177TIP3   OH231165   3.697   1.739   8.305
 3177TIP3    H131166   3.772   1.798   8.311
 3177TIP3    H231167   3.624   1.791   8.339
 3178TIP3   OH231168   2.653   1.414   8.142
 3178TIP3    H131169   2.660   1.328   8.100
 3178TIP3    H231170   2.611   1.396   8.226
 3179TIP3   OH231171   2.523   1.401   8.384
 3179TIP3    H131172   2.528   1.329   8.448
 3179TIP3    H231173   2.541   1.480   8.435
 3180TIP3   OH231174   2.222   1.098   8.417
 3180TIP3    H131175   2.139   1.072   8.458
 3180TIP3    H231176   2.212   1.191   8.399
 3181TIP3   OH231177   2.828   1.511   8.402
 3181TIP3    H131178   2.743   1.547   8.429
 3181TIP3    H231179   2.841   1.545   8.313
 3182TIP3   OH231180   2.596   1.650   8.480
 3182TIP3    H131181   2.596   1.728   8.424
 3182TIP3    H231182   2.603   1.684   8.569
 3183TIP3   OH231183   2.495   0.216   8.398
 3183TIP3    H131184   2.412   0.258   8.375
 3183TIP3    H231185   2.545   0.284   8.444
 3184TIP3   OH231186   2.277   1.343   8.278
 3184TIP3    H131187   2.355   1.382   8.318
 3184TIP3    H231188   2.310   1.276   8.219
 3185TIP3   OH231189   2.049   0.650   8.155
 3185TIP3    H131190   2.062   0.688   8.242
 3185TIP3    H231191   1.978   0.587   8.167
 3186TIP3   OH231192   2.879   1.561   8.124
 3186TIP3    H131193   2.795   1.515   8.122
 3186TIP3    H231194   2.945   1.492   8.114
 3187TIP3   OH231195   3.326   1.566   8.228
 3187TIP3    H131196   3.321   1.488   8.283
 3187TIP3    H231197   3.419   1.575   8.208
 3188TIP3   OH231198   2.413   1.148   8.139
 3188TIP3    H131199   2.427   1.089   8.213
 3188TIP3    H231200   2.499   1.155   8.097
 3189TIP3   OH231201   3.001   1.285   8.131
 3189TIP3    H131202   2.982   1.276   8.224
 3189TIP3    H231203   2.998   1.196   8.097
 3190TIP3   OH231204   2.494   0.979   8.342
 3190TIP3    H131205   2.427   0.920   8.377
 3190TIP3    H231206   2.560   0.921   8.305
 3191TIP3   OH231207   2.672   0.813   8.214
 3191TIP3    H131208   2.659   0.834   8.122
 3191TIP3    H231209   2.766   0.800   8.223
 3192TIP3   OH231210   3.585   1.068   8.202
 3192TIP3    H131211   3.568   1.034   8.114
 3192TIP3    H231212   3.650   1.137   8.189
 3193TIP3   OH231213   2.676   1.908   8.377
 3193TIP3    H131214   2.761   1.865   8.362
 3193TIP3    H231215   2.663   1.963   8.300
 3194TIP3   OH231216   2.007   1.357   8.301
 3194TIP3    H131217   2.102   1.369   8.295
 3194TIP3    H231218   1.985   1.299   8.228
 3195TIP3   OH231219   3.749   0.910   8.361
 3195TIP3    H131220   3.687   0.948   8.299
 3195TIP3    H231221   3.748   0.969   8.436
 3196TIP3   OH231222   3.554   0.630   8.192
 3196TIP3    H131223   3.571   0.680   8.111
 3196TIP3    H231224   3.532   0.542   8.161
 3197TIP3   OH231225   3.500   0.373   8.095
 3197TIP3    H131226   3.539   0.324   8.167
 3197TIP3    H231227   3.407   0.351   8.099
 3198TIP3   OH231228   3.661   0.239   8.282
 3198TIP3    H131229   3.714   0.179   8.230
 3198TIP3    H231230   3.725   0.294   8.327
 3199TIP3   OH231231   1.955   0.010   8.421
 3199TIP3    H131232   2.029   0.047   8.372
 3199TIP3    H231233   1.965   0.045   8.509
 3200TIP3   OH231234   2.170   0.140   8.302
 3200TIP3    H131235   2.214   0.119   8.220
 3200TIP3    H231236   2.183   0.234   8.313
 3201TIP3   OH231237   2.908   1.790   8.292
 3201TIP3    H131238   3.001   1.796   8.314
 3201TIP3    H231239   2.905   1.725   8.221
 3202TIP3   OH231240   2.229   1.760   8.184
 3202TIP3    H131241   2.202   1.751   8.275
 3202TIP3    H231242   2.300   1.696   8.174
 3203TIP3   OH231243   4.823   0.750   8.259
 3203TIP3    H131244   4.907   0.785   8.288
 3203TIP3    H231245   4.846   0.675   8.204
 3204TIP3   OH231246   5.007   0.896   8.390
 3204TIP3    H131247   5.018   0.949   8.469
 3204TIP3    H231248   5.076   0.925   8.331
 3205TIP3   OH231249   5.388   0.102   8.480
 3205TIP3    H131250   5.344   0.026   8.442
 3205TIP3    H231251   5.450   0.130   8.414
 3206TIP3   OH231252   5.553   1.501   8.230
 3206TIP3    H131253   5.572   1.588   8.265
 3206TIP3    H231254   5.638   1.458   8.225
 3207TIP3   OH231255   5.084   1.751   8.317
 3207TIP3    H131256   5.128   1.682   8.268
 3207TIP3    H231257   5.110   1.735   8.408
 3208TIP3   OH231258   5.200   0.991   8.229
 3208TIP3    H131259   5.169   0.987   8.139
 3208TIP3    H231260   5.296   0.990   8.221
 3209TIP3   OH231261   4.754   0.394   8.334
 3209TIP3    H131262   4.694   0.384   8.408
 3209TIP3    H231263   4.724   0.330   8.270
 3210TIP3   OH231264   4.412   0.394   8.164
 3210TIP3    H131265   4.364   0.370   8.243
 3210TIP3    H231266   4.361   0.464   8.125
 3211TIP3   OH231267   3.839   0.419   8.399
 3211TIP3    H131268   3.910   0.461   8.352
 3211TIP3    H231269   3.782   0.491   8.427
 3212TIP3   OH231270   4.333   0.661   8.316
 3212TIP3    H131271   4.274   0.649   8.241
 3212TIP3    H231272   4.415   0.691   8.277
 3213TIP3   OH231273   5.023   0.411   8.388
 3213TIP3    H131274   4.929   0.399   8.376
 3213TIP3    H231275   5.030   0.492   8.439
 3214TIP3   OH231276   5.059   0.654   0.033
 3214TIP3    H131277   5.148   0.658   0.067
 3214TIP3    H231278   5.053   0.729  -0.026
 3215TIP3   OH231279   4.785   1.228   8.408
 3215TIP3    H131280   4.748   1.317   8.407
 3215TIP3    H231281   4.815   1.216   8.498
 3216TIP3   OH231282   5.587   0.655   8.428
 3216TIP3    H131283   5.530   0.637   8.353
 3216TIP3    H231284   5.614   0.746   8.416
 3217TIP3   OH231285   3.998   0.880   8.260
 3217TIP3    H131286   4.043   0.950   8.306
 3217TIP3    H231287   3.908   0.882   8.294
 3218TIP3   OH231288   5.171   1.328   8.319
 3218TIP3    H131289   5.156   1.322   8.413
 3218TIP3    H231290   5.092   1.292   8.280
 3219TIP3   OH231291   5.619   1.755   8.326
 3219TIP3    H131292   5.689   1.821   8.332
 3219TIP3    H231293   5.545   1.794   8.372
 3220TIP3   OH231294   4.544   1.401   8.149
 3220TIP3    H131295   4.554   1.323   8.095
 3220TIP3    H231296   4.507   1.368   8.231
 3221TIP3   OH231297   4.398   1.395   8.441
 3221TIP3    H131298   4.422   1.385   8.533
 3221TIP3    H231299   4.417   1.487   8.421
 3222TIP3   OH231300   4.060   1.102   8.417
 3222TIP3    H131301   4.138   1.081   8.468
 3222TIP3    H231302   4.080   1.185   8.374
 3223TIP3   OH231303   4.711   1.503   8.400
 3223TIP3    H131304   4.630   1.547   8.423
 3223TIP3    H231305   4.734   1.537   8.313
 3224TIP3   OH231306   4.480   1.657   8.451
 3224TIP3    H131307   4.479   1.729   8.388
 3224TIP3    H231308   4.490   1.699   8.536
 3225TIP3   OH231309   4.275   0.344   8.407
 3225TIP3    H131310   4.236   0.431   8.414
 3225TIP3    H231311   4.359   0.352   8.452
 3226TIP3   OH231312   4.148   1.337   8.304
 3226TIP3    H131313   4.217   1.376   8.358
 3226TIP3    H231314   4.195   1.287   8.237
 3227TIP3   OH231315   4.005   0.602   8.271
 3227TIP3    H131316   4.017   0.697   8.270
 3227TIP3    H231317   4.006   0.576   8.179
 3228TIP3   OH231318   4.756   1.580   8.132
 3228TIP3    H131319   4.686   1.516   8.125
 3228TIP3    H231320   4.832   1.536   8.094
 3229TIP3   OH231321   5.209   1.560   8.165
 3229TIP3    H131322   5.221   1.485   8.223
 3229TIP3    H231323   5.288   1.561   8.111
 3230TIP3   OH231324   4.318   1.153   8.178
 3230TIP3    H131325   4.271   1.081   8.136
 3230TIP3    H231326   4.356   1.202   8.106
 3231TIP3   OH231327   4.938   1.243   8.177
 3231TIP3    H131328   4.876   1.240   8.251
 3231TIP3    H231329   4.922   1.162   8.130
 3232TIP3   OH231330   4.531   0.942   8.400
 3232TIP3    H131331   4.451   0.994   8.404
 3232TIP3    H231332   4.520   0.886   8.323
 3233TIP3   OH231333   4.552   0.778   8.187
 3233TIP3    H131334   4.547   0.813   8.099
 3233TIP3    H231335   4.642   0.745   8.196
 3234TIP3   OH231336   5.466   1.023   8.155
 3234TIP3    H131337   5.456   1.003   8.062
 3234TIP3    H231338   5.452   1.117   8.161
 3235TIP3   OH231339   4.569   1.923   8.375
 3235TIP3    H131340   4.654   1.878   8.368
 3235TIP3    H231341   4.561   1.971   8.292
 3236TIP3   OH231342   3.865   1.317   8.256
 3236TIP3    H131343   3.956   1.340   8.276
 3236TIP3    H231344   3.872   1.243   8.195
 3237TIP3   OH231345   5.620   0.920   8.356
 3237TIP3    H131346   5.564   0.943   8.282
 3237TIP3    H231347   5.597   0.984   8.424
 3238TIP3   OH231348   5.419   0.630   8.213
 3238TIP3    H131349   5.411   0.662   8.123
 3238TIP3    H231350   5.387   0.539   8.208
 3239TIP3   OH231351   5.341   0.370   8.186
 3239TIP3    H131352   5.409   0.313   8.222
 3239TIP3    H231353   5.305   0.321   8.113
 3240TIP3   OH231354   5.554   0.224   8.298
 3240TIP3    H131355   5.599   0.170   8.233
 3240TIP3    H231356   5.621   0.285   8.330
 3241TIP3   OH231357   3.933   0.061   8.399
 3241TIP3    H131358   3.960   0.137   8.347
 3241TIP3    H231359   3.916   0.097   8.486
 3242TIP3   OH231360   4.085   0.250   8.230
 3242TIP3    H131361   4.129   0.190   8.169
 3242TIP3    H231362   4.150   0.268   8.297
 3243TIP3   OH231363   4.804   1.796   8.306
 3243TIP3    H131364   4.899   1.794   8.319
 3243TIP3    H231365   4.788   1.732   8.236
 3244TIP3   OH231366   4.130   1.776   8.213
 3244TIP3    H131367   4.109   1.772   8.306
 3244TIP3    H231368   4.202   1.713   8.201
 3245TIP3   OH231369   6.730   0.794   8.236
 3245TIP3    H131370   6.786   0.825   8.306
 3245TIP3    H231371   6.785   0.735   8.185
 3246TIP3   OH231372   6.942   0.880   8.395
 3246TIP3    H131373   6.970   0.935   8.468
 3246TIP3    H231374   6.993   0.913   8.320
 3247TIP3   OH231375   7.289   0.117   8.388
 3247TIP3    H131376   7.247   0.072   8.462
 3247TIP3    H231377   7.252   0.206   8.390
 3248TIP3   OH231378   6.971   1.747   8.321
 3248TIP3    H131379   7.008   1.677   8.267
 3248TIP3    H231380   6.997   1.725   8.411
 3249TIP3   OH231381   7.095   0.992   8.195
 3249TIP3    H131382   7.062   0.957   8.113
 3249TIP3    H231383   7.152   1.065   8.169
 3250TIP3   OH231384   6.624   0.344   8.348
 3250TIP3    H131385   6.541   0.385   8.369
 3250TIP3    H231386   6.604   0.285   8.275
 3251TIP3   OH231387   6.314   0.380   8.162
 3251TIP3    H131388   6.261   0.354   8.237
 3251TIP3    H231389   6.263   0.451   8.121
 3252TIP3   OH231390   5.733   0.416   8.396
 3252TIP3    H131391   5.802   0.449   8.338
 3252TIP3    H231392   5.680   0.492   8.418
 3253TIP3   OH231393   6.215   0.684   8.322
 3253TIP3    H131394   6.160   0.650   8.251
 3253TIP3    H231395   6.300   0.699   8.280
 3254TIP3   OH231396   6.882   0.445   8.316
 3254TIP3    H131397   6.794   0.412   8.336
 3254TIP3    H231398   6.907   0.495   8.394
 3255TIP3   OH231399   6.959   0.634   0.019
 3255TIP3    H131400   7.052   0.629   0.044
 3255TIP3    H231401   6.952   0.714  -0.033
 3256TIP3   OH231402   6.733   1.275   8.405
 3256TIP3    H131403   6.682   1.356   8.410
 3256TIP3    H231404   6.710   1.227   8.484
 3257TIP3   OH231405   5.868   0.897   8.246
 3257TIP3    H131406   5.916   0.962   8.297
 3257TIP3    H231407   5.779   0.900   8.280
 3258TIP3   OH231408   7.028   1.316   8.341
 3258TIP3    H131409   7.017   1.315   8.436
 3258TIP3    H231410   6.941   1.294   8.307
 3259TIP3   OH231411   6.434   1.407   8.142
 3259TIP3    H131412   6.441   1.320   8.101
 3259TIP3    H231413   6.392   1.390   8.226
 3260TIP3   OH231414   6.303   1.394   8.387
 3260TIP3    H131415   6.290   1.328   8.455
 3260TIP3    H231416   6.316   1.476   8.435
 3261TIP3   OH231417   5.955   1.076   8.437
 3261TIP3    H131418   5.922   1.024   8.510
 3261TIP3    H231419   6.037   1.114   8.469
 3262TIP3   OH231420   6.598   1.514   8.399
 3262TIP3    H131421   6.513   1.550   8.424
 3262TIP3    H231422   6.612   1.546   8.310
 3263TIP3   OH231423   6.364   1.648   8.476
 3263TIP3    H131424   6.371   1.726   8.420
 3263TIP3    H231425   6.366   1.683   8.565
 3264TIP3   OH231426   6.169   0.330   8.396
 3264TIP3    H131427   6.103   0.391   8.429
 3264TIP3    H231428   6.247   0.349   8.447
 3265TIP3   OH231429   6.056   1.356   8.266
 3265TIP3    H131430   6.129   1.400   8.310
 3265TIP3    H231431   6.093   1.276   8.230
 3266TIP3   OH231432   5.862   0.614   8.241
 3266TIP3    H131433   5.872   0.710   8.245
 3266TIP3    H231434   5.798   0.600   8.171
 3267TIP3   OH231435   6.644   1.583   8.131
 3267TIP3    H131436   6.576   1.516   8.124
 3267TIP3    H231437   6.722   1.542   8.091
 3268TIP3   OH231438   7.083   1.553   8.168
 3268TIP3    H131439   7.102   1.470   8.212
 3268TIP3    H231440   7.150   1.562   8.101
 3269TIP3   OH231441   6.206   1.147   8.170
 3269TIP3    H131442   6.220   1.080   8.236
 3269TIP3    H231443   6.289   1.150   8.121
 3270TIP3   OH231444   6.789   1.266   8.138
 3270TIP3    H131445   6.756   1.261   8.227
 3270TIP3    H231446   6.777   1.178   8.102
 3271TIP3   OH231447   6.271   0.955   8.352
 3271TIP3    H131448   6.215   0.878   8.364
 3271TIP3    H231449   6.348   0.922   8.307
 3272TIP3   OH231450   6.455   0.802   8.219
 3272TIP3    H131451   6.445   0.825   8.126
 3272TIP3    H231452   6.549   0.791   8.230
 3273TIP3   OH231453   6.453   1.897   8.377
 3273TIP3    H131454   6.542   1.865   8.363
 3273TIP3    H231455   6.436   1.954   8.302
 3274TIP3   OH231456   5.793   1.364   8.200
 3274TIP3    H131457   5.880   1.363   8.241
 3274TIP3    H231458   5.782   1.276   8.163
 3275TIP3   OH231459   7.304   0.650   8.203
 3275TIP3    H131460   7.249   0.686   8.134
 3275TIP3    H231461   7.281   0.557   8.205
 3276TIP3   OH231462   7.247   0.380   8.187
 3276TIP3    H131463   7.291   0.298   8.164
 3276TIP3    H231464   7.161   0.374   8.147
 3277TIP3   OH231465   5.887   0.089   8.427
 3277TIP3    H131466   5.854   0.156   8.366
 3277TIP3    H231467   5.827   0.093   8.501
 3278TIP3   OH231468   5.966   0.270   8.213
 3278TIP3    H131469   5.985   0.192   8.162
 3278TIP3    H231470   6.033   0.271   8.282
 3279TIP3   OH231471   6.696   1.796   8.305
 3279TIP3    H131472   6.791   1.795   8.318
 3279TIP3    H231473   6.681   1.733   8.234
 3280TIP3   OH231474   5.991   1.748   8.174
 3280TIP3    H131475   5.960   1.750   8.264
 3280TIP3    H231476   6.066   1.689   8.175
 3281TIP3   OH231477   1.056   2.690   8.234
 3281TIP3    H131478   1.110   2.717   8.308
 3281TIP3    H231479   1.111   2.627   8.187
 3282TIP3   OH231480   1.266   2.743   8.410
 3282TIP3    H131481   1.299   2.803   8.476
 3282TIP3    H231482   1.317   2.763   8.331
 3283TIP3   OH231483   1.626   1.954   8.458
 3283TIP3    H131484   1.561   1.909   8.404
 3283TIP3    H231485   1.669   2.014   8.398
 3284TIP3   OH231486   1.778   3.382   8.225
 3284TIP3    H131487   1.799   3.471   8.255
 3284TIP3    H231488   1.862   3.335   8.230
 3285TIP3   OH231489   1.300   3.673   8.322
 3285TIP3    H131490   1.361   3.601   8.332
 3285TIP3    H231491   1.323   3.734   8.392
 3286TIP3   OH231492   1.418   2.794   8.191
 3286TIP3    H131493   1.396   2.823   8.103
 3286TIP3    H231494   1.505   2.832   8.207
 3287TIP3   OH231495   0.970   2.235   8.306
 3287TIP3    H131496   0.888   2.281   8.323
 3287TIP3    H231497   0.944   2.157   8.257
 3288TIP3   OH231498   0.681   2.296   8.182
 3288TIP3    H131499   0.625   2.268   8.255
 3288TIP3    H231500   0.626   2.356   8.132
 3289TIP3   OH231501   0.158   2.381   8.433
 3289TIP3    H131502   0.198   2.413   8.353
 3289TIP3    H231503   0.081   2.332   8.404
 3290TIP3   OH231504   0.545   2.585   8.323
 3290TIP3    H131505   0.485   2.535   8.268
 3290TIP3    H231506   0.624   2.595   8.271
 3291TIP3   OH231507   1.230   2.332   8.285
 3291TIP3    H131508   1.142   2.298   8.302
 3291TIP3    H231509   1.256   2.372   8.368
 3292TIP3   OH231510   1.324   2.494   0.006
 3292TIP3    H131511   1.413   2.504   0.042
 3292TIP3    H231512   1.304   2.579  -0.033
 3293TIP3   OH231513   1.050   3.170   8.408
 3293TIP3    H131514   0.998   3.249   8.416
 3293TIP3    H231515   1.070   3.145   8.498
 3294TIP3   OH231516   1.796   2.534   8.429
 3294TIP3    H131517   1.753   2.518   8.345
 3294TIP3    H231518   1.825   2.625   8.424
 3295TIP3   OH231519   0.178   2.794   8.241
 3295TIP3    H131520   0.227   2.858   8.293
 3295TIP3    H231521   0.091   2.792   8.280
 3296TIP3   OH231522   1.410   3.140   8.352
 3296TIP3    H131523   1.419   3.214   8.412
 3296TIP3    H231524   1.323   3.151   8.313
 3297TIP3   OH231525   1.851   3.636   8.309
 3297TIP3    H131526   1.920   3.700   8.324
 3297TIP3    H231527   1.771   3.678   8.341
 3298TIP3   OH231528   0.784   3.281   8.132
 3298TIP3    H131529   0.788   3.202   8.078
 3298TIP3    H231530   0.725   3.258   8.203
 3299TIP3   OH231531   0.656   3.283   8.431
 3299TIP3    H131532   0.655   3.201   8.481
 3299TIP3    H231533   0.747   3.310   8.431
 3300TIP3   OH231534   0.289   2.960   8.425
 3300TIP3    H131535   0.255   2.916   8.503
 3300TIP3    H231536   0.365   3.010   8.457
 3301TIP3   OH231537   0.902   3.408   8.401
 3301TIP3    H131538   0.852   3.483   8.434
 3301TIP3    H231539   0.932   3.435   8.314
 3302TIP3   OH231540   0.690   3.593   8.489
 3302TIP3    H131541   0.704   3.654   8.417
 3302TIP3    H231542   0.719   3.640   8.567
 3303TIP3   OH231543   0.512   2.228   8.391
 3303TIP3    H131544   0.441   2.218   8.454
 3303TIP3    H231545   0.588   2.251   8.444
 3304TIP3   OH231546   0.418   3.245   8.302
 3304TIP3    H131547   0.505   3.260   8.340
 3304TIP3    H231548   0.433   3.179   8.235
 3305TIP3   OH231549   0.233   2.524   8.212
 3305TIP3    H131550   0.247   2.617   8.231
 3305TIP3    H231551   0.139   2.516   8.198
 3306TIP3   OH231552   0.995   3.457   8.133
 3306TIP3    H131553   0.931   3.386   8.121
 3306TIP3    H231554   1.077   3.420   8.099
 3307TIP3   OH231555   1.454   3.435   8.183
 3307TIP3    H131556   1.485   3.421   8.273
 3307TIP3    H231557   1.534   3.445   8.132
 3308TIP3   OH231558   0.533   3.047   8.146
 3308TIP3    H131559   0.541   2.978   8.212
 3308TIP3    H231560   0.614   3.041   8.095
 3309TIP3   OH231561   1.141   3.152   8.149
 3309TIP3    H131562   1.100   3.149   8.235
 3309TIP3    H231563   1.125   3.065   8.112
 3310TIP3   OH231564   0.600   2.857   8.337
 3310TIP3    H131565   0.546   2.779   8.353
 3310TIP3    H231566   0.678   2.822   8.294
 3311TIP3   OH231567   0.784   2.698   8.208
 3311TIP3    H131568   0.776   2.717   8.115
 3311TIP3    H231569   0.878   2.689   8.223
 3312TIP3   OH231570   1.678   2.900   8.174
 3312TIP3    H131571   1.678   2.877   8.081
 3312TIP3    H231572   1.666   2.995   8.175
 3313TIP3   OH231573   0.775   3.780   8.314
 3313TIP3    H131574   0.867   3.752   8.317
 3313TIP3    H231575   0.775   3.852   8.250
 3314TIP3   OH231576   0.153   3.249   8.227
 3314TIP3    H131577   0.237   3.259   8.273
 3314TIP3    H231578   0.160   3.163   8.185
 3315TIP3   OH231579   1.841   2.799   8.369
 3315TIP3    H131580   1.785   2.824   8.295
 3315TIP3    H231581   1.822   2.865   8.436
 3316TIP3   OH231582   1.670   2.498   8.191
 3316TIP3    H131583   1.633   2.556   8.124
 3316TIP3    H231584   1.655   2.410   8.157
 3317TIP3   OH231585   1.602   2.250   8.076
 3317TIP3    H131586   1.637   2.203   8.152
 3317TIP3    H231587   1.510   2.223   8.071
 3318TIP3   OH231588   1.748   2.132   8.285
 3318TIP3    H131589   1.795   2.072   8.228
 3318TIP3    H231590   1.817   2.185   8.326
 3319TIP3   OH231591   0.161   1.965   8.370
 3319TIP3    H131592   0.219   2.008   8.307
 3319TIP3    H231593   0.182   2.008   8.454
 3320TIP3   OH231594   0.342   2.109   8.211
 3320TIP3    H131595   0.395   2.054   8.153
 3320TIP3    H231596   0.406   2.152   8.268
 3321TIP3   OH231597   1.025   3.672   8.302
 3321TIP3    H131598   1.117   3.687   8.320
 3321TIP3    H231599   1.024   3.606   8.232
 3322TIP3   OH231600   0.341   3.661   8.180
 3322TIP3    H131601   0.310   3.675   8.269
 3322TIP3    H231602   0.406   3.591   8.187
 3323TIP3   OH231603   2.941   2.694   8.233
 3323TIP3    H131604   2.987   2.723   8.312
 3323TIP3    H231605   3.001   2.631   8.193
 3324TIP3   OH231606   3.148   2.764   8.410
 3324TIP3    H131607   3.186   2.817   8.480
 3324TIP3    H231608   3.201   2.784   8.333
 3325TIP3   OH231609   3.508   1.923   8.399
 3325TIP3    H131610   3.483   1.944   8.488
 3325TIP3    H231611   3.546   2.004   8.365
 3326TIP3   OH231612   3.646   3.377   8.229
 3326TIP3    H131613   3.665   3.465   8.260
 3326TIP3    H231614   3.730   3.330   8.236
 3327TIP3   OH231615   3.197   3.632   8.315
 3327TIP3    H131616   3.244   3.563   8.269
 3327TIP3    H231617   3.236   3.633   8.403
 3328TIP3   OH231618   3.308   2.818   8.199
 3328TIP3    H131619   3.288   2.840   8.108
 3328TIP3    H231620   3.400   2.839   8.210
 3329TIP3   OH231621   2.852   2.246   8.296
 3329TIP3    H131622   2.834   2.244   8.390
 3329TIP3    H231623   2.806   2.170   8.262
 3330TIP3   OH231624   2.530   2.296   8.129
 3330TIP3    H131625   2.499   2.263   8.214
 3330TIP3    H231626   2.469   2.366   8.107
 3331TIP3   OH231627   1.940   2.299   8.392
 3331TIP3    H131628   2.016   2.334   8.346
 3331TIP3    H231629   1.893   2.376   8.422
 3332TIP3   OH231630   2.457   2.563   8.319
 3332TIP3    H131631   2.386   2.545   8.258
 3332TIP3    H231632   2.529   2.595   8.263
 3333TIP3   OH231633   3.115   2.339   8.283
 3333TIP3    H131634   3.027   2.306   8.303
 3333TIP3    H231635   3.145   2.377   8.366
 3334TIP3   OH231636   3.185   2.506   0.002
 3334TIP3    H131637   3.275   2.502   0.036
 3334TIP3    H231638   3.177   2.595  -0.033
 3335TIP3   OH231639   2.966   3.162   8.401
 3335TIP3    H131640   2.915   3.244   8.404
 3335TIP3    H231641   2.958   3.126   8.489
 3336TIP3   OH231642   3.696   2.534   8.436
 3336TIP3    H131643   3.647   2.516   8.355
 3336TIP3    H231644   3.728   2.623   8.425
 3337TIP3   OH231645   2.092   2.767   8.266
 3337TIP3    H131646   2.142   2.836   8.308
 3337TIP3    H231647   2.004   2.774   8.304
 3338TIP3   OH231648   3.284   3.189   8.345
 3338TIP3    H131649   3.276   3.197   8.440
 3338TIP3    H231650   3.194   3.176   8.315
 3339TIP3   OH231651   3.714   3.630   8.319
 3339TIP3    H131652   3.786   3.693   8.324
 3339TIP3    H231653   3.638   3.678   8.352
 3340TIP3   OH231654   2.667   3.296   8.142
 3340TIP3    H131655   2.671   3.209   8.103
 3340TIP3    H231656   2.625   3.282   8.227
 3341TIP3   OH231657   2.529   3.284   8.382
 3341TIP3    H131658   2.524   3.221   8.453
 3341TIP3    H231659   2.545   3.368   8.425
 3342TIP3   OH231660   2.183   2.980   8.413
 3342TIP3    H131661   2.211   2.972   8.504
 3342TIP3    H231662   2.220   3.063   8.383
 3343TIP3   OH231663   2.832   3.401   8.397
 3343TIP3    H131664   2.749   3.439   8.427
 3343TIP3    H231665   2.848   3.443   8.312
 3344TIP3   OH231666   2.598   3.533   8.473
 3344TIP3    H131667   2.600   3.612   8.419
 3344TIP3    H231668   2.595   3.566   8.563
 3345TIP3   OH231669   2.445   2.179   8.364
 3345TIP3    H131670   2.468   2.244   8.430
 3345TIP3    H231671   2.491   2.100   8.392
 3346TIP3   OH231672   2.280   3.209   8.289
 3346TIP3    H131673   2.352   3.262   8.323
 3346TIP3    H231674   2.320   3.152   8.224
 3347TIP3   OH231675   2.085   2.490   8.242
 3347TIP3    H131676   2.103   2.583   8.255
 3347TIP3    H231677   2.025   2.488   8.168
 3348TIP3   OH231678   2.879   3.471   8.125
 3348TIP3    H131679   2.812   3.403   8.122
 3348TIP3    H231680   2.958   3.428   8.091
 3349TIP3   OH231681   3.336   3.444   8.167
 3349TIP3    H131682   3.378   3.393   8.237
 3349TIP3    H231683   3.405   3.457   8.102
 3350TIP3   OH231684   2.418   3.024   8.141
 3350TIP3    H131685   2.435   2.966   8.215
 3350TIP3    H231686   2.504   3.036   8.099
 3351TIP3   OH231687   3.015   3.151   8.132
 3351TIP3    H131688   2.988   3.147   8.224
 3351TIP3    H231689   3.000   3.062   8.100
 3352TIP3   OH231690   2.514   2.860   8.345
 3352TIP3    H131691   2.492   2.793   8.410
 3352TIP3    H231692   2.575   2.816   8.285
 3353TIP3   OH231693   2.668   2.693   8.186
 3353TIP3    H131694   2.667   2.722   8.095
 3353TIP3    H231695   2.761   2.688   8.209
 3354TIP3   OH231696   3.573   2.901   8.179
 3354TIP3    H131697   3.629   2.881   8.104
 3354TIP3    H231698   3.550   2.994   8.168
 3355TIP3   OH231699   2.683   3.786   8.377
 3355TIP3    H131700   2.771   3.751   8.363
 3355TIP3    H231701   2.667   3.843   8.302
 3356TIP3   OH231702   2.016   3.237   8.221
 3356TIP3    H131703   2.105   3.233   8.257
 3356TIP3    H231704   2.005   3.154   8.175
 3357TIP3   OH231705   3.741   2.797   8.371
 3357TIP3    H131706   3.679   2.821   8.302
 3357TIP3    H231707   3.724   2.858   8.442
 3358TIP3   OH231708   3.560   2.511   8.203
 3358TIP3    H131709   3.583   2.566   8.128
 3358TIP3    H231710   3.529   2.429   8.164
 3359TIP3   OH231711   3.487   2.261   8.091
 3359TIP3    H131712   3.530   2.217   8.165
 3359TIP3    H231713   3.398   2.228   8.092
 3360TIP3   OH231714   3.645   2.137   8.285
 3360TIP3    H131715   3.692   2.069   8.235
 3360TIP3    H231716   3.714   2.184   8.331
 3361TIP3   OH231717   2.023   1.967   8.374
 3361TIP3    H131718   2.073   2.021   8.313
 3361TIP3    H231719   2.079   1.961   8.452
 3362TIP3   OH231720   2.221   2.103   8.221
 3362TIP3    H131721   2.269   2.043   8.165
 3362TIP3    H231722   2.286   2.137   8.283
 3363TIP3   OH231723   2.924   3.680   8.303
 3363TIP3    H131724   3.018   3.678   8.318
 3363TIP3    H231725   2.910   3.623   8.228
 3364TIP3   OH231726   2.226   3.642   8.186
 3364TIP3    H131727   2.204   3.652   8.279
 3364TIP3    H231728   2.300   3.582   8.184
 3365TIP3   OH231729   4.830   2.670   8.243
 3365TIP3    H131730   4.868   2.682   8.330
 3365TIP3    H231731   4.893   2.613   8.198
 3366TIP3   OH231732   5.039   2.801   8.419
 3366TIP3    H131733   4.974   2.869   8.437
 3366TIP3    H231734   5.080   2.828   8.336
 3367TIP3   OH231735   5.426   1.925   8.437
 3367TIP3    H131736   5.331   1.927   8.445
 3367TIP3    H231737   5.449   2.004   8.390
 3368TIP3   OH231738   5.552   3.390   8.229
 3368TIP3    H131739   5.571   3.475   8.269
 3368TIP3    H231740   5.633   3.339   8.242
 3369TIP3   OH231741   5.068   3.638   8.329
 3369TIP3    H131742   5.051   3.546   8.307
 3369TIP3    H231743   5.093   3.636   8.421
 3370TIP3   OH231744   5.184   2.883   8.192
 3370TIP3    H131745   5.100   2.907   8.153
 3370TIP3    H231746   5.221   2.817   8.134
 3371TIP3   OH231747   4.741   2.229   8.301
 3371TIP3    H131748   4.668   2.263   8.353
 3371TIP3    H231749   4.702   2.163   8.245
 3372TIP3   OH231750   4.434   2.298   8.170
 3372TIP3    H131751   4.386   2.258   8.242
 3372TIP3    H231752   4.371   2.359   8.131
 3373TIP3   OH231753   3.841   2.299   8.397
 3373TIP3    H131754   3.915   2.341   8.354
 3373TIP3    H231755   3.788   2.371   8.430
 3374TIP3   OH231756   4.326   2.585   8.320
 3374TIP3    H131757   4.268   2.540   8.259
 3374TIP3    H231758   4.407   2.597   8.271
 3375TIP3   OH231759   4.993   2.336   8.290
 3375TIP3    H131760   4.907   2.298   8.303
 3375TIP3    H231761   5.013   2.380   8.373
 3376TIP3   OH231762   5.059   2.524   8.496
 3376TIP3    H131763   5.146   2.500   8.528
 3376TIP3    H231764   5.067   2.616   8.472
 3377TIP3   OH231765   4.846   3.075   8.431
 3377TIP3    H131766   4.889   3.148   8.387
 3377TIP3    H231767   4.767   3.113   8.470
 3378TIP3   OH231768   5.585   2.564   8.411
 3378TIP3    H131769   5.538   2.551   8.329
 3378TIP3    H231770   5.610   2.657   8.411
 3379TIP3   OH231771   3.991   2.775   8.262
 3379TIP3    H131772   4.036   2.849   8.303
 3379TIP3    H231773   3.903   2.777   8.300
 3380TIP3   OH231774   5.164   3.155   8.403
 3380TIP3    H131775   5.145   3.168   8.496
 3380TIP3    H231776   5.104   3.215   8.358
 3381TIP3   OH231777   5.609   3.632   8.345
 3381TIP3    H131778   5.681   3.695   8.350
 3381TIP3    H231779   5.533   3.680   8.379
 3382TIP3   OH231780   4.539   3.305   8.152
 3382TIP3    H131781   4.566   3.223   8.112
 3382TIP3    H231782   4.491   3.279   8.231
 3383TIP3   OH231783   4.381   3.294   8.389
 3383TIP3    H131784   4.403   3.236   8.462
 3383TIP3    H231785   4.407   3.381   8.419
 3384TIP3   OH231786   4.052   2.978   8.441
 3384TIP3    H131787   4.026   2.921   8.513
 3384TIP3    H231788   4.138   3.012   8.466
 3385TIP3   OH231789   4.674   3.339   8.438
 3385TIP3    H131790   4.614   3.411   8.418
 3385TIP3    H231791   4.741   3.345   8.370
 3386TIP3   OH231792   4.474   3.546   8.453
 3386TIP3    H131793   4.476   3.623   8.396
 3386TIP3    H231794   4.486   3.581   8.541
 3387TIP3   OH231795   4.317   2.155   8.380
 3387TIP3    H131796   4.352   2.219   8.443
 3387TIP3    H231797   4.372   2.078   8.392
 3388TIP3   OH231798   4.150   3.243   8.249
 3388TIP3    H131799   4.220   3.279   8.303
 3388TIP3    H231800   4.188   3.166   8.208
 3389TIP3   OH231801   3.990   2.498   8.264
 3389TIP3    H131802   4.008   2.591   8.269
 3389TIP3    H231803   3.951   2.485   8.178
 3390TIP3   OH231804   4.733   3.500   8.127
 3390TIP3    H131805   4.661   3.437   8.131
 3390TIP3    H231806   4.808   3.453   8.163
 3391TIP3   OH231807   5.258   3.463   8.152
 3391TIP3    H131808   5.272   3.463   8.247
 3391TIP3    H231809   5.344   3.485   8.116
 3392TIP3   OH231810   4.286   3.029   8.141
 3392TIP3    H131811   4.305   2.972   8.215
 3392TIP3    H231812   4.369   3.035   8.094
 3393TIP3   OH231813   4.820   3.138   8.059
 3393TIP3    H131814   4.848   3.195   8.130
 3393TIP3    H231815   4.854   3.051   8.083
 3394TIP3   OH231816   4.380   2.856   8.337
 3394TIP3    H131817   4.334   2.773   8.354
 3394TIP3    H231818   4.458   2.829   8.288
 3395TIP3   OH231819   4.558   2.693   8.195
 3395TIP3    H131820   4.555   2.717   8.103
 3395TIP3    H231821   4.651   2.679   8.214
 3396TIP3   OH231822   5.502   2.942   8.168
 3396TIP3    H131823   5.477   2.893   8.089
 3396TIP3    H231824   5.531   3.027   8.135
 3397TIP3   OH231825   4.558   3.814   8.381
 3397TIP3    H131826   4.644   3.773   8.373
 3397TIP3    H231827   4.547   3.862   8.299
 3398TIP3   OH231828   3.879   3.228   8.233
 3398TIP3    H131829   3.971   3.237   8.257
 3398TIP3    H231830   3.876   3.147   8.182
 3399TIP3   OH231831   5.656   2.841   8.377
 3399TIP3    H131832   5.610   2.874   8.300
 3399TIP3    H231833   5.728   2.903   8.391
 3400TIP3   OH231834   5.438   2.524   8.181
 3400TIP3    H131835   5.419   2.562   8.095
 3400TIP3    H231836   5.420   2.431   8.170
 3401TIP3   OH231837   5.370   2.265   8.095
 3401TIP3    H131838   5.408   2.216   8.167
 3401TIP3    H231839   5.280   2.233   8.089
 3402TIP3   OH231840   5.523   2.139   8.293
 3402TIP3    H131841   5.569   2.078   8.234
 3402TIP3    H231842   5.593   2.189   8.334
 3403TIP3   OH231843   3.893   1.954   8.349
 3403TIP3    H131844   3.951   2.008   8.294
 3403TIP3    H231845   3.937   1.950   8.434
 3404TIP3   OH231846   4.100   2.107   8.215
 3404TIP3    H131847   4.149   2.048   8.158
 3404TIP3    H231848   4.162   2.133   8.282
 3405TIP3   OH231849   4.791   3.695   8.319
 3405TIP3    H131850   4.887   3.689   8.327
 3405TIP3    H231851   4.770   3.636   8.246
 3406TIP3   OH231852   4.112   3.642   8.188
 3406TIP3    H131853   4.090   3.645   8.281
 3406TIP3    H231854   4.185   3.581   8.182
 3407TIP3   OH231855   6.726   2.683   8.234
 3407TIP3    H131856   6.783   2.711   8.305
 3407TIP3    H231857   6.780   2.624   8.181
 3408TIP3   OH231858   6.942   2.755   8.391
 3408TIP3    H131859   6.966   2.808   8.467
 3408TIP3    H231860   6.994   2.791   8.319
 3409TIP3   OH231861   7.234   2.033   8.420
 3409TIP3    H131862   7.184   1.964   8.464
 3409TIP3    H231863   7.313   1.989   8.390
 3410TIP3   OH231864   7.104   3.682   8.306
 3410TIP3    H131865   7.123   3.607   8.249
 3410TIP3    H231866   7.035   3.650   8.363
 3411TIP3   OH231867   7.103   2.880   8.206
 3411TIP3    H131868   7.070   2.851   8.121
 3411TIP3    H231869   7.147   2.963   8.187
 3412TIP3   OH231870   6.615   2.223   8.317
 3412TIP3    H131871   6.533   2.266   8.342
 3412TIP3    H231872   6.587   2.152   8.260
 3413TIP3   OH231873   6.329   2.294   8.172
 3413TIP3    H131874   6.277   2.262   8.246
 3413TIP3    H231875   6.271   2.355   8.126
 3414TIP3   OH231876   5.714   2.310   8.404
 3414TIP3    H131877   5.783   2.341   8.345
 3414TIP3    H231878   5.662   2.388   8.423
 3415TIP3   OH231879   6.213   2.577   8.314
 3415TIP3    H131880   6.163   2.535   8.243
 3415TIP3    H231881   6.300   2.592   8.277
 3416TIP3   OH231882   6.869   2.328   8.283
 3416TIP3    H131883   6.782   2.292   8.299
 3416TIP3    H231884   6.891   2.376   8.363
 3417TIP3   OH231885   6.935   2.500   8.495
 3417TIP3    H131886   7.024   2.474   8.517
 3417TIP3    H231887   6.946   2.586   8.454
 3418TIP3   OH231888   6.748   3.155   8.382
 3418TIP3    H131889   6.695   3.235   8.385
 3418TIP3    H231890   6.727   3.109   8.463
 3419TIP3   OH231891   5.895   2.740   8.271
 3419TIP3    H131892   5.939   2.816   8.309
 3419TIP3    H231893   5.807   2.742   8.308
 3420TIP3   OH231894   7.032   3.208   8.341
 3420TIP3    H131895   7.040   3.218   8.435
 3420TIP3    H231896   6.938   3.198   8.325
 3421TIP3   OH231897   6.424   3.298   8.144
 3421TIP3    H131898   6.436   3.211   8.105
 3421TIP3    H231899   6.389   3.281   8.231
 3422TIP3   OH231900   6.289   3.280   8.391
 3422TIP3    H131901   6.293   3.223   8.468
 3422TIP3    H231902   6.314   3.366   8.425
 3423TIP3   OH231903   5.920   2.981   8.412
 3423TIP3    H131904   5.966   2.970   8.496
 3423TIP3    H231905   5.960   3.058   8.373
 3424TIP3   OH231906   6.603   3.385   8.388
 3424TIP3    H131907   6.529   3.446   8.388
 3424TIP3    H231908   6.680   3.441   8.381
 3425TIP3   OH231909   6.376   3.531   8.466
 3425TIP3    H131910   6.372   3.609   8.410
 3425TIP3    H231911   6.378   3.566   8.556
 3426TIP3   OH231912   6.176   2.207   8.384
 3426TIP3    H131913   6.107   2.249   8.435
 3426TIP3    H231914   6.254   2.212   8.440
 3427TIP3   OH231915   6.041   3.202   8.291
 3427TIP3    H131916   6.111   3.253   8.332
 3427TIP3    H231917   6.085   3.151   8.223
 3428TIP3   OH231918   5.865   2.467   8.235
 3428TIP3    H131919   5.895   2.557   8.244
 3428TIP3    H231920   5.813   2.466   8.155
 3429TIP3   OH231921   6.632   3.479   8.088
 3429TIP3    H131922   6.570   3.414   8.120
 3429TIP3    H231923   6.713   3.431   8.076
 3430TIP3   OH231924   7.104   3.447   8.153
 3430TIP3    H131925   7.094   3.378   8.218
 3430TIP3    H231926   7.177   3.418   8.098
 3431TIP3   OH231927   6.182   3.028   8.133
 3431TIP3    H131928   6.197   2.966   8.205
 3431TIP3    H231929   6.268   3.039   8.093
 3432TIP3   OH231930   6.777   3.159   8.110
 3432TIP3    H131931   6.759   3.155   8.204
 3432TIP3    H231932   6.767   3.068   8.080
 3433TIP3   OH231933   6.255   2.850   8.333
 3433TIP3    H131934   6.208   2.768   8.346
 3433TIP3    H231935   6.339   2.824   8.296
 3434TIP3   OH231936   6.453   2.694   8.217
 3434TIP3    H131937   6.443   2.716   8.124
 3434TIP3    H231938   6.547   2.683   8.229
 3435TIP3   OH231939   6.423   3.786   8.371
 3435TIP3    H131940   6.510   3.762   8.339
 3435TIP3    H231941   6.390   3.849   8.306
 3436TIP3   OH231942   5.773   3.224   8.246
 3436TIP3    H131943   5.865   3.229   8.270
 3436TIP3    H231944   5.769   3.154   8.181
 3437TIP3   OH231945   7.300   2.520   8.211
 3437TIP3    H131946   7.248   2.565   8.145
 3437TIP3    H231947   7.276   2.427   8.200
 3438TIP3   OH231948   7.229   2.255   8.175
 3438TIP3    H131949   7.234   2.179   8.232
 3438TIP3    H231950   7.150   2.241   8.122
 3439TIP3   OH231951   5.802   1.967   8.361
 3439TIP3    H131952   5.857   2.009   8.295
 3439TIP3    H231953   5.827   2.008   8.443
 3440TIP3   OH231954   5.995   2.097   8.207
 3440TIP3    H131955   6.046   2.039   8.150
 3440TIP3    H231956   6.059   2.128   8.271
 3441TIP3   OH231957   6.662   3.678   8.288
 3441TIP3    H131958   6.742   3.652   8.334
 3441TIP3    H231959   6.660   3.622   8.210
 3442TIP3   OH231960   5.992   3.620   8.202
 3442TIP3    H131961   5.983   3.630   8.297
 3442TIP3    H231962   6.072   3.568   8.191
 3443TIP3   OH231963   1.049   4.570   8.240
 3443TIP3    H131964   1.092   4.592   8.323
 3443TIP3    H231965   1.111   4.512   8.196
 3444TIP3   OH231966   1.287   4.620   8.412
 3444TIP3    H131967   1.321   4.683   8.476
 3444TIP3    H231968   1.331   4.644   8.330
 3445TIP3   OH231969   1.638   3.793   8.396
 3445TIP3    H131970   1.560   3.809   8.449
 3445TIP3    H231971   1.669   3.880   8.372
 3446TIP3   OH231972   1.773   5.258   8.244
 3446TIP3    H131973   1.791   5.350   8.264
 3446TIP3    H231974   1.849   5.211   8.279
 3447TIP3   OH231975   1.316   5.523   8.313
 3447TIP3    H131976   1.364   5.452   8.270
 3447TIP3    H231977   1.347   5.521   8.404
 3448TIP3   OH231978   1.429   4.702   8.196
 3448TIP3    H131979   1.401   4.723   8.107
 3448TIP3    H231980   1.518   4.736   8.201
 3449TIP3   OH231981   0.953   4.137   8.281
 3449TIP3    H131982   0.954   4.120   8.375
 3449TIP3    H231983   0.907   4.062   8.243
 3450TIP3   OH231984   0.598   4.178   8.120
 3450TIP3    H131985   0.581   4.174   8.214
 3450TIP3    H231986   0.513   4.164   8.079
 3451TIP3   OH231987   0.086   4.162   8.337
 3451TIP3    H131988   0.181   4.171   8.332
 3451TIP3    H231989   0.061   4.214   8.414
 3452TIP3   OH231990   0.545   4.426   8.322
 3452TIP3    H131991   0.450   4.425   8.322
 3452TIP3    H231992   0.568   4.518   8.309
 3453TIP3   OH231993   1.214   4.227   8.278
 3453TIP3    H131994   1.125   4.193   8.288
 3453TIP3    H231995   1.240   4.254   8.365
 3454TIP3   OH231996   1.289   4.362   0.012
 3454TIP3    H131997   1.380   4.344   0.036
 3454TIP3    H231998   1.291   4.451  -0.023
 3455TIP3   OH231999   1.061   5.048   8.416
 3455TIP3    H132000   1.018   5.133   8.409
 3455TIP3    H232001   1.037   5.015   8.503
 3456TIP3   OH232002   1.817   4.418   8.414
 3456TIP3    H132003   1.763   4.399   8.338
 3456TIP3    H232004   1.882   4.482   8.383
 3457TIP3   OH232005   0.173   4.680   8.255
 3457TIP3    H132006   0.219   4.749   8.302
 3457TIP3    H232007   0.083   4.684   8.289
 3458TIP3   OH232008   1.398   5.056   8.333
 3458TIP3    H132009   1.359   5.105   8.406
 3458TIP3    H232010   1.326   5.042   8.272
 3459TIP3   OH232011   1.841   5.515   8.312
 3459TIP3    H132012   1.913   5.578   8.322
 3459TIP3    H232013   1.765   5.561   8.347
 3460TIP3   OH232014   0.792   5.178   8.141
 3460TIP3    H132015   0.787   5.093   8.097
 3460TIP3    H232016   0.750   5.164   8.226
 3461TIP3   OH232017   0.660   5.157   8.383
 3461TIP3    H132018   0.644   5.099   8.457
 3461TIP3    H232019   0.669   5.244   8.422
 3462TIP3   OH232020   0.289   4.872   8.407
 3462TIP3    H132021   0.315   4.864   8.498
 3462TIP3    H232022   0.327   4.955   8.378
 3463TIP3   OH232023   0.948   5.295   8.397
 3463TIP3    H132024   0.864   5.330   8.427
 3463TIP3    H232025   0.963   5.336   8.312
 3464TIP3   OH232026   0.706   5.414   8.467
 3464TIP3    H132027   0.718   5.496   8.419
 3464TIP3    H232028   0.667   5.440   8.550
 3465TIP3   OH232029   0.532   4.114   8.384
 3465TIP3    H132030   0.464   4.149   8.441
 3465TIP3    H232031   0.613   4.128   8.432
 3466TIP3   OH232032   0.400   5.102   8.297
 3466TIP3    H132033   0.471   5.157   8.330
 3466TIP3    H232034   0.442   5.045   8.233
 3467TIP3   OH232035   0.257   4.422   8.238
 3467TIP3    H132036   0.243   4.515   8.258
 3467TIP3    H232037   0.170   4.387   8.222
 3468TIP3   OH232038   0.994   5.362   8.125
 3468TIP3    H132039   0.927   5.294   8.122
 3468TIP3    H232040   1.073   5.319   8.091
 3469TIP3   OH232041   1.458   5.332   8.167
 3469TIP3    H132042   1.518   5.296   8.232
 3469TIP3    H232043   1.513   5.350   8.091
 3470TIP3   OH232044   0.537   4.909   8.154
 3470TIP3    H132045   0.559   4.853   8.228
 3470TIP3    H232046   0.619   4.918   8.105
 3471TIP3   OH232047   1.174   5.021   8.168
 3471TIP3    H132048   1.122   5.024   8.249
 3471TIP3    H232049   1.146   4.940   8.125
 3472TIP3   OH232050   0.654   4.725   8.358
 3472TIP3    H132051   0.698   4.688   8.434
 3472TIP3    H232052   0.699   4.687   8.283
 3473TIP3   OH232053   0.777   4.563   8.165
 3473TIP3    H132054   0.793   4.615   8.086
 3473TIP3    H232055   0.863   4.554   8.206
 3474TIP3   OH232056   1.703   4.794   8.150
 3474TIP3    H132057   1.683   4.771   8.059
 3474TIP3    H232058   1.671   4.883   8.159
 3475TIP3   OH232059   0.794   5.663   8.375
 3475TIP3    H132060   0.885   5.635   8.363
 3475TIP3    H232061   0.778   5.722   8.301
 3476TIP3   OH232062   0.134   5.125   8.243
 3476TIP3    H132063   0.220   5.143   8.280
 3476TIP3    H232064   0.146   5.048   8.188
 3477TIP3   OH232065   1.855   4.715   8.365
 3477TIP3    H132066   1.803   4.735   8.287
 3477TIP3    H232067   1.792   4.678   8.427
 3478TIP3   OH232068   1.673   4.392   8.184
 3478TIP3    H132069   1.640   4.439   8.107
 3478TIP3    H232070   1.654   4.300   8.166
 3479TIP3   OH232071   1.604   4.137   8.096
 3479TIP3    H132072   1.641   4.091   8.172
 3479TIP3    H232073   1.512   4.108   8.093
 3480TIP3   OH232074   1.762   4.020   8.291
 3480TIP3    H132075   1.803   3.957   8.232
 3480TIP3    H232076   1.836   4.061   8.337
 3481TIP3   OH232077   0.230   3.802   8.416
 3481TIP3    H132078   0.250   3.873   8.355
 3481TIP3    H232079   0.141   3.821   8.446
 3482TIP3   OH232080   0.350   3.984   8.225
 3482TIP3    H132081   0.394   3.923   8.166
 3482TIP3    H232082   0.420   4.016   8.283
 3483TIP3   OH232083   1.042   5.570   8.305
 3483TIP3    H132084   1.137   5.569   8.315
 3483TIP3    H232085   1.026   5.515   8.228
 3484TIP3   OH232086   0.335   5.542   8.195
 3484TIP3    H132087   0.303   5.568   8.281
 3484TIP3    H232088   0.405   5.480   8.213
 3485TIP3   OH232089   2.941   4.574   8.234
 3485TIP3    H132090   2.992   4.602   8.310
 3485TIP3    H232091   2.999   4.511   8.189
 3486TIP3   OH232092   3.148   4.647   8.406
 3486TIP3    H132093   3.185   4.701   8.476
 3486TIP3    H232094   3.199   4.671   8.329
 3487TIP3   OH232095   3.513   3.803   8.406
 3487TIP3    H132096   3.454   3.832   8.476
 3487TIP3    H232097   3.552   3.884   8.373
 3488TIP3   OH232098   3.656   5.278   8.230
 3488TIP3    H132099   3.671   5.370   8.248
 3488TIP3    H232100   3.742   5.242   8.210
 3489TIP3   OH232101   3.200   5.525   8.317
 3489TIP3    H132102   3.244   5.456   8.268
 3489TIP3    H232103   3.234   5.517   8.406
 3490TIP3   OH232104   3.304   4.719   8.198
 3490TIP3    H132105   3.284   4.726   8.105
 3490TIP3    H232106   3.397   4.741   8.204
 3491TIP3   OH232107   2.858   4.113   8.304
 3491TIP3    H132108   2.786   4.143   8.360
 3491TIP3    H232109   2.820   4.045   8.249
 3492TIP3   OH232110   2.548   4.172   8.161
 3492TIP3    H132111   2.501   4.146   8.240
 3492TIP3    H232112   2.491   4.238   8.120
 3493TIP3   OH232113   1.971   4.170   8.402
 3493TIP3    H132114   2.028   4.218   8.343
 3493TIP3    H232115   1.909   4.235   8.435
 3494TIP3   OH232116   2.443   4.438   8.306
 3494TIP3    H132117   2.393   4.411   8.229
 3494TIP3    H232118   2.523   4.477   8.271
 3495TIP3   OH232119   3.112   4.224   8.288
 3495TIP3    H132120   3.026   4.186   8.305
 3495TIP3    H232121   3.139   4.261   8.372
 3496TIP3   OH232122   3.184   4.393   0.007
 3496TIP3    H132123   3.275   4.389   0.037
 3496TIP3    H232124   3.176   4.480  -0.032
 3497TIP3   OH232125   2.951   5.042   8.416
 3497TIP3    H132126   2.903   5.124   8.415
 3497TIP3    H232127   2.945   5.012   8.507
 3498TIP3   OH232128   3.686   4.416   8.417
 3498TIP3    H132129   3.638   4.403   8.335
 3498TIP3    H232130   3.727   4.502   8.409
 3499TIP3   OH232131   2.110   4.637   8.297
 3499TIP3    H132132   2.167   4.698   8.343
 3499TIP3    H232133   2.021   4.662   8.323
 3500TIP3   OH232134   3.273   5.097   8.318
 3500TIP3    H132135   3.244   5.090   8.409
 3500TIP3    H232136   3.198   5.068   8.267
 3501TIP3   OH232137   3.760   5.506   8.352
 3501TIP3    H132138   3.825   5.575   8.342
 3501TIP3    H232139   3.680   5.552   8.378
 3502TIP3   OH232140   2.659   5.178   8.146
 3502TIP3    H132141   2.664   5.091   8.105
 3502TIP3    H232142   2.615   5.162   8.229
 3503TIP3   OH232143   2.507   5.174   8.394
 3503TIP3    H132144   2.519   5.123   8.474
 3503TIP3    H232145   2.528   5.264   8.419
 3504TIP3   OH232146   2.185   4.878   8.425
 3504TIP3    H132147   2.260   4.869   8.485
 3504TIP3    H232148   2.209   4.951   8.369
 3505TIP3   OH232149   2.824   5.283   8.399
 3505TIP3    H132150   2.743   5.326   8.427
 3505TIP3    H232151   2.843   5.321   8.313
 3506TIP3   OH232152   2.593   5.424   8.464
 3506TIP3    H132153   2.604   5.503   8.412
 3506TIP3    H232154   2.596   5.455   8.555
 3507TIP3   OH232155   2.402   4.101   8.382
 3507TIP3    H132156   2.344   4.169   8.416
 3507TIP3    H232157   2.476   4.101   8.443
 3508TIP3   OH232158   2.263   5.096   8.275
 3508TIP3    H132159   2.326   5.152   8.322
 3508TIP3    H232160   2.317   5.042   8.218
 3509TIP3   OH232161   2.083   4.365   8.245
 3509TIP3    H132162   2.114   4.455   8.256
 3509TIP3    H232163   2.041   4.364   8.159
 3510TIP3   OH232164   2.870   5.355   8.130
 3510TIP3    H132165   2.802   5.287   8.124
 3510TIP3    H232166   2.948   5.314   8.091
 3511TIP3   OH232167   3.321   5.335   8.160
 3511TIP3    H132168   3.340   5.260   8.217
 3511TIP3    H232169   3.396   5.340   8.101
 3512TIP3   OH232170   2.426   4.911   8.154
 3512TIP3    H132171   2.451   4.856   8.229
 3512TIP3    H232172   2.506   4.920   8.103
 3513TIP3   OH232173   3.049   5.027   8.161
 3513TIP3    H132174   3.002   5.023   8.244
 3513TIP3    H232175   3.029   4.944   8.118
 3514TIP3   OH232176   2.535   4.749   8.357
 3514TIP3    H132177   2.562   4.703   8.436
 3514TIP3    H232178   2.576   4.701   8.285
 3515TIP3   OH232179   2.668   4.571   8.197
 3515TIP3    H132180   2.663   4.594   8.104
 3515TIP3    H232181   2.761   4.566   8.215
 3516TIP3   OH232182   3.572   4.796   8.188
 3516TIP3    H132183   3.576   4.766   8.097
 3516TIP3    H232184   3.559   4.890   8.182
 3517TIP3   OH232185   2.675   5.662   8.358
 3517TIP3    H132186   2.766   5.632   8.354
 3517TIP3    H232187   2.667   5.725   8.286
 3518TIP3   OH232188   1.988   5.065   8.301
 3518TIP3    H132189   2.078   5.096   8.290
 3518TIP3    H232190   1.969   5.017   8.220
 3519TIP3   OH232191   3.752   4.674   8.357
 3519TIP3    H132192   3.695   4.704   8.286
 3519TIP3    H232193   3.728   4.730   8.432
 3520TIP3   OH232194   3.553   4.395   8.179
 3520TIP3    H132195   3.513   4.441   8.105
 3520TIP3    H232196   3.536   4.303   8.163
 3521TIP3   OH232197   3.486   4.139   8.102
 3521TIP3    H132198   3.521   4.091   8.177
 3521TIP3    H232199   3.395   4.110   8.096
 3522TIP3   OH232200   3.646   4.018   8.297
 3522TIP3    H132201   3.691   3.953   8.242
 3522TIP3    H232202   3.717   4.069   8.337
 3523TIP3   OH232203   2.028   3.852   8.357
 3523TIP3    H132204   2.091   3.890   8.296
 3523TIP3    H232205   2.019   3.918   8.427
 3524TIP3   OH232206   2.226   3.983   8.207
 3524TIP3    H132207   2.279   3.925   8.152
 3524TIP3    H232208   2.287   4.014   8.275
 3525TIP3   OH232209   2.924   5.562   8.310
 3525TIP3    H132210   3.019   5.566   8.321
 3525TIP3    H232211   2.912   5.504   8.234
 3526TIP3   OH232212   2.178   5.460   8.199
 3526TIP3    H132213   2.164   5.490   8.288
 3526TIP3    H232214   2.273   5.451   8.192
 3527TIP3   OH232215   4.830   4.568   8.228
 3527TIP3    H132216   4.881   4.593   8.305
 3527TIP3    H232217   4.886   4.505   8.182
 3528TIP3   OH232218   5.042   4.625   8.400
 3528TIP3    H132219   5.072   4.687   8.467
 3528TIP3    H232220   5.092   4.648   8.322
 3529TIP3   OH232221   5.408   3.805   8.424
 3529TIP3    H132222   5.316   3.803   8.398
 3529TIP3    H232223   5.442   3.885   8.384
 3530TIP3   OH232224   5.528   5.267   8.240
 3530TIP3    H132225   5.550   5.358   8.261
 3530TIP3    H232226   5.613   5.223   8.234
 3531TIP3   OH232227   5.086   5.516   8.319
 3531TIP3    H132228   5.142   5.450   8.278
 3531TIP3    H232229   5.122   5.526   8.407
 3532TIP3   OH232230   5.196   4.709   8.193
 3532TIP3    H132231   5.191   4.705   8.098
 3532TIP3    H232232   5.286   4.736   8.212
 3533TIP3   OH232233   4.738   4.117   8.309
 3533TIP3    H132234   4.659   4.153   8.349
 3533TIP3    H232235   4.706   4.047   8.251
 3534TIP3   OH232236   4.435   4.177   8.164
 3534TIP3    H132237   4.387   4.144   8.239
 3534TIP3    H232238   4.377   4.241   8.124
 3535TIP3   OH232239   3.844   4.189   8.395
 3535TIP3    H132240   3.912   4.233   8.344
 3535TIP3    H232241   3.784   4.259   8.421
 3536TIP3   OH232242   4.334   4.437   8.323
 3536TIP3    H132243   4.273   4.415   8.253
 3536TIP3    H232244   4.410   4.474   8.278
 3537TIP3   OH232245   4.994   4.222   8.288
 3537TIP3    H132246   4.906   4.187   8.304
 3537TIP3    H232247   5.021   4.258   8.373
 3538TIP3   OH232248   5.083   4.380   0.019
 3538TIP3    H132249   5.175   4.384   0.046
 3538TIP3    H232250   5.070   4.460  -0.032
 3539TIP3   OH232251   4.856   5.077   8.398
 3539TIP3    H132252   4.803   5.157   8.398
 3539TIP3    H232253   4.838   5.036   8.482
 3540TIP3   OH232254   5.562   4.444   8.444
 3540TIP3    H132255   5.517   4.425   8.361
 3540TIP3    H232256   5.609   4.525   8.427
 3541TIP3   OH232257   4.013   4.665   8.286
 3541TIP3    H132258   4.049   4.740   8.334
 3541TIP3    H232259   3.921   4.662   8.314
 3542TIP3   OH232260   5.139   5.074   8.356
 3542TIP3    H132261   5.161   5.080   8.449
 3542TIP3    H232262   5.043   5.072   8.354
 3543TIP3   OH232263   5.589   5.532   8.299
 3543TIP3    H132264   5.664   5.590   8.315
 3543TIP3    H232265   5.515   5.577   8.341
 3544TIP3   OH232266   4.572   5.173   8.151
 3544TIP3    H132267   4.565   5.085   8.114
 3544TIP3    H232268   4.523   5.169   8.232
 3545TIP3   OH232269   4.417   5.176   8.390
 3545TIP3    H132270   4.414   5.117   8.465
 3545TIP3    H232271   4.425   5.263   8.429
 3546TIP3   OH232272   4.042   4.897   8.446
 3546TIP3    H132273   4.076   4.884   8.535
 3546TIP3    H232274   4.099   4.964   8.408
 3547TIP3   OH232275   4.713   5.308   8.406
 3547TIP3    H132276   4.623   5.328   8.433
 3547TIP3    H232277   4.742   5.387   8.360
 3548TIP3   OH232278   4.470   5.431   8.476
 3548TIP3    H132279   4.479   5.502   8.413
 3548TIP3    H232280   4.477   5.474   8.562
 3549TIP3   OH232281   4.295   4.081   8.380
 3549TIP3    H132282   4.274   4.163   8.425
 3549TIP3    H232283   4.368   4.044   8.429
 3550TIP3   OH232284   4.168   5.100   8.294
 3550TIP3    H132285   4.244   5.145   8.331
 3550TIP3    H232286   4.205   5.042   8.228
 3551TIP3   OH232287   3.989   4.387   8.262
 3551TIP3    H132288   4.017   4.477   8.278
 3551TIP3    H232289   3.937   4.393   8.181
 3552TIP3   OH232290   4.765   5.365   8.102
 3552TIP3    H132291   4.703   5.296   8.125
 3552TIP3    H232292   4.849   5.320   8.090
 3553TIP3   OH232293   5.251   5.346   8.172
 3553TIP3    H132294   5.319   5.321   8.234
 3553TIP3    H232295   5.297   5.360   8.089
 3554TIP3   OH232296   4.300   4.913   8.141
 3554TIP3    H132297   4.315   4.854   8.215
 3554TIP3    H232298   4.386   4.923   8.100
 3555TIP3   OH232299   4.890   5.011   8.134
 3555TIP3    H132300   4.864   5.045   8.220
 3555TIP3    H232301   4.896   4.916   8.147
 3556TIP3   OH232302   4.386   4.753   8.352
 3556TIP3    H132303   4.357   4.690   8.418
 3556TIP3    H232304   4.453   4.707   8.302
 3557TIP3   OH232305   4.554   4.577   8.215
 3557TIP3    H132306   4.545   4.600   8.123
 3557TIP3    H232307   4.649   4.567   8.229
 3558TIP3   OH232308   5.462   4.803   8.187
 3558TIP3    H132309   5.466   4.780   8.094
 3558TIP3    H232310   5.432   4.894   8.188
 3559TIP3   OH232311   4.549   5.641   8.323
 3559TIP3    H132312   4.642   5.621   8.334
 3559TIP3    H232313   4.547   5.711   8.257
 3560TIP3   OH232314   3.905   5.156   8.246
 3560TIP3    H132315   3.997   5.145   8.270
 3560TIP3    H232316   3.884   5.078   8.194
 3561TIP3   OH232317   5.644   4.724   8.374
 3561TIP3    H132318   5.589   4.745   8.298
 3561TIP3    H232319   5.704   4.798   8.380
 3562TIP3   OH232320   5.425   4.413   8.210
 3562TIP3    H132321   5.462   4.457   8.134
 3562TIP3    H232322   5.395   4.328   8.177
 3563TIP3   OH232323   5.356   4.165   8.110
 3563TIP3    H132324   5.401   4.109   8.173
 3563TIP3    H232325   5.273   4.121   8.094
 3564TIP3   OH232326   5.517   4.022   8.297
 3564TIP3    H132327   5.563   3.963   8.238
 3564TIP3    H232328   5.585   4.077   8.335
 3565TIP3   OH232329   3.904   3.841   8.354
 3565TIP3    H132330   3.958   3.893   8.294
 3565TIP3    H232331   3.946   3.852   8.439
 3566TIP3   OH232332   4.102   3.985   8.209
 3566TIP3    H132333   4.155   3.927   8.154
 3566TIP3    H232334   4.162   4.017   8.276
 3567TIP3   OH232335   4.809   5.546   8.306
 3567TIP3    H132336   4.903   5.555   8.319
 3567TIP3    H232337   4.800   5.509   8.218
 3568TIP3   OH232338   4.060   5.482   8.200
 3568TIP3    H132339   4.063   5.538   8.277
 3568TIP3    H232340   4.151   5.458   8.184
 3569TIP3   OH232341   6.730   4.565   8.233
 3569TIP3    H132342   6.785   4.594   8.306
 3569TIP3    H232343   6.786   4.506   8.183
 3570TIP3   OH232344   6.951   4.644   8.393
 3570TIP3    H132345   6.974   4.700   8.467
 3570TIP3    H232346   7.000   4.681   8.320
 3571TIP3   OH232347   7.278   3.867   8.438
 3571TIP3    H132348   7.215   3.796   8.425
 3571TIP3    H232349   7.286   3.908   8.352
 3572TIP3   OH232350   6.977   5.521   8.320
 3572TIP3    H132351   7.014   5.450   8.268
 3572TIP3    H232352   7.003   5.500   8.410
 3573TIP3   OH232353   7.101   4.765   8.197
 3573TIP3    H132354   7.066   4.742   8.112
 3573TIP3    H232355   7.148   4.847   8.182
 3574TIP3   OH232356   6.630   4.103   8.293
 3574TIP3    H132357   6.546   4.134   8.327
 3574TIP3    H232358   6.607   4.030   8.236
 3575TIP3   OH232359   6.331   4.160   8.125
 3575TIP3    H132360   6.258   4.180   8.184
 3575TIP3    H232361   6.300   4.187   8.038
 3576TIP3   OH232362   5.714   4.185   8.409
 3576TIP3    H132363   5.798   4.198   8.365
 3576TIP3    H232364   5.675   4.273   8.411
 3577TIP3   OH232365   6.224   4.485   8.367
 3577TIP3    H132366   6.165   4.418   8.332
 3577TIP3    H232367   6.296   4.489   8.304
 3578TIP3   OH232368   6.877   4.220   8.281
 3578TIP3    H132369   6.791   4.179   8.291
 3578TIP3    H232370   6.890   4.269   8.362
 3579TIP3   OH232371   6.926   4.390   8.493
 3579TIP3    H132372   7.011   4.361   8.526
 3579TIP3    H232373   6.942   4.477   8.457
 3580TIP3   OH232374   6.719   5.042   8.417
 3580TIP3    H132375   6.673   5.126   8.414
 3580TIP3    H232376   6.698   5.005   8.502
 3581TIP3   OH232377   5.886   4.670   8.257
 3581TIP3    H132378   5.926   4.748   8.295
 3581TIP3    H232379   5.802   4.662   8.302
 3582TIP3   OH232380   7.027   5.086   8.339
 3582TIP3    H132381   7.002   5.092   8.431
 3582TIP3    H232382   6.945   5.069   8.292
 3583TIP3   OH232383   6.433   5.182   8.144
 3583TIP3    H132384   6.436   5.097   8.099
 3583TIP3    H232385   6.385   5.164   8.225
 3584TIP3   OH232386   6.287   5.170   8.385
 3584TIP3    H132387   6.287   5.108   8.458
 3584TIP3    H232388   6.308   5.254   8.426
 3585TIP3   OH232389   5.883   4.895   8.435
 3585TIP3    H132390   5.924   4.847   8.507
 3585TIP3    H232391   5.950   4.956   8.405
 3586TIP3   OH232392   6.596   5.284   8.397
 3586TIP3    H132393   6.514   5.325   8.424
 3586TIP3    H232394   6.612   5.318   8.309
 3587TIP3   OH232395   6.364   5.421   8.471
 3587TIP3    H132396   6.373   5.497   8.414
 3587TIP3    H232397   6.368   5.456   8.559
 3588TIP3   OH232398   6.172   4.035   8.421
 3588TIP3    H132399   6.130   4.101   8.366
 3588TIP3    H232400   6.247   4.080   8.459
 3589TIP3   OH232401   6.038   5.085   8.297
 3589TIP3    H132402   6.110   5.137   8.333
 3589TIP3    H232403   6.077   5.035   8.225
 3590TIP3   OH232404   5.790   4.413   8.234
 3590TIP3    H132405   5.835   4.498   8.229
 3590TIP3    H232406   5.858   4.349   8.215
 3591TIP3   OH232407   6.644   5.357   8.131
 3591TIP3    H132408   6.574   5.291   8.122
 3591TIP3    H232409   6.720   5.317   8.089
 3592TIP3   OH232410   7.089   5.330   8.162
 3592TIP3    H132411   7.120   5.255   8.212
 3592TIP3    H232412   7.156   5.342   8.094
 3593TIP3   OH232413   6.184   4.923   8.130
 3593TIP3    H132414   6.203   4.863   8.202
 3593TIP3    H232415   6.267   4.933   8.084
 3594TIP3   OH232416   6.808   5.032   8.159
 3594TIP3    H132417   6.761   5.027   8.242
 3594TIP3    H232418   6.790   4.948   8.116
 3595TIP3   OH232419   6.268   4.756   8.334
 3595TIP3    H132420   6.225   4.674   8.360
 3595TIP3    H232421   6.350   4.727   8.294
 3596TIP3   OH232422   6.453   4.581   8.218
 3596TIP3    H132423   6.445   4.605   8.126
 3596TIP3    H232424   6.547   4.568   8.231
 3597TIP3   OH232425   6.448   5.663   8.365
 3597TIP3    H132426   6.539   5.633   8.359
 3597TIP3    H232427   6.438   5.723   8.292
 3598TIP3   OH232428   5.777   5.127   8.212
 3598TIP3    H132429   5.861   5.120   8.257
 3598TIP3    H232430   5.767   5.044   8.165
 3599TIP3   OH232431   7.312   4.424   8.207
 3599TIP3    H132432   7.268   4.477   8.140
 3599TIP3    H232433   7.292   4.334   8.183
 3600TIP3   OH232434   7.256   4.167   8.111
 3600TIP3    H132435   7.289   4.132   8.194
 3600TIP3    H232436   7.168   4.130   8.103
 3601TIP3   OH232437   5.783   3.849   8.397
 3601TIP3    H132438   5.828   3.876   8.317
 3601TIP3    H232439   5.831   3.894   8.467
 3602TIP3   OH232440   5.943   3.956   8.197
 3602TIP3    H132441   6.018   3.910   8.159
 3602TIP3    H232442   5.977   4.043   8.218
 3603TIP3   OH232443   6.698   5.564   8.311
 3603TIP3    H132444   6.793   5.567   8.322
 3603TIP3    H232445   6.684   5.505   8.237
 3604TIP3   OH232446   5.972   5.522   8.194
 3604TIP3    H132447   5.956   5.529   8.288
 3604TIP3    H232448   6.049   5.466   8.187
 3605TIP3   OH232449   1.056   6.454   8.235
 3605TIP3    H132450   1.108   6.482   8.310
 3605TIP3    H232451   1.112   6.392   8.189
 3606TIP3   OH232452   1.262   6.525   8.407
 3606TIP3    H132453   1.295   6.583   8.476
 3606TIP3    H232454   1.315   6.547   8.330
 3607TIP3   OH232455   1.638   5.677   8.411
 3607TIP3    H132456   1.566   5.700   8.469
 3607TIP3    H232457   1.672   5.761   8.380
 3608TIP3   OH232458   1.779   7.171   8.234
 3608TIP3    H132459   1.787   7.237   8.302
 3608TIP3    H232460   1.861   7.122   8.238
 3609TIP3   OH232461   1.423   6.585   8.199
 3609TIP3    H132462   1.401   6.601   8.107
 3609TIP3    H232463   1.511   6.620   8.209
 3610TIP3   OH232464   0.962   6.000   8.318
 3610TIP3    H132465   0.880   6.045   8.338
 3610TIP3    H232466   0.937   5.927   8.262
 3611TIP3   OH232467   0.671   6.058   8.186
 3611TIP3    H132468   0.618   6.034   8.262
 3611TIP3    H232469   0.618   6.122   8.138
 3612TIP3   OH232470   0.171   6.142   8.436
 3612TIP3    H132471   0.196   6.183   8.352
 3612TIP3    H232472   0.089   6.097   8.416
 3613TIP3   OH232473   0.549   6.344   8.317
 3613TIP3    H132474   0.499   6.309   8.244
 3613TIP3    H232475   0.635   6.364   8.279
 3614TIP3   OH232476   1.221   6.106   8.292
 3614TIP3    H132477   1.134   6.072   8.313
 3614TIP3    H232478   1.251   6.146   8.374
 3615TIP3   OH232479   1.305   6.274   0.008
 3615TIP3    H132480   1.396   6.274   0.038
 3615TIP3    H232481   1.293   6.361  -0.031
 3616TIP3   OH232482   1.065   6.945   8.398
 3616TIP3    H132483   1.030   7.033   8.412
 3616TIP3    H232484   1.051   6.900   8.481
 3617TIP3   OH232485   1.819   6.301   8.422
 3617TIP3    H132486   1.774   6.284   8.339
 3617TIP3    H232487   1.840   6.394   8.418
 3618TIP3   OH232488   0.179   6.566   8.250
 3618TIP3    H132489   0.228   6.633   8.298
 3618TIP3    H232490   0.091   6.570   8.287
 3619TIP3   OH232491   1.401   6.933   8.364
 3619TIP3    H132492   1.382   6.951   8.456
 3619TIP3    H232493   1.315   6.930   8.322
 3620TIP3   OH232494   0.806   7.039   8.140
 3620TIP3    H132495   0.807   6.957   8.092
 3620TIP3    H232496   0.772   7.016   8.227
 3621TIP3   OH232497   0.680   7.022   8.386
 3621TIP3    H132498   0.663   6.957   8.455
 3621TIP3    H232499   0.695   7.104   8.434
 3622TIP3   OH232500   0.289   6.761   8.407
 3622TIP3    H132501   0.307   6.747   8.500
 3622TIP3    H232502   0.337   6.841   8.386
 3623TIP3   OH232503   0.961   7.207   8.423
 3623TIP3    H132504   0.871   7.237   8.433
 3623TIP3    H232505   0.981   7.220   8.331
 3624TIP3   OH232506   0.697   7.298   8.431
 3624TIP3    H132507   0.667   7.322   8.343
 3624TIP3    H232508   0.638   7.344   8.490
 3625TIP3   OH232509   0.497   6.009   8.402
 3625TIP3    H132510   0.443   6.086   8.422
 3625TIP3    H232511   0.575   6.019   8.456
 3626TIP3   OH232512   0.417   6.988   8.302
 3626TIP3    H132513   0.496   7.026   8.339
 3626TIP3    H232514   0.448   6.930   8.233
 3627TIP3   OH232515   0.225   6.295   8.217
 3627TIP3    H132516   0.241   6.387   8.239
 3627TIP3    H232517   0.130   6.291   8.202
 3628TIP3   OH232518   1.011   7.224   8.158
 3628TIP3    H132519   0.949   7.156   8.135
 3628TIP3    H232520   1.089   7.204   8.106
 3629TIP3   OH232521   1.469   7.224   8.170
 3629TIP3    H132522   1.509   7.243   8.256
 3629TIP3    H232523   1.543   7.224   8.109
 3630TIP3   OH232524   0.539   6.806   8.140
 3630TIP3    H132525   0.553   6.742   8.210
 3630TIP3    H232526   0.622   6.807   8.092
 3631TIP3   OH232527   1.130   6.917   8.131
 3631TIP3    H132528   1.095   6.918   8.220
 3631TIP3    H232529   1.117   6.826   8.102
 3632TIP3   OH232530   0.601   6.621   8.339
 3632TIP3    H132531   0.542   6.547   8.355
 3632TIP3    H232532   0.677   6.583   8.296
 3633TIP3   OH232533   0.784   6.462   8.211
 3633TIP3    H132534   0.776   6.484   8.118
 3633TIP3    H232535   0.878   6.453   8.225
 3634TIP3   OH232536   1.683   6.680   8.183
 3634TIP3    H132537   1.683   6.657   8.090
 3634TIP3    H232538   1.670   6.775   8.184
 3635TIP3   OH232539   0.156   7.023   8.226
 3635TIP3    H132540   0.240   7.025   8.271
 3635TIP3    H232541   0.155   6.938   8.181
 3636TIP3   OH232542   1.850   6.570   8.370
 3636TIP3    H132543   1.795   6.596   8.296
 3636TIP3    H232544   1.830   6.634   8.439
 3637TIP3   OH232545   1.688   6.271   8.182
 3637TIP3    H132546   1.648   6.330   8.118
 3637TIP3    H232547   1.658   6.184   8.158
 3638TIP3   OH232548   1.595   6.021   8.107
 3638TIP3    H132549   1.621   5.978   8.189
 3638TIP3    H232550   1.502   6.001   8.098
 3639TIP3   OH232551   1.755   5.901   8.307
 3639TIP3    H132552   1.796   5.849   8.237
 3639TIP3    H232553   1.826   5.957   8.339
 3640TIP3   OH232554   0.206   5.704   8.394
 3640TIP3    H132555   0.240   5.770   8.334
 3640TIP3    H232556   0.119   5.737   8.420
 3641TIP3   OH232557   0.339   5.879   8.216
 3641TIP3    H132558   0.396   5.824   8.162
 3641TIP3    H232559   0.398   5.919   8.280
 3642TIP3   OH232560   2.940   6.452   8.235
 3642TIP3    H132561   2.992   6.481   8.309
 3642TIP3    H232562   2.998   6.391   8.188
 3643TIP3   OH232563   3.147   6.522   8.405
 3643TIP3    H132564   3.183   6.578   8.474
 3643TIP3    H232565   3.199   6.541   8.328
 3644TIP3   OH232566   3.543   5.662   8.418
 3644TIP3    H132567   3.466   5.684   8.471
 3644TIP3    H232568   3.570   5.745   8.379
 3645TIP3   OH232569   3.636   7.145   8.239
 3645TIP3    H132570   3.631   7.224   8.294
 3645TIP3    H232571   3.729   7.122   8.239
 3646TIP3   OH232572   3.307   6.583   8.199
 3646TIP3    H132573   3.291   6.598   8.106
 3646TIP3    H232574   3.395   6.616   8.214
 3647TIP3   OH232575   2.852   5.995   8.324
 3647TIP3    H132576   2.770   6.043   8.341
 3647TIP3    H232577   2.826   5.927   8.262
 3648TIP3   OH232578   2.550   6.056   8.170
 3648TIP3    H132579   2.500   6.035   8.249
 3648TIP3    H232580   2.495   6.118   8.122
 3649TIP3   OH232581   1.964   6.061   8.392
 3649TIP3    H132582   2.030   6.107   8.340
 3649TIP3    H232583   1.908   6.130   8.427
 3650TIP3   OH232584   2.438   6.322   8.308
 3650TIP3    H132585   2.392   6.299   8.228
 3650TIP3    H232586   2.524   6.351   8.278
 3651TIP3   OH232587   3.111   6.103   8.295
 3651TIP3    H132588   3.025   6.068   8.318
 3651TIP3    H232589   3.142   6.144   8.376
 3652TIP3   OH232590   3.189   6.273   0.010
 3652TIP3    H132591   3.280   6.272   0.041
 3652TIP3    H232592   3.179   6.358  -0.031
 3653TIP3   OH232593   2.961   6.960   8.386
 3653TIP3    H132594   2.917   7.045   8.389
 3653TIP3    H232595   2.956   6.928   8.476
 3654TIP3   OH232596   3.693   6.300   8.423
 3654TIP3    H132597   3.649   6.286   8.339
 3654TIP3    H232598   3.725   6.390   8.419
 3655TIP3   OH232599   2.106   6.532   8.276
 3655TIP3    H132600   2.153   6.605   8.317
 3655TIP3    H232601   2.016   6.540   8.308
 3656TIP3   OH232602   3.273   6.906   8.366
 3656TIP3    H132603   3.294   6.990   8.407
 3656TIP3    H232604   3.180   6.914   8.343
 3657TIP3   OH232605   2.690   7.036   8.143
 3657TIP3    H132606   2.688   6.950   8.101
 3657TIP3    H232607   2.653   7.022   8.230
 3658TIP3   OH232608   2.554   7.037   8.378
 3658TIP3    H132609   2.532   6.975   8.447
 3658TIP3    H232610   2.558   7.122   8.421
 3659TIP3   OH232611   2.196   6.751   8.411
 3659TIP3    H132612   2.210   6.756   8.506
 3659TIP3    H232613   2.221   6.837   8.378
 3660TIP3   OH232614   2.834   7.217   8.382
 3660TIP3    H132615   2.745   7.241   8.409
 3660TIP3    H232616   2.841   7.249   8.292
 3661TIP3   OH232617   2.578   7.302   8.462
 3661TIP3    H132618   2.550   7.381   8.416
 3661TIP3    H232619   2.539   7.309   8.549
 3662TIP3   OH232620   2.379   6.013   8.388
 3662TIP3    H132621   2.343   6.102   8.391
 3662TIP3    H232622   2.453   6.014   8.448
 3663TIP3   OH232623   2.272   6.991   8.292
 3663TIP3    H132624   2.327   7.068   8.310
 3663TIP3    H232625   2.326   6.936   8.236
 3664TIP3   OH232626   2.098   6.256   8.244
 3664TIP3    H132627   2.122   6.346   8.264
 3664TIP3    H232628   2.037   6.263   8.171
 3665TIP3   OH232629   2.865   7.207   8.021
 3665TIP3    H132630   2.817   7.142   8.072
 3665TIP3    H232631   2.957   7.187   8.037
 3666TIP3   OH232632   3.335   7.201   8.180
 3666TIP3    H132633   3.356   7.202   8.274
 3666TIP3    H232634   3.420   7.206   8.136
 3667TIP3   OH232635   2.420   6.809   8.150
 3667TIP3    H132636   2.437   6.747   8.221
 3667TIP3    H232637   2.502   6.811   8.100
 3668TIP3   OH232638   2.990   6.919   8.114
 3668TIP3    H132639   2.971   6.922   8.207
 3668TIP3    H232640   2.990   6.825   8.093
 3669TIP3   OH232641   2.492   6.619   8.342
 3669TIP3    H132642   2.428   6.550   8.361
 3669TIP3    H232643   2.562   6.574   8.294
 3670TIP3   OH232644   2.667   6.456   8.205
 3670TIP3    H132645   2.661   6.478   8.112
 3670TIP3    H232646   2.761   6.448   8.222
 3671TIP3   OH232647   3.571   6.674   8.188
 3671TIP3    H132648   3.574   6.646   8.097
 3671TIP3    H232649   3.552   6.767   8.184
 3672TIP3   OH232650   2.005   7.008   8.238
 3672TIP3    H132651   2.096   7.002   8.266
 3672TIP3    H232652   1.992   6.931   8.183
 3673TIP3   OH232653   3.743   6.567   8.373
 3673TIP3    H132654   3.686   6.594   8.300
 3673TIP3    H232655   3.728   6.633   8.440
 3674TIP3   OH232656   3.563   6.274   8.184
 3674TIP3    H132657   3.524   6.329   8.116
 3674TIP3    H232658   3.539   6.185   8.160
 3675TIP3   OH232659   3.482   6.020   8.108
 3675TIP3    H132660   3.509   5.973   8.188
 3675TIP3    H232661   3.390   5.999   8.098
 3676TIP3   OH232662   3.644   5.887   8.303
 3676TIP3    H132663   3.687   5.835   8.235
 3676TIP3    H232664   3.711   5.950   8.331
 3677TIP3   OH232665   2.034   5.721   8.352
 3677TIP3    H132666   2.096   5.763   8.292
 3677TIP3    H232667   2.008   5.790   8.412
 3678TIP3   OH232668   2.228   5.861   8.207
 3678TIP3    H132669   2.289   5.806   8.157
 3678TIP3    H232670   2.283   5.905   8.272
 3679TIP3   OH232671   4.820   6.455   8.234
 3679TIP3    H132672   4.870   6.485   8.310
 3679TIP3    H232673   4.878   6.394   8.190
 3680TIP3   OH232674   5.020   6.538   8.405
 3680TIP3    H132675   5.057   6.589   8.477
 3680TIP3    H232676   5.075   6.559   8.330
 3681TIP3   OH232677   5.394   5.703   8.407
 3681TIP3    H132678   5.333   5.741   8.469
 3681TIP3    H232679   5.443   5.778   8.371
 3682TIP3   OH232680   5.552   7.161   8.248
 3682TIP3    H132681   5.575   7.249   8.218
 3682TIP3    H232682   5.635   7.113   8.244
 3683TIP3   OH232683   5.191   6.589   8.200
 3683TIP3    H132684   5.171   6.606   8.107
 3683TIP3    H232685   5.278   6.627   8.213
 3684TIP3   OH232686   4.755   5.990   8.289
 3684TIP3    H132687   4.732   5.971   8.380
 3684TIP3    H232688   4.700   5.930   8.238
 3685TIP3   OH232689   4.424   6.054   8.162
 3685TIP3    H132690   4.388   6.043   8.250
 3685TIP3    H232691   4.369   6.122   8.122
 3686TIP3   OH232692   3.839   6.060   8.392
 3686TIP3    H132693   3.909   6.103   8.344
 3686TIP3    H232694   3.786   6.132   8.427
 3687TIP3   OH232695   4.333   6.319   8.311
 3687TIP3    H132696   4.275   6.299   8.238
 3687TIP3    H232697   4.409   6.362   8.271
 3688TIP3   OH232698   5.004   6.102   8.266
 3688TIP3    H132699   4.917   6.072   8.290
 3688TIP3    H232700   5.037   6.148   8.343
 3689TIP3   OH232701   5.104   6.276   8.451
 3689TIP3    H132702   5.166   6.280   8.524
 3689TIP3    H232703   5.070   6.365   8.444
 3690TIP3   OH232704   4.852   6.953   8.400
 3690TIP3    H132705   4.807   7.037   8.408
 3690TIP3    H232706   4.827   6.905   8.479
 3691TIP3   OH232707   5.599   6.300   8.424
 3691TIP3    H132708   5.555   6.276   8.342
 3691TIP3    H232709   5.619   6.393   8.414
 3692TIP3   OH232710   4.000   6.539   8.282
 3692TIP3    H132711   4.044   6.613   8.324
 3692TIP3    H232712   3.910   6.544   8.313
 3693TIP3   OH232713   5.166   6.962   8.331
 3693TIP3    H132714   5.172   7.005   8.417
 3693TIP3    H232715   5.073   6.940   8.322
 3694TIP3   OH232716   4.561   7.039   8.131
 3694TIP3    H132717   4.571   6.954   8.089
 3694TIP3    H232718   4.544   7.019   8.223
 3695TIP3   OH232719   4.463   7.010   8.386
 3695TIP3    H132720   4.418   6.957   8.451
 3695TIP3    H232721   4.458   7.099   8.420
 3696TIP3   OH232722   4.070   6.772   8.420
 3696TIP3    H132723   4.137   6.765   8.488
 3696TIP3    H232724   4.093   6.852   8.372
 3697TIP3   OH232725   4.727   7.206   8.409
 3697TIP3    H132726   4.635   7.228   8.420
 3697TIP3    H232727   4.746   7.228   8.318
 3698TIP3   OH232728   4.459   7.283   8.435
 3698TIP3    H132729   4.423   7.317   8.353
 3698TIP3    H232730   4.412   7.331   8.503
 3699TIP3   OH232731   4.309   5.933   8.394
 3699TIP3    H132732   4.335   6.000   8.457
 3699TIP3    H232733   4.377   5.866   8.401
 3700TIP3   OH232734   4.163   6.993   8.277
 3700TIP3    H132735   4.214   7.074   8.275
 3700TIP3    H232736   4.215   6.931   8.227
 3701TIP3   OH232737   3.977   6.262   8.254
 3701TIP3    H132738   4.010   6.350   8.271
 3701TIP3    H232739   3.925   6.271   8.173
 3702TIP3   OH232740   4.784   7.245   8.144
 3702TIP3    H132741   4.780   7.154   8.115
 3702TIP3    H232742   4.864   7.279   8.105
 3703TIP3   OH232743   5.201   7.206   8.160
 3703TIP3    H132744   5.226   7.159   8.240
 3703TIP3    H232745   5.281   7.207   8.107
 3704TIP3   OH232746   4.305   6.797   8.145
 3704TIP3    H132747   4.325   6.740   8.219
 3704TIP3    H232748   4.387   6.803   8.096
 3705TIP3   OH232749   4.872   6.926   8.126
 3705TIP3    H132750   4.857   6.925   8.221
 3705TIP3    H232751   4.871   6.834   8.101
 3706TIP3   OH232752   4.410   6.632   8.354
 3706TIP3    H132753   4.434   6.582   8.432
 3706TIP3    H232754   4.453   6.586   8.282
 3707TIP3   OH232755   4.549   6.455   8.197
 3707TIP3    H132756   4.545   6.480   8.105
 3707TIP3    H232757   4.642   6.450   8.217
 3708TIP3   OH232758   5.453   6.691   8.200
 3708TIP3    H132759   5.459   6.657   8.111
 3708TIP3    H232760   5.439   6.785   8.190
 3709TIP3   OH232761   3.892   7.019   8.222
 3709TIP3    H132762   3.982   7.014   8.254
 3709TIP3    H232763   3.882   6.939   8.170
 3710TIP3   OH232764   5.644   6.555   8.347
 3710TIP3    H132765   5.579   6.612   8.306
 3710TIP3    H232766   5.668   6.600   8.428
 3711TIP3   OH232767   5.484   6.263   8.180
 3711TIP3    H132768   5.439   6.329   8.127
 3711TIP3    H232769   5.438   6.182   8.160
 3712TIP3   OH232770   5.353   6.026   8.128
 3712TIP3    H132771   5.374   5.986   8.212
 3712TIP3    H232772   5.261   6.005   8.113
 3713TIP3   OH232773   5.552   5.893   8.290
 3713TIP3    H132774   5.608   5.836   8.238
 3713TIP3    H232775   5.612   5.956   8.329
 3714TIP3   OH232776   3.941   5.722   8.364
 3714TIP3    H132777   3.991   5.769   8.298
 3714TIP3    H232778   3.923   5.788   8.432
 3715TIP3   OH232779   4.118   5.865   8.206
 3715TIP3    H132780   4.173   5.812   8.149
 3715TIP3    H232781   4.178   5.899   8.272
 3716TIP3   OH232782   6.715   6.440   8.246
 3716TIP3    H132783   6.773   6.473   8.315
 3716TIP3    H232784   6.772   6.386   8.191
 3717TIP3   OH232785   6.933   6.527   8.400
 3717TIP3    H132786   6.957   6.580   8.476
 3717TIP3    H232787   6.988   6.560   8.330
 3718TIP3   OH232788   7.263   5.781   8.443
 3718TIP3    H132789   7.258   5.744   8.532
 3718TIP3    H232790   7.213   5.720   8.389
 3719TIP3   OH232791   7.102   6.656   8.232
 3719TIP3    H132792   7.077   6.636   8.142
 3719TIP3    H232793   7.104   6.752   8.235
 3720TIP3   OH232794   6.615   5.991   8.325
 3720TIP3    H132795   6.535   6.038   8.348
 3720TIP3    H232796   6.587   5.925   8.262
 3721TIP3   OH232797   6.305   6.048   8.148
 3721TIP3    H132798   6.271   6.049   8.238
 3721TIP3    H232799   6.252   6.113   8.102
 3722TIP3   OH232800   5.745   6.065   8.385
 3722TIP3    H132801   5.821   6.109   8.347
 3722TIP3    H232802   5.695   6.135   8.428
 3723TIP3   OH232803   6.223   6.281   8.303
 3723TIP3    H132804   6.154   6.318   8.248
 3723TIP3    H232805   6.301   6.333   8.283
 3724TIP3   OH232806   6.875   6.086   8.290
 3724TIP3    H132807   6.786   6.055   8.309
 3724TIP3    H232808   6.899   6.140   8.365
 3725TIP3   OH232809   6.946   6.268   8.489
 3725TIP3    H132810   7.036   6.253   8.518
 3725TIP3    H232811   6.948   6.356   8.451
 3726TIP3   OH232812   6.744   6.951   8.388
 3726TIP3    H132813   6.703   7.037   8.399
 3726TIP3    H232814   6.712   6.900   8.462
 3727TIP3   OH232815   5.901   6.528   8.266
 3727TIP3    H132816   5.943   6.601   8.311
 3727TIP3    H232817   5.810   6.531   8.294
 3728TIP3   OH232818   7.028   6.931   8.329
 3728TIP3    H132819   7.054   7.005   8.385
 3728TIP3    H232820   6.933   6.927   8.337
 3729TIP3   OH232821   6.462   7.047   8.129
 3729TIP3    H132822   6.466   6.963   8.084
 3729TIP3    H232823   6.422   7.027   8.214
 3730TIP3   OH232824   6.326   7.037   8.367
 3730TIP3    H132825   6.304   6.977   8.438
 3730TIP3    H232826   6.341   7.121   8.409
 3731TIP3   OH232827   5.946   6.765   8.406
 3731TIP3    H132828   5.994   6.721   8.477
 3731TIP3    H232829   5.998   6.843   8.387
 3732TIP3   OH232830   6.618   7.203   8.412
 3732TIP3    H132831   6.530   7.238   8.421
 3732TIP3    H232832   6.642   7.223   8.322
 3733TIP3   OH232833   6.357   7.303   8.432
 3733TIP3    H132834   6.329   7.351   8.354
 3733TIP3    H232835   6.303   7.340   8.502
 3734TIP3   OH232836   6.183   6.030   8.407
 3734TIP3    H132837   6.177   6.125   8.392
 3734TIP3    H232838   6.252   6.021   8.473
 3735TIP3   OH232839   6.060   6.991   8.280
 3735TIP3    H132840   6.134   7.041   8.314
 3735TIP3    H232841   6.099   6.929   8.218
 3736TIP3   OH232842   5.855   6.261   8.207
 3736TIP3    H132843   5.892   6.344   8.238
 3736TIP3    H232844   5.763   6.280   8.190
 3737TIP3   OH232845   6.676   7.222   8.147
 3737TIP3    H132846   6.608   7.159   8.125
 3737TIP3    H232847   6.751   7.197   8.093
 3738TIP3   OH232848   7.104   7.215   8.185
 3738TIP3    H132849   7.125   7.204   8.278
 3738TIP3    H232850   7.190   7.214   8.142
 3739TIP3   OH232851   6.192   6.802   8.132
 3739TIP3    H132852   6.207   6.738   8.202
 3739TIP3    H232853   6.277   6.809   8.088
 3740TIP3   OH232854   6.768   6.918   8.111
 3740TIP3    H132855   6.749   6.926   8.205
 3740TIP3    H232856   6.758   6.825   8.092
 3741TIP3   OH232857   6.252   6.624   8.335
 3741TIP3    H132858   6.206   6.581   8.407
 3741TIP3    H232859   6.319   6.561   8.308
 3742TIP3   OH232860   6.438   6.447   8.224
 3742TIP3    H132861   6.431   6.478   8.134
 3742TIP3    H232862   6.532   6.436   8.238
 3743TIP3   OH232863   5.792   7.019   8.215
 3743TIP3    H132864   5.877   7.008   8.257
 3743TIP3    H232865   5.777   6.937   8.170
 3744TIP3   OH232866   7.292   6.291   8.213
 3744TIP3    H132867   7.243   6.345   8.150
 3744TIP3    H232868   7.273   6.201   8.187
 3745TIP3   OH232869   7.234   6.031   8.137
 3745TIP3    H132870   7.244   5.965   8.205
 3745TIP3    H232871   7.148   6.013   8.099
 3746TIP3   OH232872   5.799   5.718   8.372
 3746TIP3    H132873   5.874   5.775   8.357
 3746TIP3    H232874   5.824   5.665   8.447
 3747TIP3   OH232875   6.037   5.845   8.274
 3747TIP3    H132876   6.110   5.794   8.241
 3747TIP3    H232877   6.077   5.914   8.327
 3748TIP3   OH232878   1.193   1.014   0.664
 3748TIP3    H132879   1.185   1.109   0.654
 3748TIP3    H232880   1.125   0.979   0.607
 3749TIP3   OH232881   1.066   0.941   1.047
 3749TIP3    H132882   1.085   0.900   1.132
 3749TIP3    H232883   1.022   0.872   0.997
 3750TIP3   OH232884   0.299   0.869   1.182
 3750TIP3    H132885   0.302   0.801   1.249
 3750TIP3    H232886   0.391   0.886   1.160
 3751TIP3   OH232887   1.456   1.233   0.882
 3751TIP3    H132888   1.418   1.155   0.923
 3751TIP3    H232889   1.468   1.295   0.953
 3752TIP3   OH232890   0.393   1.345   0.995
 3752TIP3    H132891   0.373   1.256   0.965
 3752TIP3    H232892   0.474   1.335   1.046
 3753TIP3   OH232893   0.098   0.691   0.574
 3753TIP3    H132894   0.041   0.763   0.599
 3753TIP3    H232895   0.060   0.614   0.616
 3754TIP3   OH232896   0.153   0.930   0.821
 3754TIP3    H132897   0.180   0.840   0.837
 3754TIP3    H232898   0.234   0.981   0.827
 3755TIP3   OH232899   1.169   1.746   0.910
 3755TIP3    H132900   1.202   1.672   0.857
 3755TIP3    H232901   1.110   1.705   0.973
 3756TIP3   OH232902   0.913   1.189   1.069
 3756TIP3    H132903   0.948   1.107   1.032
 3756TIP3    H232904   0.982   1.220   1.128
 3757TIP3   OH232905   1.801   0.340   1.172
 3757TIP3    H132906   1.817   0.394   1.250
 3757TIP3    H232907   1.828   0.395   1.099
 3758TIP3   OH232908   1.224   0.623   1.080
 3758TIP3    H132909   1.242   0.531   1.098
 3758TIP3    H232910   1.209   0.627   0.986
 3759TIP3   OH232911   0.572   0.423   0.808
 3759TIP3    H132912   0.583   0.508   0.766
 3759TIP3    H232913   0.524   0.371   0.744
 3760TIP3   OH232914   1.355   0.438   0.656
 3760TIP3    H132915   1.397   0.413   0.739
 3760TIP3    H232916   1.426   0.478   0.605
 3761TIP3   OH232917   0.228   0.671   0.894
 3761TIP3    H132918   0.290   0.623   0.949
 3761TIP3    H232919   0.244   0.638   0.805
 3762TIP3   OH232920   0.700   0.818   0.863
 3762TIP3    H132921   0.785   0.784   0.891
 3762TIP3    H232922   0.667   0.754   0.800
 3763TIP3   OH232923   1.831   0.493   1.402
 3763TIP3    H132924   1.752   0.544   1.383
 3763TIP3    H232925   1.845   0.504   1.496
 3764TIP3   OH232926   0.420   0.339   1.253
 3764TIP3    H132927   0.389   0.394   1.181
 3764TIP3    H232928   0.350   0.341   1.318
 3765TIP3   OH232929   1.171   1.271   0.564
 3765TIP3    H132930   1.149   1.272   0.471
 3765TIP3    H232931   1.123   1.346   0.600
 3766TIP3   OH232932   0.693   1.106   1.220
 3766TIP3    H132933   0.636   1.174   1.257
 3766TIP3    H232934   0.761   1.153   1.173
 3767TIP3   OH232935   1.449   0.386   0.906
 3767TIP3    H132936   1.382   0.366   0.972
 3767TIP3    H232937   1.508   0.446   0.951
 3768TIP3   OH232938   0.406   0.495   1.019
 3768TIP3    H132939   0.463   0.549   1.074
 3768TIP3    H232940   0.463   0.459   0.952
 3769TIP3   OH232941   0.525   1.304   1.324
 3769TIP3    H132942   0.535   1.399   1.319
 3769TIP3    H232943   0.440   1.291   1.366
 3770TIP3   OH232944   0.101   1.258   0.407
 3770TIP3    H132945   0.112   1.300   0.321
 3770TIP3    H232946   0.133   1.323   0.470
 3771TIP3   OH232947   1.472   1.431   1.079
 3771TIP3    H132948   1.380   1.435   1.105
 3771TIP3    H232949   1.493   1.520   1.052
 3772TIP3   OH232950   1.557   0.248   1.276
 3772TIP3    H132951   1.482   0.277   1.224
 3772TIP3    H232952   1.633   0.275   1.225
 3773TIP3   OH232953   0.806   0.113   0.979
 3773TIP3    H132954   0.804   0.021   1.007
 3773TIP3    H232955   0.725   0.150   1.015
 3774TIP3   OH232956   1.331   1.612   0.702
 3774TIP3    H132957   1.351   1.521   0.683
 3774TIP3    H232958   1.414   1.651   0.728
 3775TIP3   OH232959   1.420   1.364   0.643
 3775TIP3    H132960   1.347   1.316   0.604
 3775TIP3    H232961   1.446   1.311   0.719
 3776TIP3   OH232962   1.602   1.241   1.438
 3776TIP3    H132963   1.592   1.174   1.370
 3776TIP3    H232964   1.617   1.322   1.389
 3777TIP3   OH232965   1.052   0.930   0.437
 3777TIP3    H132966   0.985   0.995   0.413
 3777TIP3    H232967   1.117   0.936   0.367
 3778TIP3   OH232968   1.063   0.752   0.127
 3778TIP3    H132969   1.119   0.800   0.188
 3778TIP3    H232970   1.124   0.701   0.074
 3779TIP3   OH232971   1.765   0.885   1.265
 3779TIP3    H132972   1.691   0.946   1.259
 3779TIP3    H232973   1.825   0.914   1.196
 3780TIP3   OH232974   1.407   0.959   0.503
 3780TIP3    H132975   1.340   0.979   0.568
 3780TIP3    H232976   1.474   0.911   0.551
 3781TIP3   OH232977   1.369   0.755   1.429
 3781TIP3    H132978   1.379   0.811   1.506
 3781TIP3    H232979   1.297   0.793   1.380
 3782TIP3   OH232980   0.565   1.008   0.706
 3782TIP3    H132981   0.540   0.966   0.623
 3782TIP3    H232982   0.617   0.942   0.751
 3783TIP3   OH232983   0.711   1.374   0.971
 3783TIP3    H132984   0.705   1.369   0.875
 3783TIP3    H232985   0.781   1.312   0.993
 3784TIP3   OH232986   0.558   0.907   1.085
 3784TIP3    H132987   0.613   0.883   1.011
 3784TIP3    H232988   0.609   0.973   1.132
 3785TIP3   OH232989   1.221   1.462   1.181
 3785TIP3    H132990   1.212   1.493   1.272
 3785TIP3    H232991   1.184   1.374   1.182
 3786TIP3   OH232992   0.721   1.340   1.533
 3786TIP3    H132993   0.663   1.388   1.591
 3786TIP3    H232994   0.662   1.299   1.469
 3787TIP3   OH232995   1.280   0.882   0.272
 3787TIP3    H132996   1.326   0.909   0.351
 3787TIP3    H232997   1.331   0.919   0.200
 3788TIP3   OH232998   0.403   0.938   1.523
 3788TIP3    H132999   0.411   1.019   1.573
 3788TIP3    H233000   0.319   0.946   1.477
 3789TIP3   OH233001   1.065   1.516   0.630
 3789TIP3    H133002   1.137   1.576   0.651
 3789TIP3    H233003   1.022   1.555   0.554
 3790TIP3   OH233004   0.517   1.505   1.614
 3790TIP3    H133005   0.510   1.540   1.525
 3790TIP3    H233006   0.431   1.522   1.653
 3791TIP3   OH233007   1.648   0.046   0.172
 3791TIP3    H133008   1.598   0.025   0.251
 3791TIP3    H233009   1.682   0.134   0.188
 3792TIP3   OH233010   0.476   0.915   0.446
 3792TIP3    H133011   0.417   0.980   0.407
 3792TIP3    H233012   0.422   0.837   0.456
 3793TIP3   OH233013   1.763   1.485   0.136
 3793TIP3    H133014   1.786   1.577   0.126
 3793TIP3    H233015   1.845   1.438   0.124
 3794TIP3   OH233016   0.160   1.120   1.350
 3794TIP3    H133017   0.105   1.121   1.272
 3794TIP3    H233018   0.139   1.038   1.394
 3795TIP3   OH233019   0.095   1.463   0.976
 3795TIP3    H133020   0.178   1.422   1.003
 3795TIP3    H233021   0.029   1.422   1.032
 3796TIP3   OH233022   1.869   1.564   1.640
 3796TIP3    H133023   1.863   1.468   1.636
 3796TIP3    H233024   1.780   1.593   1.659
 3797TIP3   OH233025   0.941   1.484   1.481
 3797TIP3    H133026   0.944   1.560   1.539
 3797TIP3    H233027   0.861   1.438   1.506
 3798TIP3   OH233028   1.048   1.830   0.487
 3798TIP3    H133029   1.023   1.833   0.395
 3798TIP3    H233030   0.997   1.900   0.529
 3799TIP3   OH233031   0.370   1.693   0.670
 3799TIP3    H133032   0.386   1.662   0.759
 3799TIP3    H233033   0.314   1.626   0.630
 3800TIP3   OH233034   1.349   1.792   0.189
 3800TIP3    H133035   1.382   1.715   0.144
 3800TIP3    H233036   1.331   1.763   0.278
 3801TIP3   OH233037   1.308   1.761   0.462
 3801TIP3    H133038   1.214   1.776   0.471
 3801TIP3    H233039   1.328   1.695   0.528
 3802TIP3   OH233040   1.581   0.641   1.682
 3802TIP3    H133041   1.514   0.654   1.750
 3802TIP3    H233042   1.562   0.555   1.646
 3803TIP3   OH233043   0.285   1.322   1.486
 3803TIP3    H133044   0.326   1.270   1.555
 3803TIP3    H233045   0.230   1.260   1.439
 3804TIP3   OH233046   0.555   0.178   1.073
 3804TIP3    H133047   0.482   0.159   1.015
 3804TIP3    H233048   0.515   0.223   1.147
 3805TIP3   OH233049   1.027   0.125   1.462
 3805TIP3    H133050   1.043   0.075   1.542
 3805TIP3    H233051   0.934   0.114   1.445
 3806TIP3   OH233052   1.316   0.489   1.474
 3806TIP3    H133053   1.255   0.494   1.548
 3806TIP3    H233054   1.337   0.581   1.455
 3807TIP3   OH233055   1.434   0.992   0.069
 3807TIP3    H133056   1.478   0.963  -0.011
 3807TIP3    H233057   1.499   1.047   0.113
 3808TIP3   OH233058   0.953   0.332   0.152
 3808TIP3    H133059   0.922   0.303   0.237
 3808TIP3    H233060   0.876   0.368   0.109
 3809TIP3   OH233061   0.555   0.650   1.193
 3809TIP3    H133062   0.491   0.651   1.264
 3809TIP3    H233063   0.560   0.741   1.164
 3810TIP3   OH233064   0.584   0.663   0.670
 3810TIP3    H133065   0.489   0.650   0.670
 3810TIP3    H233066   0.611   0.639   0.581
 3811TIP3   OH233067   1.113   0.680   0.538
 3811TIP3    H133068   1.089   0.767   0.507
 3811TIP3    H233069   1.183   0.652   0.479
 3812TIP3   OH233070   1.020   0.730   1.739
 3812TIP3    H133071   0.969   0.651   1.757
 3812TIP3    H233072   1.110   0.698   1.728
 3813TIP3   OH233073   1.202   0.626   0.804
 3813TIP3    H133074   1.159   0.674   0.733
 3813TIP3    H233075   1.243   0.551   0.762
 3814TIP3   OH233076   0.345   0.651   1.374
 3814TIP3    H133077   0.371   0.682   1.460
 3814TIP3    H233078   0.295   0.571   1.392
 3815TIP3   OH233079   0.701   0.414   0.082
 3815TIP3    H133080   0.651   0.366   0.148
 3815TIP3    H233081   0.670   0.505   0.091
 3816TIP3   OH233082   0.061   0.445   0.713
 3816TIP3    H133083   0.088   0.432   0.804
 3816TIP3    H233084   0.043   0.356   0.681
 3817TIP3   OH233085   0.075   0.517   0.298
 3817TIP3    H133086   0.162   0.548   0.274
 3817TIP3    H233087   0.017   0.549   0.229
 3818TIP3   OH233088   1.125   0.789   1.273
 3818TIP3    H133089   1.167   0.733   1.207
 3818TIP3    H233090   1.072   0.729   1.325
 3819TIP3   OH233091   0.856   0.415   0.766
 3819TIP3    H133092   0.766   0.405   0.796
 3819TIP3    H233093   0.909   0.380   0.838
 3820TIP3   OH233094   0.331   0.576   0.649
 3820TIP3    H133095   0.253   0.608   0.604
 3820TIP3    H233096   0.335   0.483   0.626
 3821TIP3   OH233097   0.635   0.569   0.415
 3821TIP3    H133098   0.730   0.569   0.427
 3821TIP3    H233099   0.622   0.608   0.329
 3822TIP3   OH233100   1.244   0.346   1.089
 3822TIP3    H133101   1.205   0.341   1.176
 3822TIP3    H233102   1.174   0.318   1.030
 3823TIP3   OH233103   0.565   0.640   0.159
 3823TIP3    H133104   0.470   0.638   0.148
 3823TIP3    H233105   0.595   0.707   0.097
 3824TIP3   OH233106   1.589   1.983   1.694
 3824TIP3    H133107   1.637   1.977   1.611
 3824TIP3    H233108   1.652   1.955   1.760
 3825TIP3   OH233109   0.394   1.160   1.694
 3825TIP3    H133110   0.466   1.171   1.755
 3825TIP3    H233111   0.315   1.165   1.749
 3826TIP3   OH233112   0.932   0.700   0.960
 3826TIP3    H133113   0.994   0.642   0.916
 3826TIP3    H233114   0.899   0.649   1.034
 3827TIP3   OH233115   0.420   0.308   0.602
 3827TIP3    H133116   0.383   0.225   0.631
 3827TIP3    H233117   0.454   0.290   0.514
 3828TIP3   OH233118   0.820   0.567   1.180
 3828TIP3    H133119   0.732   0.603   1.193
 3828TIP3    H233120   0.867   0.588   1.261
 3829TIP3   OH233121   0.868   1.129   0.364
 3829TIP3    H133122   0.798   1.086   0.315
 3829TIP3    H233123   0.827   1.156   0.446
 3830TIP3   OH233124   1.573   1.079   1.212
 3830TIP3    H133125   1.630   1.134   1.159
 3830TIP3    H233126   1.499   1.059   1.155
 3831TIP3   OH233127   1.222   0.382   0.198
 3831TIP3    H133128   1.130   0.409   0.203
 3831TIP3    H233129   1.272   0.460   0.220
 3832TIP3   OH233130   1.003   1.191   1.482
 3832TIP3    H133131   0.983   1.134   1.556
 3832TIP3    H233132   0.950   1.270   1.497
 3833TIP3   OH233133   1.320   0.606   0.354
 3833TIP3    H133134   1.407   0.590   0.391
 3833TIP3    H233135   1.327   0.690   0.311
 3834TIP3   OH233136   0.390   1.072   0.911
 3834TIP3    H133137   0.449   1.062   0.837
 3834TIP3    H233138   0.427   1.016   0.980
 3835TIP3   OH233139   1.085   1.286   0.296
 3835TIP3    H133140   1.046   1.372   0.315
 3835TIP3    H233141   1.014   1.224   0.310
 3836TIP3   OH233142   0.123   0.881   1.490
 3836TIP3    H133143   0.150   0.830   1.566
 3836TIP3    H233144   0.064   0.823   1.442
 3837TIP3   OH233145   0.779   0.867   1.732
 3837TIP3    H133146   0.723   0.840   1.660
 3837TIP3    H233147   0.862   0.821   1.717
 3838TIP3   OH233148   1.214   1.450   1.478
 3838TIP3    H133149   1.119   1.448   1.468
 3838TIP3    H233150   1.228   1.451   1.573
 3839TIP3   OH233151   1.763   0.646   0.324
 3839TIP3    H133152   1.697   0.622   0.259
 3839TIP3    H233153   1.778   0.740   0.309
 3840TIP3   OH233154   1.818   1.288   1.602
 3840TIP3    H133155   1.731   1.275   1.566
 3840TIP3    H233156   1.878   1.253   1.536
 3841TIP3   OH233157   1.636   1.500   0.385
 3841TIP3    H133158   1.585   1.424   0.414
 3841TIP3    H233159   1.668   1.475   0.298
 3842TIP3   OH233160   1.359   1.010   1.028
 3842TIP3    H133161   1.264   1.002   1.023
 3842TIP3    H233162   1.392   0.932   0.985
 3843TIP3   OH233163   0.635   1.437   0.698
 3843TIP3    H133164   0.656   1.522   0.659
 3843TIP3    H233165   0.540   1.437   0.707
 3844TIP3   OH233166   0.181   0.888   0.165
 3844TIP3    H133167   0.230   0.957   0.211
 3844TIP3    H233168   0.094   0.891   0.205
 3845TIP3   OH233169   0.727   1.201   0.584
 3845TIP3    H133170   0.706   1.286   0.624
 3845TIP3    H233171   0.673   1.138   0.632
 3846TIP3   OH233172   0.820   1.617   1.271
 3846TIP3    H133173   0.884   1.684   1.247
 3846TIP3    H233174   0.866   1.562   1.335
 3847TIP3   OH233175   0.631   1.703   0.582
 3847TIP3    H133176   0.538   1.711   0.605
 3847TIP3    H233177   0.672   1.779   0.623
 3848TIP3   OH233178   1.133   1.209   1.243
 3848TIP3    H133179   1.091   1.202   1.328
 3848TIP3    H233180   1.195   1.136   1.240
 3849TIP3   OH233181   1.346   1.335   0.181
 3849TIP3    H133182   1.406   1.284   0.235
 3849TIP3    H233183   1.259   1.313   0.214
 3850TIP3   OH233184   1.417   1.629   1.454
 3850TIP3    H133185   1.349   1.562   1.466
 3850TIP3    H233186   1.378   1.693   1.395
 3851TIP3   OH233187   1.835   1.758   0.155
 3851TIP3    H133188   1.902   1.826   0.165
 3851TIP3    H233189   1.753   1.800   0.182
 3852TIP3   OH233190   0.216   0.378   1.437
 3852TIP3    H133191   0.121   0.383   1.432
 3852TIP3    H233192   0.234   0.305   1.496
 3853TIP3   OH233193   1.505   1.185   0.358
 3853TIP3    H133194   1.461   1.117   0.410
 3853TIP3    H233195   1.598   1.171   0.375
 3854TIP3   OH233196   0.216   1.620   1.262
 3854TIP3    H133197   0.214   1.538   1.310
 3854TIP3    H233198   0.232   1.687   1.329
 3855TIP3   OH233199   0.643   1.405   0.269
 3855TIP3    H133200   0.705   1.352   0.319
 3855TIP3    H233201   0.671   1.496   0.286
 3856TIP3   OH233202   0.304   1.092   0.313
 3856TIP3    H133203   0.233   1.131   0.364
 3856TIP3    H233204   0.347   1.166   0.271
 3857TIP3   OH233205   1.125   0.350   1.336
 3857TIP3    H133206   1.198   0.380   1.389
 3857TIP3    H233207   1.094   0.270   1.380
 3858TIP3   OH233208   1.221   0.279   0.468
 3858TIP3    H133209   1.232   0.316   0.381
 3858TIP3    H233210   1.264   0.342   0.526
 3859TIP3   OH233211   0.967   1.531   0.347
 3859TIP3    H133212   0.882   1.575   0.347
 3859TIP3    H233213   1.010   1.562   0.268
 3860TIP3   OH233214   0.890   0.519   0.514
 3860TIP3    H133215   0.966   0.576   0.519
 3860TIP3    H233216   0.874   0.490   0.604
 3861TIP3   OH233217   0.989   0.588   1.405
 3861TIP3    H133218   0.991   0.587   1.501
 3861TIP3    H233219   1.027   0.504   1.380
 3862TIP3   OH233220   0.995   0.200   0.605
 3862TIP3    H133221   0.990   0.271   0.669
 3862TIP3    H233222   1.079   0.213   0.561
 3863TIP3   OH233223   0.726   1.662   0.326
 3863TIP3    H133224   0.722   1.745   0.278
 3863TIP3    H233225   0.688   1.683   0.412
 3864TIP3   OH233226   0.572   0.313   0.320
 3864TIP3    H133227   0.560   0.403   0.350
 3864TIP3    H233228   0.659   0.289   0.354
 3865TIP3   OH233229   1.561   0.390   1.535
 3865TIP3    H133230   1.472   0.418   1.514
 3865TIP3    H233231   1.591   0.343   1.457
 3866TIP3   OH233232   1.439   0.767   0.903
 3866TIP3    H133233   1.354   0.726   0.884
 3866TIP3    H233234   1.483   0.705   0.961
 3867TIP3   OH233235   0.400   1.318   0.175
 3867TIP3    H133236   0.467   1.366   0.224
 3867TIP3    H233237   0.450   1.267   0.111
 3868TIP3   OH233238   0.288   0.636   0.139
 3868TIP3    H133239   0.252   0.724   0.135
 3868TIP3    H233240   0.244   0.588   0.069
 3869TIP3   OH233241   1.536   1.699   1.067
 3869TIP3    H133242   1.487   1.776   1.037
 3869TIP3    H233243   1.554   1.716   1.159
 3870TIP3   OH233244   0.256   0.104   0.999
 3870TIP3    H133245   0.310   0.035   0.960
 3870TIP3    H233246   0.220   0.064   1.078
 3871TIP3   OH233247   0.194   1.506   0.545
 3871TIP3    H133248   0.116   1.525   0.597
 3871TIP3    H233249   0.187   1.564   0.470
 3872TIP3   OH233250   0.140   1.785   1.724
 3872TIP3    H133251   0.210   1.720   1.717
 3872TIP3    H233252   0.059   1.733   1.721
 3873TIP3   OH233253   1.093   1.598   0.112
 3873TIP3    H133254   1.038   1.573   0.038
 3873TIP3    H233255   1.180   1.566   0.090
 3874TIP3   OH233256   1.251   1.471   1.744
 3874TIP3    H133257   1.195   1.416   1.798
 3874TIP3    H233258   1.312   1.513   1.805
 3875TIP3   OH233259   1.436   1.565   0.056
 3875TIP3    H133260   1.405   1.485   0.098
 3875TIP3    H233261   1.528   1.548   0.038
 3876TIP3   OH233262   0.134   1.145   1.815
 3876TIP3    H133263   0.148   1.087   1.889
 3876TIP3    H233264   0.062   1.105   1.766
 3877TIP3   OH233265   0.571   1.154   0.038
 3877TIP3    H133266   0.607   1.108   0.113
 3877TIP3    H233267   0.587   1.096  -0.036
 3878TIP3   OH233268   1.340   1.178   1.511
 3878TIP3    H133269   1.428   1.210   1.493
 3878TIP3    H233270   1.283   1.253   1.496
 3879TIP3   OH233271   0.212   0.818   1.769
 3879TIP3    H133272   0.294   0.852   1.734
 3879TIP3    H233273   0.197   0.869   1.849
 3880TIP3   OH233274   0.664   0.989   0.241
 3880TIP3    H133275   0.610   0.949   0.309
 3880TIP3    H233276   0.701   0.915   0.194
 3881TIP3   OH233277   0.627   0.776   1.508
 3881TIP3    H133278   0.551   0.835   1.509
 3881TIP3    H233279   0.687   0.816   1.445
 3882TIP3   OH233280   0.791   0.805   0.073
 3882TIP3    H133281   0.793   0.803  -0.023
 3882TIP3    H233282   0.881   0.785   0.099
 3883TIP3   OH233283   1.092   1.002   1.835
 3883TIP3    H133284   1.187   1.001   1.825
 3883TIP3    H233285   1.064   0.917   1.800
 3884TIP3   OH233286   1.678   1.119   0.096
 3884TIP3    H133287   1.726   1.097   0.016
 3884TIP3    H233288   1.700   1.211   0.112
 3885TIP3   OH233289   0.677   0.512   1.564
 3885TIP3    H133290   0.676   0.457   1.485
 3885TIP3    H233291   0.657   0.600   1.531
 3886TIP3   OH233292   0.683   0.352   1.334
 3886TIP3    H133293   0.730   0.395   1.262
 3886TIP3    H233294   0.592   0.350   1.305
 3887TIP3   OH233295   0.811   0.889   1.344
 3887TIP3    H133296   0.906   0.897   1.334
 3887TIP3    H233297   0.776   0.969   1.306
 3888TIP3   OH233298   1.388   0.938   1.636
 3888TIP3    H133299   1.365   1.022   1.596
 3888TIP3    H233300   1.476   0.951   1.671
 3889TIP3   OH233301   0.442   0.632   1.709
 3889TIP3    H133302   0.492   0.557   1.676
 3889TIP3    H233303   0.504   0.680   1.763
 3890TIP3   OH233304   0.748   0.090   1.412
 3890TIP3    H133305   0.726   0.181   1.390
 3890TIP3    H233306   0.668   0.041   1.390
 3891TIP3   OH233307   0.864   0.492   1.759
 3891TIP3    H133308   0.804   0.460   1.827
 3891TIP3    H233309   0.810   0.498   1.680
 3892TIP3   OH233310   1.131   0.467   1.672
 3892TIP3    H133311   1.044   0.448   1.707
 3892TIP3    H233312   1.191   0.417   1.729
 3893TIP3   OH233313   1.291   0.315   1.842
 3893TIP3    H133314   1.300   0.223   1.819
 3893TIP3    H233315   1.231   0.316   1.916
 3894TIP3   OH233316   0.314   0.373   1.800
 3894TIP3    H133317   0.295   0.306   1.734
 3894TIP3    H233318   0.345   0.324   1.876
 3895TIP3   OH233319   0.704   0.038   1.685
 3895TIP3    H133320   0.786   0.013   1.728
 3895TIP3    H233321   0.729   0.058   1.595
 3896TIP3   OH233322   0.770   1.886   0.159
 3896TIP3    H133323   0.864   1.885   0.180
 3896TIP3    H233324   0.768   1.899   0.064
 3897TIP3   OH233325   0.125   1.359   0.154
 3897TIP3    H133326   0.221   1.361   0.157
 3897TIP3    H233327   0.105   1.336   0.063
 3898TIP3   OH233328   0.037   1.892   0.610
 3898TIP3    H133329  -0.003   1.862   0.528
 3898TIP3    H233330   0.034   1.816   0.667
 3899TIP3   OH233331   0.064   1.669   0.798
 3899TIP3    H133332   0.061   1.583   0.840
 3899TIP3    H233333   0.118   1.722   0.856
 3900TIP3   OH233334   1.831   1.780   1.119
 3900TIP3    H133335   1.820   1.743   1.206
 3900TIP3    H233336   1.909   1.835   1.127
 3901TIP3   OH233337   1.804   1.671   1.380
 3901TIP3    H133338   1.745   1.600   1.354
 3901TIP3    H233339   1.848   1.639   1.458
 3902TIP3   OH233340   1.604   1.357   1.946
 3902TIP3    H133341   1.597   1.282   1.888
 3902TIP3    H233342   1.681   1.340   1.999
 3903TIP3   OH233343   1.770   1.127   0.438
 3903TIP3    H133344   1.849   1.180   0.431
 3903TIP3    H233345   1.787   1.067   0.510
 3904TIP3   OH233346   1.816   0.926   0.622
 3904TIP3    H133347   1.733   0.886   0.647
 3904TIP3    H233348   1.867   0.931   0.703
 3905TIP3   OH233349   1.808   1.214   1.131
 3905TIP3    H133350   1.857   1.139   1.099
 3905TIP3    H233351   1.845   1.289   1.085
 3906TIP3   OH233352   1.611   1.488   1.313
 3906TIP3    H133353   1.539   1.531   1.359
 3906TIP3    H233354   1.572   1.458   1.231
 3907TIP3   OH233355   1.770   0.910   0.264
 3907TIP3    H133356   1.743   0.959   0.186
 3907TIP3    H233357   1.773   0.976   0.334
 3908TIP3   OH233358   1.563   0.633   0.121
 3908TIP3    H133359   1.638   0.659   0.067
 3908TIP3    H233360   1.548   0.541   0.099
 3909TIP3   OH233361   1.572   0.793   0.661
 3909TIP3    H133362   1.568   0.702   0.631
 3909TIP3    H233363   1.529   0.791   0.747
 3910TIP3   OH233364   0.078   0.995   1.078
 3910TIP3    H133365   0.089   0.993   0.983
 3910TIP3    H233366   0.163   0.966   1.112
 3911TIP3   OH233367   1.669   0.997   1.702
 3911TIP3    H133368   1.718   0.916   1.690
 3911TIP3    H233369   1.719   1.063   1.654
 3912TIP3   OH233370   1.822   0.758   1.656
 3912TIP3    H133371   1.733   0.723   1.661
 3912TIP3    H233372   1.878   0.681   1.668
 3913TIP3   OH233373   1.522   0.376   0.052
 3913TIP3    H133374   1.612   0.343   0.060
 3913TIP3    H233375   1.467   0.302   0.076
 3914TIP3   OH233376   1.569   0.537   0.501
 3914TIP3    H133377   1.599   0.446   0.507
 3914TIP3    H233378   1.639   0.581   0.453
 3915TIP3   OH233379   1.588   0.580   1.052
 3915TIP3    H133380   1.682   0.589   1.034
 3915TIP3    H233381   1.580   0.596   1.146
 3916TIP3   OH233382   1.614   0.657   1.320
 3916TIP3    H133383   1.534   0.686   1.365
 3916TIP3    H233384   1.665   0.738   1.309
 3917TIP3   OH233385   0.053   0.502   1.702
 3917TIP3    H133386   0.041   0.451   1.622
 3917TIP3    H233387   0.005   0.454   1.769
 3918TIP3   OH233388   1.844   0.056   1.911
 3918TIP3    H133389   1.938   0.041   1.924
 3918TIP3    H233390   1.839   0.119   1.839
 3919TIP3   OH233391   1.642   0.266   0.513
 3919TIP3    H133392   1.658   0.219   0.595
 3919TIP3    H233393   1.576   0.214   0.468
 3920TIP3   OH233394   0.160   0.364   0.961
 3920TIP3    H133395   0.185   0.273   0.977
 3920TIP3    H233396   0.236   0.415   0.989
 3921TIP3   OH233397   0.029   0.717   1.089
 3921TIP3    H133398   0.100   0.697   1.029
 3921TIP3    H233399   0.029   0.813   1.095
 3922TIP3   OH233400   1.779   0.253   1.706
 3922TIP3    H133401   1.700   0.296   1.738
 3922TIP3    H233402   1.756   0.222   1.619
 3923TIP3   OH233403   1.777   0.298   0.119
 3923TIP3    H133404   1.850   0.236   0.116
 3923TIP3    H233405   1.815   0.381   0.089
 3924TIP3   OH233406   0.103   0.266   0.425
 3924TIP3    H133407   0.025   0.260   0.481
 3924TIP3    H233408   0.105   0.358   0.398
 3925TIP3   OH233409   1.581   1.745   0.723
 3925TIP3    H133410   1.619   1.733   0.636
 3925TIP3    H233411   1.537   1.830   0.719
 3926TIP3   OH233412   0.043   0.080   1.323
 3926TIP3    H133413   0.002   0.057   1.406
 3926TIP3    H233414  -0.023   0.134   1.278
 3927TIP3   OH233415   0.247   1.527   1.687
 3927TIP3    H133416   0.239   1.462   1.618
 3927TIP3    H233417   0.202   1.489   1.762
 3928TIP3   OH233418   0.555   1.579   1.339
 3928TIP3    H133419   0.523   1.666   1.317
 3928TIP3    H233420   0.649   1.584   1.325
 3929TIP3   OH233421   0.963   1.711   1.633
 3929TIP3    H133422   0.950   1.675   1.720
 3929TIP3    H233423   1.046   1.758   1.638
 3930TIP3   OH233424   1.215   1.838   1.619
 3930TIP3    H133425   1.263   1.760   1.589
 3930TIP3    H233426   1.233   1.842   1.713
 3931TIP3   OH233427   1.721   0.114   1.456
 3931TIP3    H133428   1.653   0.143   1.395
 3931TIP3    H233429   1.699   0.023   1.476
 3932TIP3   OH233430   0.264   1.887   1.380
 3932TIP3    H133431   0.182   1.928   1.352
 3932TIP3    H233432   0.280   1.923   1.467
 3933TIP3   OH233433   0.519   1.848   1.281
 3933TIP3    H133434   0.430   1.862   1.313
 3933TIP3    H233435   0.522   1.898   1.199
 3934TIP3   OH233436   0.978   1.824   1.171
 3934TIP3    H133437   0.912   1.861   1.112
 3934TIP3    H233438   0.982   1.887   1.244
 3935TIP3   OH233439   1.228   1.782   1.302
 3935TIP3    H133440   1.168   1.759   1.231
 3935TIP3    H233441   1.175   1.836   1.361
 3936TIP3   OH233442   1.484   1.874   1.281
 3936TIP3    H133443   1.493   1.963   1.248
 3936TIP3    H233444   1.390   1.856   1.279
 3937TIP3   OH233445   0.221   1.750   1.020
 3937TIP3    H133446   0.209   1.712   1.107
 3937TIP3    H233447   0.296   1.702   0.983
 3938TIP3   OH233448   0.435   1.607   0.922
 3938TIP3    H133449   0.417   1.518   0.949
 3938TIP3    H233450   0.521   1.627   0.960
 3939TIP3   OH233451   0.697   1.645   1.025
 3939TIP3    H133452   0.708   1.555   0.994
 3939TIP3    H233453   0.725   1.642   1.116
 3940TIP3   OH233454   1.031   0.267   0.924
 3940TIP3    H133455   0.962   0.208   0.955
 3940TIP3    H233456   1.095   0.210   0.883
 3941TIP3   OH233457   1.511   0.009   0.897
 3941TIP3    H133458   1.585   0.043   0.847
 3941TIP3    H233459   1.469   0.086   0.935
 3942TIP3   OH233460   1.717   0.123   0.750
 3942TIP3    H133461   1.786   0.058   0.760
 3942TIP3    H233462   1.761   0.207   0.760
 3943TIP3   OH233463   0.338   0.052   0.662
 3943TIP3    H133464   0.260   0.020   0.616
 3943TIP3    H233465   0.345  -0.005   0.739
 3944TIP3   OH233466   0.065   0.209   0.162
 3944TIP3    H133467   0.143   0.219   0.107
 3944TIP3    H233468   0.095   0.230   0.250
 3945TIP3   OH233469   0.757   0.105   0.706
 3945TIP3    H133470   0.841   0.133   0.671
 3945TIP3    H233471   0.768   0.109   0.801
 3946TIP3   OH233472   1.239   0.137   0.806
 3946TIP3    H133473   1.301   0.194   0.759
 3946TIP3    H233474   1.262   0.049   0.779
 3947TIP3   OH233475   1.448   0.105   0.408
 3947TIP3    H133476   1.358   0.128   0.429
 3947TIP3    H233477   1.452   0.010   0.418
 3948TIP3   OH233478   0.156   1.689   0.344
 3948TIP3    H133479   0.065   1.662   0.331
 3948TIP3    H233480   0.157   1.782   0.322
 3949TIP3   OH233481   0.378   0.262   0.112
 3949TIP3    H133482   0.345   0.175   0.090
 3949TIP3    H233483   0.423   0.250   0.195
 3950TIP3   OH233484   0.836   0.276   0.395
 3950TIP3    H133485   0.881   0.221   0.458
 3950TIP3    H233486   0.848   0.366   0.426
 3951TIP3   OH233487   1.042   1.849   0.210
 3951TIP3    H133488   1.122   1.895   0.183
 3951TIP3    H233489   1.052   1.761   0.173
 3952TIP3   OH233490   1.704   1.746   0.477
 3952TIP3    H133491   1.681   1.659   0.444
 3952TIP3    H233492   1.684   1.805   0.405
 3953TIP3   OH233493   0.246   0.165   1.623
 3953TIP3    H133494   0.175   0.100   1.622
 3953TIP3    H233495   0.316   0.122   1.672
 3954TIP3   OH233496   0.451   0.080   1.793
 3954TIP3    H133497   0.540   0.082   1.758
 3954TIP3    H233498   0.445  -0.004   1.838
 3955TIP3   OH233499   0.376   1.766   0.124
 3955TIP3    H133500   0.312   1.824   0.165
 3955TIP3    H233501   0.359   1.680   0.164
 3956TIP3   OH233502   1.297   0.047   1.812
 3956TIP3    H133503   1.233   0.007   1.871
 3956TIP3    H233504   1.373  -0.011   1.815
 3957TIP3   OH233505   1.610   1.673   1.650
 3957TIP3    H133506   1.548   1.639   1.585
 3957TIP3    H233507   1.601   1.768   1.645
 3958TIP3   OH233508   3.075   1.019   0.661
 3958TIP3    H133509   3.063   1.114   0.657
 3958TIP3    H233510   3.005   0.984   0.606
 3959TIP3   OH233511   2.940   0.940   1.048
 3959TIP3    H133512   2.959   0.899   1.133
 3959TIP3    H233513   2.900   0.871   0.996
 3960TIP3   OH233514   2.167   0.867   1.201
 3960TIP3    H133515   2.174   0.796   1.265
 3960TIP3    H233516   2.257   0.897   1.188
 3961TIP3   OH233517   3.336   1.249   0.884
 3961TIP3    H133518   3.304   1.171   0.930
 3961TIP3    H233519   3.357   1.311   0.953
 3962TIP3   OH233520   2.293   1.341   0.998
 3962TIP3    H133521   2.271   1.252   0.972
 3962TIP3    H233522   2.388   1.339   1.015
 3963TIP3   OH233523   1.948   0.691   0.541
 3963TIP3    H133524   1.917   0.778   0.563
 3963TIP3    H233525   1.893   0.663   0.467
 3964TIP3   OH233526   2.014   0.924   0.824
 3964TIP3    H133527   2.041   0.834   0.839
 3964TIP3    H233528   2.096   0.974   0.826
 3965TIP3   OH233529   3.070   1.720   0.920
 3965TIP3    H133530   3.103   1.665   0.849
 3965TIP3    H233531   3.051   1.658   0.991
 3966TIP3   OH233532   2.798   1.187   1.080
 3966TIP3    H133533   2.837   1.108   1.043
 3966TIP3    H233534   2.865   1.221   1.139
 3967TIP3   OH233535   3.684   0.324   1.181
 3967TIP3    H133536   3.701   0.382   1.255
 3967TIP3    H233537   3.740   0.358   1.110
 3968TIP3   OH233538   3.078   0.596   1.091
 3968TIP3    H133539   3.129   0.519   1.117
 3968TIP3    H233540   3.088   0.600   0.996
 3969TIP3   OH233541   2.405   0.426   0.794
 3969TIP3    H133542   2.399   0.518   0.768
 3969TIP3    H233543   2.323   0.387   0.764
 3970TIP3   OH233544   3.241   0.445   0.661
 3970TIP3    H133545   3.288   0.423   0.742
 3970TIP3    H233546   3.308   0.483   0.604
 3971TIP3   OH233547   2.088   0.664   0.883
 3971TIP3    H133548   2.149   0.623   0.944
 3971TIP3    H233549   2.102   0.618   0.800
 3972TIP3   OH233550   2.576   0.816   0.859
 3972TIP3    H133551   2.663   0.780   0.879
 3972TIP3    H233552   2.536   0.750   0.802
 3973TIP3   OH233553   3.714   0.465   1.425
 3973TIP3    H133554   3.660   0.539   1.398
 3973TIP3    H233555   3.746   0.490   1.512
 3974TIP3   OH233556   2.316   0.345   1.252
 3974TIP3    H133557   2.279   0.403   1.185
 3974TIP3    H233558   2.250   0.345   1.322
 3975TIP3   OH233559   3.041   1.279   0.566
 3975TIP3    H133560   3.025   1.277   0.472
 3975TIP3    H233561   2.989   1.353   0.597
 3976TIP3   OH233562   2.587   1.092   1.231
 3976TIP3    H133563   2.536   1.162   1.271
 3976TIP3    H233564   2.658   1.136   1.185
 3977TIP3   OH233565   3.345   0.401   0.908
 3977TIP3    H133566   3.293   0.369   0.982
 3977TIP3    H233567   3.409   0.460   0.949
 3978TIP3   OH233568   2.270   0.505   1.027
 3978TIP3    H133569   2.321   0.565   1.081
 3978TIP3    H233570   2.334   0.465   0.968
 3979TIP3   OH233571   2.433   1.302   1.336
 3979TIP3    H133572   2.432   1.397   1.322
 3979TIP3    H233573   2.348   1.283   1.375
 3980TIP3   OH233574   1.998   1.287   0.392
 3980TIP3    H133575   1.991   1.323   0.304
 3980TIP3    H233576   2.035   1.358   0.444
 3981TIP3   OH233577   3.364   1.450   1.082
 3981TIP3    H133578   3.270   1.453   1.096
 3981TIP3    H233579   3.388   1.540   1.060
 3982TIP3   OH233580   3.426   0.251   1.273
 3982TIP3    H133581   3.355   0.278   1.215
 3982TIP3    H233582   3.506   0.276   1.227
 3983TIP3   OH233583   2.673   0.111   0.956
 3983TIP3    H133584   2.663   0.018   0.974
 3983TIP3    H233585   2.597   0.152   0.998
 3984TIP3   OH233586   3.187   1.598   0.696
 3984TIP3    H133587   3.230   1.514   0.681
 3984TIP3    H233588   3.259   1.662   0.696
 3985TIP3   OH233589   3.301   1.356   0.633
 3985TIP3    H133590   3.218   1.314   0.608
 3985TIP3    H233591   3.326   1.314   0.715
 3986TIP3   OH233592   3.481   1.240   1.436
 3986TIP3    H133593   3.480   1.177   1.363
 3986TIP3    H233594   3.499   1.324   1.394
 3987TIP3   OH233595   2.926   0.930   0.443
 3987TIP3    H133596   2.862   0.995   0.416
 3987TIP3    H233597   2.990   0.928   0.372
 3988TIP3   OH233598   2.939   0.750   0.129
 3988TIP3    H133599   2.996   0.800   0.186
 3988TIP3    H233600   2.997   0.684   0.090
 3989TIP3   OH233601   3.662   0.889   1.265
 3989TIP3    H133602   3.587   0.948   1.264
 3989TIP3    H233603   3.719   0.921   1.195
 3990TIP3   OH233604   3.291   0.959   0.505
 3990TIP3    H133605   3.224   0.982   0.569
 3990TIP3    H233606   3.357   0.911   0.555
 3991TIP3   OH233607   2.437   1.006   0.702
 3991TIP3    H133608   2.409   0.962   0.622
 3991TIP3    H233609   2.491   0.941   0.747
 3992TIP3   OH233610   2.581   1.361   0.975
 3992TIP3    H133611   2.587   1.366   0.880
 3992TIP3    H233612   2.656   1.307   1.001
 3993TIP3   OH233613   2.439   0.918   1.080
 3993TIP3    H133614   2.494   0.891   1.006
 3993TIP3    H233615   2.494   0.977   1.131
 3994TIP3   OH233616   3.098   1.462   1.145
 3994TIP3    H133617   3.088   1.531   1.211
 3994TIP3    H233618   3.062   1.383   1.187
 3995TIP3   OH233619   2.606   1.345   1.552
 3995TIP3    H133620   2.541   1.392   1.604
 3995TIP3    H233621   2.557   1.311   1.477
 3996TIP3   OH233622   3.147   0.887   0.280
 3996TIP3    H133623   3.195   0.911   0.360
 3996TIP3    H233624   3.201   0.921   0.209
 3997TIP3   OH233625   2.230   0.983   1.517
 3997TIP3    H133626   2.226   0.952   1.607
 3997TIP3    H233627   2.149   0.952   1.477
 3998TIP3   OH233628   2.929   1.526   0.629
 3998TIP3    H133629   3.014   1.557   0.662
 3998TIP3    H233630   2.897   1.599   0.575
 3999TIP3   OH233631   2.383   1.507   1.615
 3999TIP3    H133632   2.411   1.551   1.535
 3999TIP3    H233633   2.301   1.464   1.592
 4000TIP3   OH233634   3.530   0.044   0.173
 4000TIP3    H133635   3.489   0.009   0.252
 4000TIP3    H233636   3.560   0.132   0.199
 4001TIP3   OH233637   2.342   0.909   0.444
 4001TIP3    H133638   2.304   0.993   0.418
 4001TIP3    H233639   2.283   0.844   0.408
 4002TIP3   OH233640   3.645   1.486   0.126
 4002TIP3    H133641   3.669   1.579   0.126
 4002TIP3    H233642   3.728   1.439   0.118
 4003TIP3   OH233643   1.946   1.181   1.382
 4003TIP3    H133644   1.895   1.187   1.301
 4003TIP3    H233645   1.952   1.087   1.399
 4004TIP3   OH233646   1.983   1.433   1.034
 4004TIP3    H133647   2.067   1.391   1.018
 4004TIP3    H233648   1.996   1.485   1.113
 4005TIP3   OH233649   3.753   1.524   1.651
 4005TIP3    H133650   3.743   1.429   1.645
 4005TIP3    H233651   3.666   1.556   1.673
 4006TIP3   OH233652   2.834   1.480   1.490
 4006TIP3    H133653   2.827   1.555   1.548
 4006TIP3    H233654   2.757   1.427   1.511
 4007TIP3   OH233655   2.908   1.808   0.483
 4007TIP3    H133656   2.894   1.835   0.392
 4007TIP3    H233657   2.883   1.885   0.534
 4008TIP3   OH233658   2.242   1.698   0.679
 4008TIP3    H133659   2.269   1.663   0.765
 4008TIP3    H233660   2.190   1.627   0.640
 4009TIP3   OH233661   3.202   1.748   0.146
 4009TIP3    H133662   3.271   1.687   0.121
 4009TIP3    H233663   3.204   1.748   0.242
 4010TIP3   OH233664   3.173   1.750   0.428
 4010TIP3    H133665   3.081   1.758   0.454
 4010TIP3    H233666   3.213   1.696   0.497
 4011TIP3   OH233667   3.479   0.634   1.612
 4011TIP3    H133668   3.390   0.670   1.618
 4011TIP3    H233669   3.465   0.540   1.596
 4012TIP3   OH233670   2.196   1.259   1.476
 4012TIP3    H133671   2.224   1.171   1.499
 4012TIP3    H233672   2.108   1.247   1.439
 4013TIP3   OH233673   2.429   0.195   1.052
 4013TIP3    H133674   2.346   0.158   1.021
 4013TIP3    H233675   2.407   0.237   1.134
 4014TIP3   OH233676   2.915   0.099   1.418
 4014TIP3    H133677   2.937   0.024   1.474
 4014TIP3    H233678   2.820   0.094   1.408
 4015TIP3   OH233679   3.319   0.995   0.098
 4015TIP3    H133680   3.400   0.976   0.050
 4015TIP3    H233681   3.346   1.057   0.166
 4016TIP3   OH233682   2.869   0.345   0.131
 4016TIP3    H133683   2.785   0.379   0.101
 4016TIP3    H233684   2.869   0.253   0.105
 4017TIP3   OH233685   2.427   0.661   1.180
 4017TIP3    H133686   2.385   0.665   1.266
 4017TIP3    H233687   2.433   0.752   1.151
 4018TIP3   OH233688   2.415   0.672   0.680
 4018TIP3    H133689   2.321   0.669   0.663
 4018TIP3    H233690   2.455   0.656   0.594
 4019TIP3   OH233691   3.002   0.688   0.552
 4019TIP3    H133692   2.974   0.773   0.518
 4019TIP3    H233693   3.071   0.660   0.493
 4020TIP3   OH233694   3.084   0.624   0.814
 4020TIP3    H133695   3.047   0.677   0.743
 4020TIP3    H233696   3.128   0.551   0.769
 4021TIP3   OH233697   2.217   0.650   1.378
 4021TIP3    H133698   2.256   0.672   1.462
 4021TIP3    H233699   2.174   0.566   1.392
 4022TIP3   OH233700   2.611   0.430   0.034
 4022TIP3    H133701   2.549   0.420   0.107
 4022TIP3    H233702   2.581   0.508  -0.012
 4023TIP3   OH233703   1.871   0.345   0.747
 4023TIP3    H133704   1.932   0.354   0.820
 4023TIP3    H233705   1.923   0.369   0.670
 4024TIP3   OH233706   1.987   0.472   0.302
 4024TIP3    H133707   2.055   0.508   0.245
 4024TIP3    H233708   1.916   0.537   0.297
 4025TIP3   OH233709   2.981   0.779   1.275
 4025TIP3    H133710   3.015   0.710   1.217
 4025TIP3    H233711   3.036   0.773   1.353
 4026TIP3   OH233712   2.701   0.433   0.782
 4026TIP3    H133713   2.648   0.447   0.860
 4026TIP3    H233714   2.775   0.380   0.813
 4027TIP3   OH233715   2.163   0.554   0.632
 4027TIP3    H133716   2.089   0.604   0.598
 4027TIP3    H233717   2.176   0.483   0.568
 4028TIP3   OH233718   2.525   0.561   0.455
 4028TIP3    H133719   2.619   0.575   0.460
 4028TIP3    H233720   2.498   0.599   0.372
 4029TIP3   OH233721   3.182   0.310   1.115
 4029TIP3    H133722   3.125   0.307   1.192
 4029TIP3    H233723   3.145   0.245   1.055
 4030TIP3   OH233724   2.437   0.625   0.206
 4030TIP3    H133725   2.348   0.621   0.173
 4030TIP3    H233726   2.483   0.681   0.144
 4031TIP3   OH233727   3.445   1.906   1.726
 4031TIP3    H133728   3.483   1.921   1.640
 4031TIP3    H233729   3.518   1.918   1.787
 4032TIP3   OH233730   2.815   0.697   0.948
 4032TIP3    H133731   2.897   0.657   0.918
 4032TIP3    H233732   2.793   0.648   1.027
 4033TIP3   OH233733   2.339   0.281   0.544
 4033TIP3    H133734   2.293   0.209   0.588
 4033TIP3    H233735   2.322   0.267   0.451
 4034TIP3   OH233736   2.691   0.587   1.185
 4034TIP3    H133737   2.597   0.604   1.172
 4034TIP3    H233738   2.722   0.661   1.237
 4035TIP3   OH233739   2.753   1.129   0.362
 4035TIP3    H133740   2.681   1.087   0.315
 4035TIP3    H233741   2.713   1.158   0.445
 4036TIP3   OH233742   3.464   1.077   1.211
 4036TIP3    H133743   3.525   1.131   1.160
 4036TIP3    H233744   3.390   1.062   1.152
 4037TIP3   OH233745   3.136   0.375   0.212
 4037TIP3    H133746   3.047   0.370   0.177
 4037TIP3    H233747   3.157   0.469   0.210
 4038TIP3   OH233748   2.895   1.169   1.513
 4038TIP3    H133749   2.929   1.116   1.585
 4038TIP3    H233750   2.871   1.252   1.554
 4039TIP3   OH233751   3.205   0.621   0.377
 4039TIP3    H133752   3.295   0.599   0.403
 4039TIP3    H233753   3.214   0.700   0.324
 4040TIP3   OH233754   2.268   1.071   0.913
 4040TIP3    H133755   2.323   1.061   0.835
 4040TIP3    H233756   2.310   1.017   0.980
 4041TIP3   OH233757   2.976   1.279   0.288
 4041TIP3    H133758   2.933   1.363   0.301
 4041TIP3    H233759   2.907   1.214   0.303
 4042TIP3   OH233760   1.957   0.916   1.466
 4042TIP3    H133761   1.935   0.867   1.545
 4042TIP3    H233762   1.896   0.884   1.400
 4043TIP3   OH233763   2.719   0.858   1.660
 4043TIP3    H133764   2.655   0.812   1.607
 4043TIP3    H233765   2.714   0.817   1.746
 4044TIP3   OH233766   3.111   1.444   1.494
 4044TIP3    H133767   3.017   1.451   1.480
 4044TIP3    H233768   3.122   1.445   1.589
 4045TIP3   OH233769   3.644   0.670   0.320
 4045TIP3    H133770   3.582   0.646   0.252
 4045TIP3    H233771   3.667   0.761   0.300
 4046TIP3   OH233772   3.700   1.232   1.601
 4046TIP3    H133773   3.611   1.240   1.568
 4046TIP3    H233774   3.754   1.218   1.523
 4047TIP3   OH233775   3.518   1.520   0.379
 4047TIP3    H133776   3.477   1.443   0.419
 4047TIP3    H233777   3.554   1.488   0.296
 4048TIP3   OH233778   3.250   1.018   1.025
 4048TIP3    H133779   3.154   1.011   1.027
 4048TIP3    H233780   3.279   0.938   0.981
 4049TIP3   OH233781   2.531   1.435   0.702
 4049TIP3    H133782   2.562   1.520   0.671
 4049TIP3    H233783   2.441   1.430   0.671
 4050TIP3   OH233784   2.123   0.864   0.238
 4050TIP3    H133785   2.140   0.956   0.259
 4050TIP3    H233786   2.070   0.868   0.158
 4051TIP3   OH233787   2.613   1.193   0.587
 4051TIP3    H133788   2.602   1.278   0.631
 4051TIP3    H233789   2.554   1.134   0.633
 4052TIP3   OH233790   2.714   1.613   1.274
 4052TIP3    H133791   2.772   1.686   1.252
 4052TIP3    H233792   2.765   1.559   1.334
 4053TIP3   OH233793   2.507   1.709   0.589
 4053TIP3    H133794   2.416   1.718   0.615
 4053TIP3    H233795   2.550   1.786   0.627
 4054TIP3   OH233796   3.007   1.219   1.265
 4054TIP3    H133797   2.962   1.202   1.347
 4054TIP3    H233798   3.093   1.177   1.275
 4055TIP3   OH233799   3.245   1.316   0.158
 4055TIP3    H133800   3.298   1.264   0.219
 4055TIP3    H233801   3.156   1.308   0.193
 4056TIP3   OH233802   3.306   1.646   1.469
 4056TIP3    H133803   3.231   1.588   1.455
 4056TIP3    H233804   3.297   1.712   1.400
 4057TIP3   OH233805   3.716   1.753   0.169
 4057TIP3    H133806   3.782   1.822   0.170
 4057TIP3    H233807   3.633   1.799   0.187
 4058TIP3   OH233808   2.107   0.393   1.425
 4058TIP3    H133809   2.012   0.409   1.419
 4058TIP3    H233810   2.115   0.326   1.493
 4059TIP3   OH233811   3.397   1.143   0.322
 4059TIP3    H133812   3.351   1.095   0.390
 4059TIP3    H233813   3.488   1.148   0.353
 4060TIP3   OH233814   2.092   1.593   1.253
 4060TIP3    H133815   2.139   1.523   1.298
 4060TIP3    H233816   2.095   1.667   1.313
 4061TIP3   OH233817   2.512   1.409   0.288
 4061TIP3    H133818   2.586   1.353   0.313
 4061TIP3    H233819   2.543   1.498   0.304
 4062TIP3   OH233820   2.203   1.116   0.325
 4062TIP3    H133821   2.128   1.162   0.363
 4062TIP3    H233822   2.244   1.180   0.267
 4063TIP3   OH233823   3.106   0.282   0.471
 4063TIP3    H133824   3.120   0.315   0.383
 4063TIP3    H233825   3.149   0.347   0.528
 4064TIP3   OH233826   2.828   1.505   0.322
 4064TIP3    H133827   2.753   1.560   0.345
 4064TIP3    H233828   2.874   1.554   0.253
 4065TIP3   OH233829   2.781   0.530   0.538
 4065TIP3    H133830   2.860   0.583   0.530
 4065TIP3    H233831   2.775   0.510   0.631
 4066TIP3   OH233832   2.877   0.192   0.589
 4066TIP3    H133833   2.898   0.215   0.679
 4066TIP3    H233834   2.957   0.212   0.540
 4067TIP3   OH233835   2.602   1.666   0.335
 4067TIP3    H133836   2.604   1.750   0.291
 4067TIP3    H233837   2.569   1.685   0.423
 4068TIP3   OH233838   2.457   0.338   0.266
 4068TIP3    H133839   2.437   0.430   0.284
 4068TIP3    H233840   2.537   0.321   0.315
 4069TIP3   OH233841   3.463   0.372   1.526
 4069TIP3    H133842   3.417   0.334   1.451
 4069TIP3    H233843   3.554   0.377   1.498
 4070TIP3   OH233844   3.321   0.767   0.905
 4070TIP3    H133845   3.239   0.721   0.889
 4070TIP3    H233846   3.369   0.710   0.965
 4071TIP3   OH233847   2.292   1.319   0.152
 4071TIP3    H133848   2.355   1.364   0.208
 4071TIP3    H233849   2.345   1.264   0.095
 4072TIP3   OH233850   2.168   0.614   0.145
 4072TIP3    H133851   2.151   0.698   0.188
 4072TIP3    H233852   2.142   0.628   0.054
 4073TIP3   OH233853   3.452   1.715   1.067
 4073TIP3    H133854   3.442   1.785   1.002
 4073TIP3    H233855   3.546   1.712   1.084
 4074TIP3   OH233856   2.151   0.090   1.018
 4074TIP3    H133857   2.196   0.017   0.975
 4074TIP3    H233858   2.123   0.055   1.102
 4075TIP3   OH233859   2.066   1.516   0.555
 4075TIP3    H133860   1.977   1.509   0.590
 4075TIP3    H233861   2.058   1.576   0.481
 4076TIP3   OH233862   2.015   1.799   1.742
 4076TIP3    H133863   2.080   1.773   1.808
 4076TIP3    H233864   1.979   1.717   1.711
 4077TIP3   OH233865   2.469   1.683   1.910
 4077TIP3    H133866   2.497   1.663   2.000
 4077TIP3    H233867   2.523   1.627   1.855
 4078TIP3   OH233868   2.951   1.630   0.115
 4078TIP3    H133869   2.924   1.584   0.036
 4078TIP3    H233870   3.045   1.645   0.104
 4079TIP3   OH233871   3.148   1.449   1.767
 4079TIP3    H133872   3.126   1.385   1.835
 4079TIP3    H233873   3.227   1.492   1.800
 4080TIP3   OH233874   3.368   1.546   0.064
 4080TIP3    H133875   3.327   1.468   0.100
 4080TIP3    H233876   3.462   1.530   0.071
 4081TIP3   OH233877   2.501   1.175   0.039
 4081TIP3    H133878   2.521   1.121   0.116
 4081TIP3    H233879   2.492   1.112  -0.033
 4082TIP3   OH233880   2.600   1.109   1.707
 4082TIP3    H133881   2.633   1.184   1.658
 4082TIP3    H233882   2.659   1.037   1.683
 4083TIP3   OH233883   3.217   1.179   1.479
 4083TIP3    H133884   3.311   1.197   1.475
 4083TIP3    H233885   3.176   1.265   1.483
 4084TIP3   OH233886   2.160   0.865   1.759
 4084TIP3    H133887   2.208   0.785   1.739
 4084TIP3    H233888   2.133   0.854   1.851
 4085TIP3   OH233889   2.545   0.991   0.245
 4085TIP3    H133890   2.485   0.951   0.308
 4085TIP3    H233891   2.583   0.918   0.197
 4086TIP3   OH233892   2.477   0.787   1.450
 4086TIP3    H133893   2.428   0.866   1.470
 4086TIP3    H233894   2.553   0.817   1.400
 4087TIP3   OH233895   2.660   0.790   0.097
 4087TIP3    H133896   2.640   0.757   0.009
 4087TIP3    H233897   2.754   0.776   0.107
 4088TIP3   OH233898   2.988   1.003   1.732
 4088TIP3    H133899   3.078   0.979   1.708
 4088TIP3    H233900   2.936   0.927   1.707
 4089TIP3   OH233901   3.586   1.093   8.513
 4089TIP3    H133902   3.562   1.104   8.421
 4089TIP3    H233903   3.596   1.182   8.547
 4090TIP3   OH233904   2.502   0.538   1.572
 4090TIP3    H133905   2.550   0.472   1.521
 4090TIP3    H233906   2.505   0.617   1.517
 4091TIP3   OH233907   2.575   0.369   1.347
 4091TIP3    H133908   2.621   0.428   1.287
 4091TIP3    H233909   2.485   0.368   1.314
 4092TIP3   OH233910   2.706   0.845   1.305
 4092TIP3    H133911   2.801   0.842   1.313
 4092TIP3    H233912   2.685   0.936   1.287
 4093TIP3   OH233913   3.251   0.957   1.639
 4093TIP3    H133914   3.230   1.029   1.580
 4093TIP3    H233915   3.346   0.949   1.637
 4094TIP3   OH233916   2.281   0.626   1.707
 4094TIP3    H133917   2.247   0.552   1.755
 4094TIP3    H233918   2.368   0.598   1.677
 4095TIP3   OH233919   2.639   0.108   1.410
 4095TIP3    H133920   2.620   0.201   1.395
 4095TIP3    H233921   2.586   0.084   1.485
 4096TIP3   OH233922   2.156   0.396   1.812
 4096TIP3    H133923   2.155   0.328   1.745
 4096TIP3    H233924   2.205   0.358   1.885
 4097TIP3   OH233925   2.699   0.003   1.695
 4097TIP3    H133926   2.763  -0.031   1.758
 4097TIP3    H233927   2.712   0.098   1.697
 4098TIP3   OH233928   2.652   1.874   0.154
 4098TIP3    H133929   2.742   1.891   0.182
 4098TIP3    H233930   2.650   1.902   0.062
 4099TIP3   OH233931   2.016   1.363   0.110
 4099TIP3    H133932   2.110   1.354   0.124
 4099TIP3    H233933   2.004   1.349   0.016
 4100TIP3   OH233934   1.894   1.839   0.653
 4100TIP3    H133935   1.841   1.806   0.581
 4100TIP3    H233936   1.913   1.762   0.706
 4101TIP3   OH233937   1.912   1.648   0.859
 4101TIP3    H133938   1.916   1.557   0.888
 4101TIP3    H233939   1.982   1.692   0.908
 4102TIP3   OH233940   3.718   1.728   1.139
 4102TIP3    H133941   3.717   1.726   1.235
 4102TIP3    H233942   3.799   1.774   1.117
 4103TIP3   OH233943   3.675   1.685   1.413
 4103TIP3    H133944   3.618   1.615   1.381
 4103TIP3    H233945   3.720   1.648   1.489
 4104TIP3   OH233946   3.511   1.279   1.917
 4104TIP3    H133947   3.415   1.277   1.909
 4104TIP3    H233948   3.527   1.334   1.994
 4105TIP3   OH233949   3.657   1.115   0.423
 4105TIP3    H133950   3.729   1.178   0.427
 4105TIP3    H233951   3.671   1.056   0.497
 4106TIP3   OH233952   3.709   0.919   0.615
 4106TIP3    H133953   3.626   0.885   0.648
 4106TIP3    H233954   3.763   0.932   0.693
 4107TIP3   OH233955   3.691   1.207   1.121
 4107TIP3    H133956   3.748   1.139   1.085
 4107TIP3    H233957   3.723   1.288   1.083
 4108TIP3   OH233958   3.496   1.492   1.326
 4108TIP3    H133959   3.425   1.534   1.375
 4108TIP3    H233960   3.459   1.473   1.240
 4109TIP3   OH233961   3.688   0.930   0.224
 4109TIP3    H133962   3.646   0.973   0.150
 4109TIP3    H233963   3.676   0.990   0.297
 4110TIP3   OH233964   3.476   0.630   0.102
 4110TIP3    H133965   3.548   0.648   0.043
 4110TIP3    H233966   3.452   0.539   0.085
 4111TIP3   OH233967   3.457   0.797   0.663
 4111TIP3    H133968   3.455   0.705   0.634
 4111TIP3    H233969   3.415   0.795   0.749
 4112TIP3   OH233970   1.948   0.983   1.084
 4112TIP3    H133971   1.961   0.966   0.991
 4112TIP3    H233972   2.028   0.950   1.126
 4113TIP3   OH233973   3.524   0.975   1.634
 4113TIP3    H133974   3.593   0.909   1.645
 4113TIP3    H233975   3.565   1.056   1.662
 4114TIP3   OH233976   3.720   0.778   1.662
 4114TIP3    H133977   3.645   0.718   1.660
 4114TIP3    H233978   3.767   0.754   1.741
 4115TIP3   OH233979   3.409   0.376   0.049
 4115TIP3    H133980   3.492   0.333   0.070
 4115TIP3    H233981   3.343   0.321   0.092
 4116TIP3   OH233982   3.457   0.541   0.500
 4116TIP3    H133983   3.486   0.450   0.505
 4116TIP3    H233984   3.525   0.585   0.449
 4117TIP3   OH233985   3.477   0.592   1.061
 4117TIP3    H133986   3.569   0.605   1.039
 4117TIP3    H233987   3.473   0.604   1.156
 4118TIP3   OH233988   3.530   0.656   1.331
 4118TIP3    H133989   3.487   0.671   1.416
 4118TIP3    H233990   3.573   0.739   1.311
 4119TIP3   OH233991   1.923   0.493   1.679
 4119TIP3    H133992   2.010   0.477   1.715
 4119TIP3    H233993   1.876   0.412   1.692
 4120TIP3   OH233994   3.531   0.271   0.517
 4120TIP3    H133995   3.549   0.224   0.598
 4120TIP3    H233996   3.464   0.219   0.473
 4121TIP3   OH233997   2.060   0.343   0.944
 4121TIP3    H133998   2.087   0.256   0.974
 4121TIP3    H233999   2.120   0.403   0.988
 4122TIP3   OH234000   1.863   0.616   1.050
 4122TIP3    H134001   1.930   0.632   0.984
 4122TIP3    H234002   1.888   0.672   1.124
 4123TIP3   OH234003   3.658   0.296   0.144
 4123TIP3    H134004   3.723   0.235   0.110
 4123TIP3    H234005   3.709   0.368   0.180
 4124TIP3   OH234006   1.912   0.248   0.433
 4124TIP3    H134007   1.820   0.259   0.456
 4124TIP3    H234008   1.936   0.331   0.392
 4125TIP3   OH234009   3.374   1.790   0.666
 4125TIP3    H134010   3.451   1.785   0.609
 4125TIP3    H234011   3.406   1.831   0.746
 4126TIP3   OH234012   1.937   0.110   1.279
 4126TIP3    H134013   1.876   0.104   1.352
 4126TIP3    H234014   1.904   0.181   1.225
 4127TIP3   OH234015   2.450   1.584   1.352
 4127TIP3    H134016   2.422   1.673   1.330
 4127TIP3    H234017   2.543   1.582   1.331
 4128TIP3   OH234018   2.824   1.702   1.653
 4128TIP3    H134019   2.837   1.669   1.742
 4128TIP3    H234020   2.909   1.740   1.629
 4129TIP3   OH234021   3.060   1.823   1.580
 4129TIP3    H134022   3.124   1.769   1.532
 4129TIP3    H234023   3.105   1.847   1.661
 4130TIP3   OH234024   3.580   0.067   1.427
 4130TIP3    H134025   3.520   0.127   1.382
 4130TIP3    H234026   3.562  -0.018   1.387
 4131TIP3   OH234027   2.137   1.871   1.369
 4131TIP3    H134028   2.062   1.919   1.333
 4131TIP3    H234029   2.153   1.911   1.454
 4132TIP3   OH234030   2.403   1.849   1.288
 4132TIP3    H134031   2.311   1.862   1.311
 4132TIP3    H234032   2.414   1.896   1.205
 4133TIP3   OH234033   2.859   1.834   1.189
 4133TIP3    H134034   2.813   1.873   1.115
 4133TIP3    H234035   2.872   1.906   1.250
 4134TIP3   OH234036   3.087   1.705   1.277
 4134TIP3    H134037   3.009   1.748   1.242
 4134TIP3    H234038   3.158   1.767   1.262
 4135TIP3   OH234039   3.324   1.849   1.271
 4135TIP3    H134040   3.350   1.940   1.258
 4135TIP3    H234041   3.370   1.801   1.202
 4136TIP3   OH234042   2.115   1.746   1.023
 4136TIP3    H134043   2.101   1.701   1.106
 4136TIP3    H234044   2.194   1.705   0.987
 4137TIP3   OH234045   2.326   1.607   0.925
 4137TIP3    H134046   2.314   1.515   0.949
 4137TIP3    H234047   2.414   1.628   0.957
 4138TIP3   OH234048   2.586   1.638   1.028
 4138TIP3    H134049   2.595   1.547   0.999
 4138TIP3    H234050   2.622   1.639   1.117
 4139TIP3   OH234051   2.890   0.254   0.861
 4139TIP3    H134052   2.832   0.197   0.912
 4139TIP3    H234053   2.977   0.216   0.875
 4140TIP3   OH234054   3.399   0.001   0.894
 4140TIP3    H134055   3.475   0.033   0.845
 4140TIP3    H234056   3.362   0.080   0.934
 4141TIP3   OH234057   3.607   0.124   0.752
 4141TIP3    H134058   3.675   0.057   0.760
 4141TIP3    H234059   3.654   0.207   0.764
 4142TIP3   OH234060   2.223   0.061   0.667
 4142TIP3    H134061   2.135   0.037   0.639
 4142TIP3    H234062   2.238   0.008   0.746
 4143TIP3   OH234063   1.996   0.134   0.178
 4143TIP3    H134064   2.087   0.156   0.157
 4143TIP3    H234065   1.978   0.181   0.259
 4144TIP3   OH234066   2.623   0.152   0.689
 4144TIP3    H134067   2.712   0.141   0.654
 4144TIP3    H234068   2.633   0.136   0.783
 4145TIP3   OH234069   3.142   0.147   0.855
 4145TIP3    H134070   3.192   0.198   0.792
 4145TIP3    H234071   3.145   0.058   0.823
 4146TIP3   OH234072   3.337   0.110   0.416
 4146TIP3    H134073   3.245   0.131   0.429
 4146TIP3    H234074   3.340   0.014   0.415
 4147TIP3   OH234075   2.024   1.687   0.351
 4147TIP3    H134076   1.951   1.671   0.291
 4147TIP3    H234077   2.040   1.781   0.344
 4148TIP3   OH234078   2.252   0.210   0.129
 4148TIP3    H134079   2.255   0.238   0.038
 4148TIP3    H234080   2.326   0.255   0.171
 4149TIP3   OH234081   2.684   0.295   0.419
 4149TIP3    H134082   2.745   0.230   0.454
 4149TIP3    H234083   2.736   0.375   0.411
 4150TIP3   OH234084   2.925   1.884   0.208
 4150TIP3    H134085   3.018   1.908   0.205
 4150TIP3    H234086   2.923   1.794   0.174
 4151TIP3   OH234087   3.581   1.765   0.480
 4151TIP3    H134088   3.563   1.675   0.451
 4151TIP3    H234089   3.568   1.818   0.402
 4152TIP3   OH234090   2.140   0.192   1.624
 4152TIP3    H134091   2.080   0.118   1.617
 4152TIP3    H234092   2.218   0.156   1.667
 4153TIP3   OH234093   2.347   0.096   1.773
 4153TIP3    H134094   2.410   0.151   1.821
 4153TIP3    H234095   2.369   0.007   1.800
 4154TIP3   OH234096   2.232   1.803   0.060
 4154TIP3    H134097   2.169   1.794   0.132
 4154TIP3    H234098   2.284   1.722   0.063
 4155TIP3   OH234099   3.200   0.035   1.864
 4155TIP3    H134100   3.156   0.092   1.927
 4155TIP3    H234101   3.293   0.058   1.871
 4156TIP3   OH234102   3.499   1.630   1.670
 4156TIP3    H134103   3.430   1.630   1.604
 4156TIP3    H234104   3.483   1.709   1.722
 4157TIP3   OH234105   4.965   0.995   0.653
 4157TIP3    H134106   4.952   1.090   0.658
 4157TIP3    H234107   4.904   0.967   0.585
 4158TIP3   OH234108   4.839   0.935   1.050
 4158TIP3    H134109   4.862   0.900   1.136
 4158TIP3    H234110   4.791   0.865   1.008
 4159TIP3   OH234111   4.052   0.863   1.213
 4159TIP3    H134112   4.052   0.785   1.269
 4159TIP3    H234113   4.109   0.925   1.258
 4160TIP3   OH234114   5.227   1.243   0.886
 4160TIP3    H134115   5.187   1.170   0.934
 4160TIP3    H234116   5.244   1.309   0.954
 4161TIP3   OH234117   4.190   1.340   0.984
 4161TIP3    H134118   4.159   1.250   0.971
 4161TIP3    H234119   4.282   1.330   1.006
 4162TIP3   OH234120   3.836   0.678   0.531
 4162TIP3    H134121   3.812   0.763   0.567
 4162TIP3    H234122   3.771   0.660   0.464
 4163TIP3   OH234123   3.908   0.927   0.816
 4163TIP3    H134124   3.935   0.838   0.837
 4163TIP3    H234125   3.986   0.980   0.834
 4164TIP3   OH234126   4.951   1.728   0.914
 4164TIP3    H134127   4.978   1.670   0.843
 4164TIP3    H234128   4.929   1.670   0.986
 4165TIP3   OH234129   4.687   1.187   1.071
 4165TIP3    H134130   4.722   1.106   1.033
 4165TIP3    H234131   4.756   1.219   1.129
 4166TIP3   OH234132   5.583   0.332   1.168
 4166TIP3    H134133   5.596   0.399   1.234
 4166TIP3    H234134   5.632   0.363   1.092
 4167TIP3   OH234135   4.998   0.610   1.077
 4167TIP3    H134136   5.013   0.517   1.093
 4167TIP3    H234137   4.981   0.617   0.984
 4168TIP3   OH234138   4.333   0.413   0.814
 4168TIP3    H134139   4.343   0.500   0.777
 4168TIP3    H234140   4.286   0.363   0.746
 4169TIP3   OH234141   5.131   0.443   0.661
 4169TIP3    H134142   5.163   0.416   0.747
 4169TIP3    H234143   5.209   0.475   0.616
 4170TIP3   OH234144   3.980   0.670   0.887
 4170TIP3    H134145   4.043   0.631   0.948
 4170TIP3    H234146   4.003   0.633   0.802
 4171TIP3   OH234147   4.474   0.819   0.849
 4171TIP3    H134148   4.557   0.781   0.879
 4171TIP3    H234149   4.434   0.750   0.797
 4172TIP3   OH234150   5.606   0.496   1.392
 4172TIP3    H134151   5.530   0.551   1.373
 4172TIP3    H234152   5.620   0.508   1.486
 4173TIP3   OH234153   4.193   0.339   1.246
 4173TIP3    H134154   4.164   0.402   1.180
 4173TIP3    H234155   4.125   0.342   1.314
 4174TIP3   OH234156   4.923   1.258   0.574
 4174TIP3    H134157   4.867   1.244   0.498
 4174TIP3    H234158   4.886   1.335   0.618
 4175TIP3   OH234159   4.463   1.105   1.214
 4175TIP3    H134160   4.413   1.175   1.256
 4175TIP3    H234161   4.535   1.150   1.171
 4176TIP3   OH234162   5.223   0.391   0.911
 4176TIP3    H134163   5.158   0.365   0.976
 4176TIP3    H234164   5.281   0.450   0.958
 4177TIP3   OH234165   4.164   0.502   1.020
 4177TIP3    H134166   4.218   0.561   1.073
 4177TIP3    H234167   4.225   0.467   0.954
 4178TIP3   OH234168   4.315   1.308   1.333
 4178TIP3    H134169   4.322   1.403   1.325
 4178TIP3    H234170   4.224   1.293   1.358
 4179TIP3   OH234171   3.874   1.288   0.403
 4179TIP3    H134172   3.874   1.330   0.317
 4179TIP3    H234173   3.904   1.356   0.463
 4180TIP3   OH234174   5.256   1.446   1.081
 4180TIP3    H134175   5.162   1.449   1.098
 4180TIP3    H234176   5.279   1.537   1.062
 4181TIP3   OH234177   5.334   0.256   1.272
 4181TIP3    H134178   5.261   0.273   1.212
 4181TIP3    H234179   5.412   0.279   1.221
 4182TIP3   OH234180   4.578   0.109   0.975
 4182TIP3    H134181   4.562   0.015   0.982
 4182TIP3    H234182   4.504   0.150   1.019
 4183TIP3   OH234183   5.067   1.604   0.687
 4183TIP3    H134184   5.109   1.519   0.677
 4183TIP3    H234185   5.140   1.666   0.693
 4184TIP3   OH234186   5.187   1.364   0.641
 4184TIP3    H134187   5.118   1.308   0.605
 4184TIP3    H234188   5.214   1.319   0.722
 4185TIP3   OH234189   5.367   1.229   1.445
 4185TIP3    H134190   5.361   1.173   1.368
 4185TIP3    H234191   5.378   1.318   1.409
 4186TIP3   OH234192   4.832   0.934   0.413
 4186TIP3    H134193   4.752   0.985   0.416
 4186TIP3    H234194   4.884   0.974   0.343
 4187TIP3   OH234195   4.797   0.793   0.089
 4187TIP3    H134196   4.841   0.858   0.144
 4187TIP3    H234197   4.861   0.722   0.080
 4188TIP3   OH234198   5.542   0.892   1.268
 4188TIP3    H134199   5.467   0.953   1.265
 4188TIP3    H234200   5.598   0.920   1.196
 4189TIP3   OH234201   5.205   0.974   0.523
 4189TIP3    H134202   5.126   0.985   0.577
 4189TIP3    H234203   5.265   0.926   0.579
 4190TIP3   OH234204   5.138   0.750   1.457
 4190TIP3    H134205   5.133   0.822   1.520
 4190TIP3    H234206   5.075   0.773   1.388
 4191TIP3   OH234207   4.319   1.008   0.716
 4191TIP3    H134208   4.298   0.971   0.630
 4191TIP3    H234209   4.379   0.944   0.755
 4192TIP3   OH234210   4.478   1.363   0.973
 4192TIP3    H134211   4.483   1.370   0.878
 4192TIP3    H234212   4.552   1.308   0.997
 4193TIP3   OH234213   4.333   0.911   1.070
 4193TIP3    H134214   4.391   0.888   0.998
 4193TIP3    H234215   4.381   0.977   1.120
 4194TIP3   OH234216   4.993   1.458   1.148
 4194TIP3    H134217   4.977   1.525   1.214
 4194TIP3    H234218   4.956   1.378   1.186
 4195TIP3   OH234219   4.473   1.327   1.564
 4195TIP3    H134220   4.414   1.390   1.606
 4195TIP3    H234221   4.426   1.299   1.485
 4196TIP3   OH234222   5.134   0.856   0.287
 4196TIP3    H134223   5.168   0.904   0.363
 4196TIP3    H234224   5.087   0.923   0.237
 4197TIP3   OH234225   4.151   0.953   1.475
 4197TIP3    H134226   4.161   1.026   1.536
 4197TIP3    H234227   4.059   0.929   1.480
 4198TIP3   OH234228   4.812   1.501   0.635
 4198TIP3    H134229   4.889   1.556   0.653
 4198TIP3    H234230   4.784   1.527   0.548
 4199TIP3   OH234231   4.290   1.516   1.633
 4199TIP3    H134232   4.280   1.550   1.544
 4199TIP3    H234233   4.201   1.506   1.664
 4200TIP3   OH234234   5.470   0.079   0.241
 4200TIP3    H134235   5.420   0.017   0.293
 4200TIP3    H234236   5.429   0.078   0.155
 4201TIP3   OH234237   4.231   0.923   0.456
 4201TIP3    H134238   4.171   0.988   0.419
 4201TIP3    H234239   4.180   0.842   0.458
 4202TIP3   OH234240   5.531   1.491   0.124
 4202TIP3    H134241   5.557   1.584   0.125
 4202TIP3    H234242   5.614   1.443   0.120
 4203TIP3   OH234243   3.834   1.172   1.370
 4203TIP3    H134244   3.781   1.173   1.290
 4203TIP3    H234245   3.849   1.079   1.387
 4204TIP3   OH234246   3.825   1.444   1.042
 4204TIP3    H134247   3.916   1.428   1.064
 4204TIP3    H234248   3.797   1.512   1.103
 4205TIP3   OH234249   5.626   1.504   1.644
 4205TIP3    H134250   5.609   1.411   1.659
 4205TIP3    H234251   5.546   1.548   1.671
 4206TIP3   OH234252   4.701   1.471   1.507
 4206TIP3    H134253   4.712   1.540   1.572
 4206TIP3    H234254   4.619   1.428   1.531
 4207TIP3   OH234255   4.804   1.833   0.478
 4207TIP3    H134256   4.785   1.854   0.386
 4207TIP3    H234257   4.770   1.908   0.527
 4208TIP3   OH234258   4.137   1.697   0.676
 4208TIP3    H134259   4.157   1.667   0.765
 4208TIP3    H234260   4.083   1.627   0.639
 4209TIP3   OH234261   5.077   1.753   0.156
 4209TIP3    H134262   5.148   1.695   0.129
 4209TIP3    H234263   5.079   1.751   0.252
 4210TIP3   OH234264   5.058   1.748   0.434
 4210TIP3    H134265   4.967   1.768   0.455
 4210TIP3    H234266   5.087   1.689   0.504
 4211TIP3   OH234267   5.339   0.633   1.653
 4211TIP3    H134268   5.274   0.683   1.602
 4211TIP3    H234269   5.343   0.548   1.609
 4212TIP3   OH234270   4.054   1.328   1.424
 4212TIP3    H134271   4.081   1.299   1.511
 4212TIP3    H234272   3.976   1.276   1.405
 4213TIP3   OH234273   4.332   0.175   1.077
 4213TIP3    H134274   4.277   0.188   1.000
 4213TIP3    H234275   4.289   0.224   1.147
 4214TIP3   OH234276   4.792   0.125   1.461
 4214TIP3    H134277   4.791   0.089   1.550
 4214TIP3    H234278   4.700   0.129   1.436
 4215TIP3   OH234279   5.076   0.481   1.507
 4215TIP3    H134280   5.004   0.476   1.570
 4215TIP3    H234281   5.084   0.574   1.486
 4216TIP3   OH234282   5.253   1.040   8.511
 4216TIP3    H134283   5.223   1.050   8.421
 4216TIP3    H234284   5.179   1.068   8.564
 4217TIP3   OH234285   4.786   0.288   0.141
 4217TIP3    H134286   4.709   0.292   0.198
 4217TIP3    H234287   4.792   0.196   0.115
 4218TIP3   OH234288   4.309   0.662   1.191
 4218TIP3    H134289   4.251   0.664   1.267
 4218TIP3    H234290   4.309   0.752   1.158
 4219TIP3   OH234291   4.324   0.654   0.685
 4219TIP3    H134292   4.229   0.644   0.679
 4219TIP3    H234293   4.355   0.633   0.597
 4220TIP3   OH234294   4.886   0.682   0.522
 4220TIP3    H134295   4.864   0.769   0.489
 4220TIP3    H234296   4.967   0.658   0.476
 4221TIP3   OH234297   4.752   0.682   1.685
 4221TIP3    H134298   4.698   0.616   1.727
 4221TIP3    H234299   4.841   0.663   1.714
 4222TIP3   OH234300   4.969   0.631   0.805
 4222TIP3    H134301   4.929   0.688   0.740
 4222TIP3    H234302   5.010   0.561   0.754
 4223TIP3   OH234303   4.106   0.639   1.387
 4223TIP3    H134304   4.123   0.672   1.476
 4223TIP3    H234305   4.065   0.554   1.400
 4224TIP3   OH234306   4.480   0.419   0.069
 4224TIP3    H134307   4.434   0.397   0.150
 4224TIP3    H234308   4.481   0.514   0.067
 4225TIP3   OH234309   3.766   0.345   0.761
 4225TIP3    H134310   3.809   0.362   0.844
 4225TIP3    H234311   3.820   0.390   0.696
 4226TIP3   OH234312   3.841   0.474   0.268
 4226TIP3    H134313   3.915   0.506   0.218
 4226TIP3    H234314   3.788   0.552   0.285
 4227TIP3   OH234315   4.922   0.780   1.275
 4227TIP3    H134316   4.953   0.723   1.204
 4227TIP3    H234317   4.855   0.729   1.319
 4228TIP3   OH234318   4.629   0.406   0.763
 4228TIP3    H134319   4.539   0.397   0.795
 4228TIP3    H234320   4.684   0.375   0.835
 4229TIP3   OH234321   4.063   0.566   0.646
 4229TIP3    H134322   3.990   0.593   0.592
 4229TIP3    H234323   4.087   0.480   0.614
 4230TIP3   OH234324   4.396   0.575   0.435
 4230TIP3    H134325   4.492   0.573   0.438
 4230TIP3    H234326   4.375   0.607   0.347
 4231TIP3   OH234327   5.022   0.335   1.093
 4231TIP3    H134328   4.981   0.333   1.179
 4231TIP3    H234329   4.953   0.306   1.033
 4232TIP3   OH234330   4.290   0.617   0.187
 4232TIP3    H134331   4.200   0.620   0.157
 4232TIP3    H234332   4.335   0.684   0.134
 4233TIP3   OH234333   5.333   1.891   1.751
 4233TIP3    H134334   5.375   1.923   1.671
 4233TIP3    H234335   5.406   1.878   1.812
 4234TIP3   OH234336   4.135   1.176   1.652
 4234TIP3    H134337   4.197   1.179   1.725
 4234TIP3    H234338   4.050   1.162   1.693
 4235TIP3   OH234339   4.699   0.697   0.962
 4235TIP3    H134340   4.765   0.639   0.924
 4235TIP3    H234341   4.663   0.647   1.035
 4236TIP3   OH234342   4.179   0.307   0.600
 4236TIP3    H134343   4.142   0.224   0.630
 4236TIP3    H234344   4.219   0.287   0.515
 4237TIP3   OH234345   4.577   0.574   1.185
 4237TIP3    H134346   4.492   0.618   1.191
 4237TIP3    H234347   4.627   0.607   1.259
 4238TIP3   OH234348   4.625   1.107   0.396
 4238TIP3    H134349   4.551   1.083   0.340
 4238TIP3    H234350   4.585   1.146   0.473
 4239TIP3   OH234351   5.347   1.078   1.211
 4239TIP3    H134352   5.405   1.137   1.163
 4239TIP3    H234353   5.271   1.066   1.153
 4240TIP3   OH234354   5.028   0.391   0.220
 4240TIP3    H134355   4.954   0.349   0.177
 4240TIP3    H234356   5.007   0.485   0.216
 4241TIP3   OH234357   4.761   1.185   1.484
 4241TIP3    H134358   4.774   1.152   1.573
 4241TIP3    H234359   4.734   1.276   1.496
 4242TIP3   OH234360   5.153   0.600   0.366
 4242TIP3    H134361   5.217   0.606   0.436
 4242TIP3    H234362   5.146   0.689   0.332
 4243TIP3   OH234363   4.141   1.055   0.920
 4243TIP3    H134364   4.201   1.051   0.846
 4243TIP3    H234365   4.183   1.002   0.988
 4244TIP3   OH234366   4.729   1.304   0.189
 4244TIP3    H134367   4.746   1.366   0.260
 4244TIP3    H234368   4.781   1.227   0.212
 4245TIP3   OH234369   3.864   0.909   1.462
 4245TIP3    H134370   3.837   0.868   1.544
 4245TIP3    H234371   3.798   0.882   1.398
 4246TIP3   OH234372   4.578   0.896   1.666
 4246TIP3    H134373   4.502   0.860   1.620
 4246TIP3    H234374   4.641   0.824   1.669
 4247TIP3   OH234375   4.983   1.427   1.485
 4247TIP3    H134376   4.890   1.443   1.473
 4247TIP3    H234377   5.002   1.460   1.573
 4248TIP3   OH234378   5.570   0.654   0.305
 4248TIP3    H134379   5.515   0.614   0.238
 4248TIP3    H234380   5.576   0.746   0.281
 4249TIP3   OH234381   5.583   1.219   1.620
 4249TIP3    H134382   5.494   1.245   1.597
 4249TIP3    H234383   5.629   1.212   1.536
 4250TIP3   OH234384   5.412   1.507   0.379
 4250TIP3    H134385   5.360   1.432   0.408
 4250TIP3    H234386   5.440   1.484   0.291
 4251TIP3   OH234387   5.129   1.020   1.033
 4251TIP3    H134388   5.034   1.012   1.033
 4251TIP3    H234389   5.160   0.940   0.990
 4252TIP3   OH234390   4.410   1.446   0.706
 4252TIP3    H134391   4.437   1.527   0.664
 4252TIP3    H234392   4.315   1.455   0.717
 4253TIP3   OH234393   3.959   0.884   0.177
 4253TIP3    H134394   4.003   0.959   0.216
 4253TIP3    H234395   3.866   0.899   0.193
 4254TIP3   OH234396   4.489   1.201   0.608
 4254TIP3    H134397   4.470   1.288   0.642
 4254TIP3    H234398   4.429   1.143   0.657
 4255TIP3   OH234399   4.598   1.611   1.281
 4255TIP3    H134400   4.658   1.683   1.259
 4255TIP3    H234401   4.646   1.559   1.344
 4256TIP3   OH234402   4.396   1.710   0.577
 4256TIP3    H134403   4.305   1.718   0.606
 4256TIP3    H234404   4.440   1.786   0.616
 4257TIP3   OH234405   4.901   1.212   1.251
 4257TIP3    H134406   4.852   1.199   1.332
 4257TIP3    H234407   4.983   1.164   1.264
 4258TIP3   OH234408   5.152   1.309   0.126
 4258TIP3    H134409   5.208   1.284   0.199
 4258TIP3    H234410   5.074   1.255   0.135
 4259TIP3   OH234411   5.197   1.649   1.456
 4259TIP3    H134412   5.111   1.616   1.428
 4259TIP3    H234413   5.207   1.732   1.408
 4260TIP3   OH234414   5.604   1.757   0.170
 4260TIP3    H134415   5.666   1.830   0.177
 4260TIP3    H234416   5.518   1.797   0.185
 4261TIP3   OH234417   3.993   0.370   1.431
 4261TIP3    H134418   3.899   0.387   1.429
 4261TIP3    H234419   4.003   0.296   1.491
 4262TIP3   OH234420   5.291   1.199   0.349
 4262TIP3    H134421   5.238   1.144   0.408
 4262TIP3    H234422   5.382   1.175   0.370
 4263TIP3   OH234423   3.988   1.573   1.271
 4263TIP3    H134424   4.014   1.491   1.314
 4263TIP3    H234425   3.996   1.639   1.340
 4264TIP3   OH234426   4.446   1.390   0.212
 4264TIP3    H134427   4.530   1.345   0.226
 4264TIP3    H234428   4.456   1.474   0.257
 4265TIP3   OH234429   4.066   1.102   0.321
 4265TIP3    H134430   3.996   1.150   0.367
 4265TIP3    H234431   4.114   1.170   0.274
 4266TIP3   OH234432   4.903   0.345   1.338
 4266TIP3    H134433   4.969   0.376   1.400
 4266TIP3    H234434   4.867   0.267   1.380
 4267TIP3   OH234435   4.985   0.287   0.482
 4267TIP3    H134436   4.993   0.323   0.394
 4267TIP3    H234437   5.030   0.349   0.539
 4268TIP3   OH234438   4.734   1.523   0.365
 4268TIP3    H134439   4.648   1.565   0.367
 4268TIP3    H234440   4.777   1.562   0.288
 4269TIP3   OH234441   4.660   0.520   0.509
 4269TIP3    H134442   4.736   0.576   0.514
 4269TIP3    H234443   4.646   0.490   0.599
 4270TIP3   OH234444   4.754   0.605   1.404
 4270TIP3    H134445   4.739   0.622   1.497
 4270TIP3    H234446   4.780   0.513   1.401
 4271TIP3   OH234447   4.748   0.204   0.594
 4271TIP3    H134448   4.731   0.277   0.653
 4271TIP3    H234449   4.835   0.221   0.559
 4272TIP3   OH234450   4.484   1.643   0.325
 4272TIP3    H134451   4.487   1.726   0.277
 4272TIP3    H234452   4.451   1.666   0.412
 4273TIP3   OH234453   4.343   0.328   0.310
 4273TIP3    H134454   4.331   0.414   0.351
 4273TIP3    H234455   4.431   0.302   0.337
 4274TIP3   OH234456   5.327   0.383   1.524
 4274TIP3    H134457   5.235   0.408   1.520
 4274TIP3    H234458   5.346   0.347   1.437
 4275TIP3   OH234459   5.208   0.770   0.918
 4275TIP3    H134460   5.122   0.731   0.901
 4275TIP3    H234461   5.251   0.707   0.976
 4276TIP3   OH234462   4.172   1.316   0.171
 4276TIP3    H134463   4.250   1.359   0.207
 4276TIP3    H234464   4.207   1.255   0.106
 4277TIP3   OH234465   4.022   0.629   0.105
 4277TIP3    H134466   4.001   0.719   0.126
 4277TIP3    H234467   3.998   0.620   0.012
 4278TIP3   OH234468   5.338   1.712   1.068
 4278TIP3    H134469   5.329   1.783   1.005
 4278TIP3    H234470   5.431   1.711   1.090
 4279TIP3   OH234471   4.023   0.099   0.986
 4279TIP3    H134472   4.086   0.044   0.939
 4279TIP3    H234473   4.017   0.059   1.073
 4280TIP3   OH234474   3.946   1.514   0.565
 4280TIP3    H134475   3.892   1.542   0.639
 4280TIP3    H234476   3.929   1.579   0.497
 4281TIP3   OH234477   3.890   1.788   1.746
 4281TIP3    H134478   3.922   1.767   1.834
 4281TIP3    H234479   3.860   1.704   1.711
 4282TIP3   OH234480   4.829   1.616   0.125
 4282TIP3    H134481   4.800   1.564   0.050
 4282TIP3    H234482   4.922   1.632   0.109
 4283TIP3   OH234483   4.991   1.520   1.742
 4283TIP3    H134484   4.943   1.458   1.798
 4283TIP3    H234485   5.055   1.560   1.801
 4284TIP3   OH234486   5.245   1.563   0.052
 4284TIP3    H134487   5.208   1.478   0.077
 4284TIP3    H234488   5.339   1.549   0.051
 4285TIP3   OH234489   3.890   1.129   1.778
 4285TIP3    H134490   3.911   1.037   1.764
 4285TIP3    H234491   3.816   1.147   1.719
 4286TIP3   OH234492   4.313   1.121   0.028
 4286TIP3    H134493   4.358   1.087   0.106
 4286TIP3    H234494   4.375   1.185  -0.008
 4287TIP3   OH234495   4.526   1.146   1.768
 4287TIP3    H134496   4.509   1.198   1.689
 4287TIP3    H234497   4.546   1.058   1.735
 4288TIP3   OH234498   5.101   1.173   1.497
 4288TIP3    H134499   5.193   1.196   1.491
 4288TIP3    H234500   5.055   1.257   1.493
 4289TIP3   OH234501   4.026   0.893   1.765
 4289TIP3    H134502   4.060   0.808   1.734
 4289TIP3    H234503   4.073   0.908   1.847
 4290TIP3   OH234504   4.413   0.993   0.253
 4290TIP3    H134505   4.357   0.970   0.328
 4290TIP3    H234506   4.449   0.909   0.224
 4291TIP3   OH234507   4.378   0.784   1.496
 4291TIP3    H134508   4.301   0.841   1.489
 4291TIP3    H234509   4.437   0.815   1.428
 4292TIP3   OH234510   4.520   0.771   0.120
 4292TIP3    H134511   4.512   0.819   0.038
 4292TIP3    H234512   4.614   0.758   0.132
 4293TIP3   OH234513   4.907   1.035   1.830
 4293TIP3    H134514   4.989   1.008   1.788
 4293TIP3    H234515   4.840   0.978   1.791
 4294TIP3   OH234516   5.515   1.099   0.038
 4294TIP3    H134517   5.422   1.074   0.032
 4294TIP3    H234518   5.514   1.194   0.048
 4295TIP3   OH234519   4.435   0.526   1.578
 4295TIP3    H134520   4.433   0.470   1.500
 4295TIP3    H234521   4.411   0.613   1.545
 4296TIP3   OH234522   4.451   0.370   1.343
 4296TIP3    H134523   4.499   0.421   1.278
 4296TIP3    H234524   4.362   0.365   1.308
 4297TIP3   OH234525   4.571   0.879   1.327
 4297TIP3    H134526   4.657   0.905   1.359
 4297TIP3    H234527   4.535   0.958   1.288
 4298TIP3   OH234528   5.127   0.948   1.651
 4298TIP3    H134529   5.108   1.027   1.599
 4298TIP3    H234530   5.220   0.955   1.672
 4299TIP3   OH234531   4.143   0.646   1.673
 4299TIP3    H134532   4.111   0.567   1.717
 4299TIP3    H234533   4.237   0.646   1.690
 4300TIP3   OH234534   4.512   0.113   1.424
 4300TIP3    H134535   4.496   0.205   1.400
 4300TIP3    H234536   4.424   0.076   1.433
 4301TIP3   OH234537   4.616   0.455   1.768
 4301TIP3    H134538   4.573   0.403   1.836
 4301TIP3    H234539   4.546   0.476   1.706
 4302TIP3   OH234540   4.871   0.406   1.673
 4302TIP3    H134541   4.777   0.417   1.690
 4302TIP3    H234542   4.889   0.316   1.698
 4303TIP3   OH234543   4.070   0.400   1.798
 4303TIP3    H134544   4.124   0.322   1.786
 4303TIP3    H234545   4.082   0.424   1.890
 4304TIP3   OH234546   4.640   0.088   1.704
 4304TIP3    H134547   4.653  -0.004   1.728
 4304TIP3    H234548   4.563   0.087   1.647
 4305TIP3   OH234549   4.534   1.858   0.144
 4305TIP3    H134550   4.622   1.875   0.178
 4305TIP3    H234551   4.534   1.897   0.057
 4306TIP3   OH234552   3.897   1.350   0.119
 4306TIP3    H134553   3.990   1.355   0.140
 4306TIP3    H234554   3.894   1.303   0.035
 4307TIP3   OH234555   3.776   1.843   0.659
 4307TIP3    H134556   3.717   1.812   0.590
 4307TIP3    H234557   3.792   1.766   0.713
 4308TIP3   OH234558   3.844   1.626   0.819
 4308TIP3    H134559   3.808   1.550   0.865
 4308TIP3    H234560   3.891   1.675   0.886
 4309TIP3   OH234561   5.602   1.722   1.150
 4309TIP3    H134562   5.594   1.698   1.242
 4309TIP3    H234563   5.640   1.810   1.151
 4310TIP3   OH234564   5.571   1.662   1.413
 4310TIP3    H134565   5.506   1.595   1.392
 4310TIP3    H234566   5.609   1.632   1.496
 4311TIP3   OH234567   5.380   1.358   1.845
 4311TIP3    H134568   5.303   1.347   1.901
 4311TIP3    H234569   5.435   1.420   1.891
 4312TIP3   OH234570   5.546   1.106   0.428
 4312TIP3    H134571   5.617   1.170   0.434
 4312TIP3    H234572   5.559   1.049   0.504
 4313TIP3   OH234573   5.599   0.912   0.621
 4313TIP3    H134574   5.516   0.881   0.657
 4313TIP3    H234575   5.653   0.928   0.697
 4314TIP3   OH234576   5.579   1.216   1.135
 4314TIP3    H134577   5.631   1.151   1.089
 4314TIP3    H234578   5.605   1.300   1.096
 4315TIP3   OH234579   5.377   1.480   1.332
 4315TIP3    H134580   5.309   1.531   1.376
 4315TIP3    H234581   5.343   1.464   1.244
 4316TIP3   OH234582   5.594   0.920   0.232
 4316TIP3    H134583   5.563   0.971   0.157
 4316TIP3    H234584   5.573   0.973   0.308
 4317TIP3   OH234585   5.350   0.609   0.102
 4317TIP3    H134586   5.398   0.682   0.063
 4317TIP3    H234587   5.359   0.538   0.039
 4318TIP3   OH234588   5.353   0.794   0.685
 4318TIP3    H134589   5.354   0.701   0.663
 4318TIP3    H234590   5.306   0.799   0.769
 4319TIP3   OH234591   3.841   0.978   1.079
 4319TIP3    H134592   3.855   0.966   0.985
 4319TIP3    H234593   3.921   0.947   1.120
 4320TIP3   OH234594   5.403   0.973   1.663
 4320TIP3    H134595   5.478   0.914   1.667
 4320TIP3    H234596   5.442   1.061   1.655
 4321TIP3   OH234597   5.585   0.753   1.666
 4321TIP3    H134598   5.495   0.722   1.669
 4321TIP3    H234599   5.638   0.674   1.676
 4322TIP3   OH234600   5.278   0.357   8.508
 4322TIP3    H134601   5.327   0.276   8.491
 4322TIP3    H234602   5.209   0.357   8.441
 4323TIP3   OH234603   5.369   0.536   0.526
 4323TIP3    H134604   5.394   0.443   0.533
 4323TIP3    H234605   5.446   0.578   0.489
 4324TIP3   OH234606   5.363   0.580   1.061
 4324TIP3    H134607   5.455   0.594   1.038
 4324TIP3    H234608   5.358   0.598   1.155
 4325TIP3   OH234609   5.388   0.667   1.328
 4325TIP3    H134610   5.307   0.699   1.366
 4325TIP3    H234611   5.439   0.746   1.311
 4326TIP3   OH234612   3.827   0.485   1.683
 4326TIP3    H134613   3.912   0.443   1.696
 4326TIP3    H234614   3.826   0.556   1.748
 4327TIP3   OH234615   5.700   0.070   1.787
 4327TIP3    H134616   5.665  -0.016   1.764
 4327TIP3    H234617   5.629   0.131   1.766
 4328TIP3   OH234618   5.409   0.264   0.513
 4328TIP3    H134619   5.430   0.215   0.593
 4328TIP3    H234620   5.346   0.208   0.467
 4329TIP3   OH234621   3.916   0.358   0.993
 4329TIP3    H134622   3.951   0.269   0.991
 4329TIP3    H234623   3.992   0.415   1.006
 4330TIP3   OH234624   3.745   0.649   1.042
 4330TIP3    H134625   3.819   0.649   0.982
 4330TIP3    H234626   3.769   0.711   1.111
 4331TIP3   OH234627   5.529   0.247   1.652
 4331TIP3    H134628   5.454   0.302   1.631
 4331TIP3    H234629   5.539   0.190   1.576
 4332TIP3   OH234630   5.512   0.351   0.197
 4332TIP3    H134631   5.510   0.256   0.203
 4332TIP3    H234632   5.601   0.373   0.169
 4333TIP3   OH234633   3.798   0.248   0.422
 4333TIP3    H134634   3.709   0.257   0.455
 4333TIP3    H234635   3.818   0.333   0.383
 4334TIP3   OH234636   5.264   1.787   0.670
 4334TIP3    H134637   5.341   1.775   0.614
 4334TIP3    H234638   5.299   1.824   0.751
 4335TIP3   OH234639   3.820   0.094   1.291
 4335TIP3    H134640   3.752   0.082   1.358
 4335TIP3    H234641   3.788   0.167   1.238
 4336TIP3   OH234642   4.031   1.498   1.724
 4336TIP3    H134643   3.936   1.500   1.714
 4336TIP3    H234644   4.046   1.528   1.814
 4337TIP3   OH234645   4.334   1.584   1.353
 4337TIP3    H134646   4.304   1.673   1.332
 4337TIP3    H234647   4.428   1.587   1.335
 4338TIP3   OH234648   4.736   1.682   1.695
 4338TIP3    H134649   4.782   1.641   1.769
 4338TIP3    H234650   4.802   1.737   1.654
 4339TIP3   OH234651   4.941   1.842   1.590
 4339TIP3    H134652   5.007   1.789   1.547
 4339TIP3    H234653   4.981   1.868   1.673
 4340TIP3   OH234654   5.484   0.082   1.432
 4340TIP3    H134655   5.423   0.131   1.377
 4340TIP3    H234656   5.467  -0.010   1.409
 4341TIP3   OH234657   4.038   1.890   1.374
 4341TIP3    H134658   3.956   1.927   1.339
 4341TIP3    H234659   4.043   1.924   1.464
 4342TIP3   OH234660   4.297   1.852   1.291
 4342TIP3    H134661   4.206   1.866   1.319
 4342TIP3    H234662   4.304   1.897   1.207
 4343TIP3   OH234663   4.745   1.831   1.193
 4343TIP3    H134664   4.697   1.869   1.120
 4343TIP3    H234665   4.757   1.904   1.255
 4344TIP3   OH234666   4.968   1.697   1.288
 4344TIP3    H134667   4.890   1.741   1.253
 4344TIP3    H234668   5.039   1.759   1.272
 4345TIP3   OH234669   5.194   1.853   1.265
 4345TIP3    H134670   5.238   1.937   1.279
 4345TIP3    H234671   5.246   1.810   1.197
 4346TIP3   OH234672   3.997   1.731   1.039
 4346TIP3    H134673   3.991   1.687   1.123
 4346TIP3    H234674   4.076   1.695   0.999
 4347TIP3   OH234675   4.212   1.607   0.925
 4347TIP3    H134676   4.198   1.515   0.948
 4347TIP3    H234677   4.298   1.628   0.962
 4348TIP3   OH234678   4.472   1.639   1.031
 4348TIP3    H134679   4.482   1.548   1.002
 4348TIP3    H234680   4.504   1.638   1.121
 4349TIP3   OH234681   4.804   0.264   0.928
 4349TIP3    H134682   4.735   0.203   0.955
 4349TIP3    H234683   4.869   0.209   0.883
 4350TIP3   OH234684   5.273   0.008   0.895
 4350TIP3    H134685   5.349   0.045   0.849
 4350TIP3    H234686   5.217   0.084   0.912
 4351TIP3   OH234687   5.484   0.125   0.751
 4351TIP3    H134688   5.552   0.058   0.762
 4351TIP3    H234689   5.531   0.208   0.761
 4352TIP3   OH234690   4.098   0.052   0.672
 4352TIP3    H134691   4.011   0.024   0.642
 4352TIP3    H234692   4.120  -0.011   0.741
 4353TIP3   OH234693   3.893   0.144   0.173
 4353TIP3    H134694   3.985   0.169   0.163
 4353TIP3    H234695   3.867   0.183   0.256
 4354TIP3   OH234696   4.519   0.097   0.705
 4354TIP3    H134697   4.601   0.120   0.662
 4354TIP3    H234698   4.538   0.104   0.798
 4355TIP3   OH234699   5.015   0.139   0.805
 4355TIP3    H134700   5.057   0.191   0.737
 4355TIP3    H234701   5.025   0.049   0.777
 4356TIP3   OH234702   5.206   0.116   0.402
 4356TIP3    H134703   5.115   0.130   0.427
 4356TIP3    H234704   5.216   0.021   0.396
 4357TIP3   OH234705   3.903   1.697   0.368
 4357TIP3    H134706   3.832   1.684   0.306
 4357TIP3    H234707   3.922   1.791   0.362
 4358TIP3   OH234708   4.151   0.224   0.140
 4358TIP3    H134709   4.186   0.250   0.055
 4358TIP3    H234710   4.214   0.258   0.203
 4359TIP3   OH234711   4.606   0.283   0.371
 4359TIP3    H134712   4.650   0.226   0.434
 4359TIP3    H234713   4.625   0.372   0.402
 4360TIP3   OH234714   4.803   1.876   0.203
 4360TIP3    H134715   4.893   1.907   0.188
 4360TIP3    H234716   4.805   1.784   0.175
 4361TIP3   OH234717   5.474   1.752   0.486
 4361TIP3    H134718   5.455   1.663   0.457
 4361TIP3    H234719   5.456   1.807   0.410
 4362TIP3   OH234720   4.031   0.144   1.608
 4362TIP3    H134721   3.999   0.055   1.619
 4362TIP3    H234722   4.107   0.150   1.665
 4363TIP3   OH234723   4.249   0.171   1.794
 4363TIP3    H134724   4.318   0.225   1.832
 4363TIP3    H234725   4.276   0.081   1.812
 4364TIP3   OH234726   4.108   1.779   0.030
 4364TIP3    H134727   4.060   1.800   0.110
 4364TIP3    H234728   4.166   1.707   0.055
 4365TIP3   OH234729   5.096   0.129   1.832
 4365TIP3    H134730   5.126   0.055   1.885
 4365TIP3    H234731   5.102   0.097   1.742
 4366TIP3   OH234732   5.381   1.630   1.667
 4366TIP3    H134733   5.314   1.624   1.598
 4366TIP3    H234734   5.370   1.719   1.702
 4367TIP3   OH234735   6.847   1.026   0.659
 4367TIP3    H134736   6.833   1.121   0.654
 4367TIP3    H234737   6.779   0.990   0.602
 4368TIP3   OH234738   6.715   0.936   1.050
 4368TIP3    H134739   6.737   0.896   1.134
 4368TIP3    H234740   6.668   0.868   1.002
 4369TIP3   OH234741   5.934   0.875   1.196
 4369TIP3    H134742   5.943   0.796   1.249
 4369TIP3    H234743   6.014   0.925   1.214
 4370TIP3   OH234744   7.099   1.251   0.882
 4370TIP3    H134745   7.064   1.174   0.926
 4370TIP3    H234746   7.122   1.311   0.953
 4371TIP3   OH234747   6.086   1.337   0.976
 4371TIP3    H134748   6.049   1.249   0.965
 4371TIP3    H234749   6.176   1.322   1.005
 4372TIP3   OH234750   5.731   0.681   0.530
 4372TIP3    H134751   5.697   0.763   0.566
 4372TIP3    H234752   5.679   0.665   0.452
 4373TIP3   OH234753   5.797   0.929   0.818
 4373TIP3    H134754   5.824   0.839   0.838
 4373TIP3    H234755   5.875   0.981   0.835
 4374TIP3   OH234756   6.822   1.723   0.926
 4374TIP3    H134757   6.850   1.655   0.864
 4374TIP3    H234758   6.789   1.674   1.001
 4375TIP3   OH234759   6.573   1.187   1.070
 4375TIP3    H134760   6.608   1.104   1.036
 4375TIP3    H234761   6.641   1.220   1.128
 4376TIP3   OH234762   6.893   0.611   1.086
 4376TIP3    H134763   6.902   0.516   1.097
 4376TIP3    H234764   6.869   0.621   0.994
 4377TIP3   OH234765   6.226   0.417   0.808
 4377TIP3    H134766   6.233   0.504   0.768
 4377TIP3    H234767   6.178   0.365   0.744
 4378TIP3   OH234768   6.984   0.467   0.649
 4378TIP3    H134769   7.033   0.418   0.715
 4378TIP3    H234770   7.051   0.499   0.589
 4379TIP3   OH234771   5.868   0.670   0.888
 4379TIP3    H134772   5.932   0.631   0.947
 4379TIP3    H234773   5.888   0.634   0.802
 4380TIP3   OH234774   6.355   0.816   0.852
 4380TIP3    H134775   6.438   0.777   0.880
 4380TIP3    H234776   6.316   0.749   0.795
 4381TIP3   OH234777   6.080   0.343   1.243
 4381TIP3    H134778   6.052   0.401   1.172
 4381TIP3    H234779   6.010   0.350   1.308
 4382TIP3   OH234780   6.819   1.285   0.562
 4382TIP3    H134781   6.801   1.280   0.469
 4382TIP3    H234782   6.758   1.352   0.595
 4383TIP3   OH234783   6.350   1.106   1.217
 4383TIP3    H134784   6.297   1.175   1.256
 4383TIP3    H234785   6.420   1.152   1.171
 4384TIP3   OH234786   7.114   0.325   0.841
 4384TIP3    H134787   7.046   0.282   0.894
 4384TIP3    H234788   7.156   0.386   0.902
 4385TIP3   OH234789   6.056   0.503   1.014
 4385TIP3    H134790   6.112   0.559   1.067
 4385TIP3    H234791   6.115   0.465   0.948
 4386TIP3   OH234792   6.190   1.304   1.332
 4386TIP3    H134793   6.200   1.398   1.323
 4386TIP3    H234794   6.099   1.292   1.360
 4387TIP3   OH234795   5.764   1.282   0.410
 4387TIP3    H134796   5.754   1.323   0.324
 4387TIP3    H234797   5.789   1.354   0.468
 4388TIP3   OH234798   7.144   1.452   1.084
 4388TIP3    H134799   7.050   1.449   1.100
 4388TIP3    H234800   7.164   1.544   1.069
 4389TIP3   OH234801   7.192   0.272   1.218
 4389TIP3    H134802   7.099   0.263   1.196
 4389TIP3    H234803   7.231   0.306   1.137
 4390TIP3   OH234804   6.461   0.107   0.974
 4390TIP3    H134805   6.446   0.013   0.983
 4390TIP3    H234806   6.386   0.148   1.017
 4391TIP3   OH234807   6.934   1.579   0.711
 4391TIP3    H134808   6.974   1.494   0.694
 4391TIP3    H234809   7.007   1.640   0.718
 4392TIP3   OH234810   7.080   1.357   0.627
 4392TIP3    H134811   6.998   1.316   0.599
 4392TIP3    H234812   7.102   1.313   0.709
 4393TIP3   OH234813   7.231   1.193   1.464
 4393TIP3    H134814   7.223   1.148   1.380
 4393TIP3    H234815   7.258   1.281   1.441
 4394TIP3   OH234816   6.705   0.935   0.438
 4394TIP3    H134817   6.637   0.998   0.412
 4394TIP3    H234818   6.765   0.932   0.364
 4395TIP3   OH234819   6.715   0.757   0.129
 4395TIP3    H134820   6.779   0.805   0.180
 4395TIP3    H234821   6.765   0.687   0.087
 4396TIP3   OH234822   7.060   0.976   0.495
 4396TIP3    H134823   6.992   1.001   0.558
 4396TIP3    H234824   7.118   0.917   0.544
 4397TIP3   OH234825   7.007   0.769   1.447
 4397TIP3    H134826   6.996   0.830   1.520
 4397TIP3    H234827   6.936   0.789   1.387
 4398TIP3   OH234828   6.220   1.011   0.706
 4398TIP3    H134829   6.197   0.971   0.621
 4398TIP3    H234830   6.273   0.944   0.749
 4399TIP3   OH234831   6.374   1.365   0.969
 4399TIP3    H134832   6.374   1.367   0.874
 4399TIP3    H234833   6.447   1.307   0.992
 4400TIP3   OH234834   6.218   0.911   1.075
 4400TIP3    H134835   6.273   0.886   1.001
 4400TIP3    H234836   6.269   0.976   1.123
 4401TIP3   OH234837   6.879   1.459   1.149
 4401TIP3    H134838   6.860   1.528   1.212
 4401TIP3    H234839   6.840   1.380   1.187
 4402TIP3   OH234840   6.348   1.323   1.563
 4402TIP3    H134841   6.288   1.383   1.608
 4402TIP3    H234842   6.298   1.294   1.486
 4403TIP3   OH234843   6.930   0.888   0.270
 4403TIP3    H134844   6.973   0.919   0.350
 4403TIP3    H234845   6.981   0.926   0.199
 4404TIP3   OH234846   6.013   0.906   1.498
 4404TIP3    H134847   6.031   0.981   1.555
 4404TIP3    H234848   5.919   0.910   1.482
 4405TIP3   OH234849   6.678   1.513   0.635
 4405TIP3    H134850   6.759   1.548   0.672
 4405TIP3    H234851   6.646   1.581   0.577
 4406TIP3   OH234852   6.163   1.517   1.633
 4406TIP3    H134853   6.162   1.550   1.543
 4406TIP3    H234854   6.071   1.500   1.653
 4407TIP3   OH234855   7.202   0.026   0.144
 4407TIP3    H134856   7.169   0.014   0.233
 4407TIP3    H234857   7.280   0.080   0.155
 4408TIP3   OH234858   6.135   0.923   0.445
 4408TIP3    H134859   6.077   0.992   0.413
 4408TIP3    H234860   6.080   0.845   0.450
 4409TIP3   OH234861   5.713   1.172   1.381
 4409TIP3    H134862   5.661   1.187   1.302
 4409TIP3    H234863   5.722   1.077   1.386
 4410TIP3   OH234864   5.689   1.472   1.056
 4410TIP3    H134865   5.768   1.473   1.110
 4410TIP3    H234866   5.640   1.550   1.083
 4411TIP3   OH234867   6.578   1.456   1.490
 4411TIP3    H134868   6.588   1.530   1.549
 4411TIP3    H234869   6.495   1.417   1.515
 4412TIP3   OH234870   6.669   1.805   0.492
 4412TIP3    H134871   6.659   1.824   0.399
 4412TIP3    H234872   6.646   1.887   0.535
 4413TIP3   OH234873   6.022   1.697   0.674
 4413TIP3    H134874   6.042   1.666   0.763
 4413TIP3    H234875   5.965   1.630   0.637
 4414TIP3   OH234876   6.964   1.775   0.170
 4414TIP3    H134877   7.026   1.711   0.137
 4414TIP3    H234878   6.959   1.757   0.264
 4415TIP3   OH234879   6.928   1.730   0.444
 4415TIP3    H134880   6.835   1.739   0.467
 4415TIP3    H234881   6.961   1.665   0.507
 4416TIP3   OH234882   7.204   0.700   1.675
 4416TIP3    H134883   7.163   0.705   1.589
 4416TIP3    H234884   7.271   0.632   1.666
 4417TIP3   OH234885   5.930   1.339   1.429
 4417TIP3    H134886   5.925   1.359   1.523
 4417TIP3    H234887   5.856   1.281   1.413
 4418TIP3   OH234888   6.215   0.173   1.077
 4418TIP3    H134889   6.150   0.166   1.008
 4418TIP3    H234890   6.173   0.227   1.145
 4419TIP3   OH234891   6.685   0.115   1.434
 4419TIP3    H134892   6.714   0.044   1.490
 4419TIP3    H234893   6.590   0.114   1.440
 4420TIP3   OH234894   7.030   0.500   1.504
 4420TIP3    H134895   6.957   0.477   1.561
 4420TIP3    H234896   7.011   0.589   1.475
 4421TIP3   OH234897   7.096   1.015   0.090
 4421TIP3    H134898   7.160   1.024   0.019
 4421TIP3    H234899   7.130   1.072   0.160
 4422TIP3   OH234900   6.686   0.324   0.150
 4422TIP3    H134901   6.612   0.310   0.208
 4422TIP3    H234902   6.653   0.306   0.062
 4423TIP3   OH234903   6.207   0.657   1.186
 4423TIP3    H134904   6.141   0.657   1.256
 4423TIP3    H234905   6.208   0.748   1.155
 4424TIP3   OH234906   6.211   0.657   0.675
 4424TIP3    H134907   6.117   0.644   0.672
 4424TIP3    H234908   6.241   0.637   0.586
 4425TIP3   OH234909   6.754   0.685   0.544
 4425TIP3    H134910   6.731   0.773   0.512
 4425TIP3    H234911   6.825   0.657   0.487
 4426TIP3   OH234912   6.678   0.709   1.665
 4426TIP3    H134913   6.631   0.633   1.698
 4426TIP3    H234914   6.762   0.706   1.711
 4427TIP3   OH234915   6.850   0.643   0.814
 4427TIP3    H134916   6.804   0.699   0.752
 4427TIP3    H234917   6.887   0.573   0.761
 4428TIP3   OH234918   5.991   0.652   1.358
 4428TIP3    H134919   5.994   0.707   1.436
 4428TIP3    H234920   5.951   0.570   1.389
 4429TIP3   OH234921   6.363   0.416   0.066
 4429TIP3    H134922   6.328   0.378   0.147
 4429TIP3    H234923   6.349   0.510   0.075
 4430TIP3   OH234924   5.644   0.345   0.749
 4430TIP3    H134925   5.693   0.369   0.828
 4430TIP3    H234926   5.706   0.359   0.677
 4431TIP3   OH234927   5.776   0.460   0.284
 4431TIP3    H134928   5.850   0.487   0.231
 4431TIP3    H234929   5.720   0.538   0.289
 4432TIP3   OH234930   6.789   0.783   1.270
 4432TIP3    H134931   6.831   0.725   1.206
 4432TIP3    H234932   6.730   0.725   1.318
 4433TIP3   OH234933   6.519   0.406   0.770
 4433TIP3    H134934   6.429   0.396   0.798
 4433TIP3    H234935   6.571   0.370   0.842
 4434TIP3   OH234936   5.953   0.566   0.647
 4434TIP3    H134937   5.878   0.595   0.594
 4434TIP3    H234938   5.972   0.478   0.615
 4435TIP3   OH234939   6.282   0.578   0.422
 4435TIP3    H134940   6.377   0.573   0.434
 4435TIP3    H234941   6.270   0.615   0.335
 4436TIP3   OH234942   6.906   0.335   1.104
 4436TIP3    H134943   6.869   0.336   1.192
 4436TIP3    H234944   6.834   0.306   1.048
 4437TIP3   OH234945   6.215   0.645   0.164
 4437TIP3    H134946   6.124   0.649   0.135
 4437TIP3    H234947   6.261   0.708   0.108
 4438TIP3   OH234948   7.234   1.955   1.698
 4438TIP3    H134949   7.226   2.029   1.637
 4438TIP3    H234950   7.328   1.945   1.711
 4439TIP3   OH234951   6.034   1.107   1.682
 4439TIP3    H134952   6.100   1.130   1.747
 4439TIP3    H234953   5.950   1.131   1.722
 4440TIP3   OH234954   6.583   0.697   0.960
 4440TIP3    H134955   6.646   0.639   0.918
 4440TIP3    H234956   6.550   0.646   1.034
 4441TIP3   OH234957   6.066   0.305   0.603
 4441TIP3    H134958   6.029   0.222   0.634
 4441TIP3    H234959   6.099   0.285   0.515
 4442TIP3   OH234960   6.473   0.569   1.183
 4442TIP3    H134961   6.388   0.612   1.194
 4442TIP3    H234962   6.521   0.591   1.262
 4443TIP3   OH234963   6.524   1.130   0.360
 4443TIP3    H134964   6.452   1.089   0.312
 4443TIP3    H234965   6.484   1.159   0.443
 4444TIP3   OH234966   7.202   1.078   1.217
 4444TIP3    H134967   7.275   1.051   1.162
 4444TIP3    H234968   7.124   1.064   1.163
 4445TIP3   OH234969   6.948   0.378   0.208
 4445TIP3    H134970   6.861   0.357   0.174
 4445TIP3    H234971   6.946   0.472   0.225
 4446TIP3   OH234972   6.651   1.183   1.491
 4446TIP3    H134973   6.621   1.150   1.576
 4446TIP3    H234974   6.623   1.275   1.489
 4447TIP3   OH234975   6.962   0.622   0.365
 4447TIP3    H134976   7.052   0.604   0.392
 4447TIP3    H234977   6.967   0.706   0.320
 4448TIP3   OH234978   6.036   1.054   0.911
 4448TIP3    H134979   6.096   1.052   0.837
 4448TIP3    H234980   6.078   1.000   0.978
 4449TIP3   OH234981   6.748   1.279   0.289
 4449TIP3    H134982   6.706   1.364   0.302
 4449TIP3    H234983   6.678   1.215   0.303
 4450TIP3   OH234984   5.730   0.892   1.474
 4450TIP3    H134985   5.691   0.842   1.545
 4450TIP3    H234986   5.670   0.880   1.401
 4451TIP3   OH234987   6.453   0.876   1.688
 4451TIP3    H134988   6.387   0.838   1.630
 4451TIP3    H234989   6.533   0.827   1.669
 4452TIP3   OH234990   6.867   1.447   1.489
 4452TIP3    H134991   6.774   1.448   1.467
 4452TIP3    H234992   6.871   1.476   1.580
 4453TIP3   OH234993   7.274   1.510   0.342
 4453TIP3    H134994   7.221   1.458   0.402
 4453TIP3    H234995   7.316   1.446   0.284
 4454TIP3   OH234996   6.998   1.015   1.035
 4454TIP3    H134997   6.904   1.003   1.026
 4454TIP3    H234998   7.036   0.938   0.991
 4455TIP3   OH234999   6.296   1.438   0.701
 4455TIP3    H135000   6.316   1.523   0.661
 4455TIP3    H235001   6.204   1.443   0.724
 4456TIP3   OH235002   5.861   0.921   0.152
 4456TIP3    H135003   5.899   0.979   0.219
 4456TIP3    H235004   5.769   0.915   0.175
 4457TIP3   OH235005   6.385   1.202   0.583
 4457TIP3    H135006   6.366   1.287   0.622
 4457TIP3    H235007   6.329   1.141   0.632
 4458TIP3   OH235008   6.481   1.613   1.275
 4458TIP3    H135009   6.541   1.685   1.258
 4458TIP3    H235010   6.529   1.555   1.335
 4459TIP3   OH235011   6.282   1.715   0.585
 4459TIP3    H135012   6.189   1.714   0.608
 4459TIP3    H235013   6.315   1.797   0.622
 4460TIP3   OH235014   6.783   1.215   1.252
 4460TIP3    H135015   6.744   1.196   1.337
 4460TIP3    H235016   6.852   1.149   1.241
 4461TIP3   OH235017   7.009   1.326   0.152
 4461TIP3    H135018   7.067   1.278   0.211
 4461TIP3    H235019   6.922   1.313   0.188
 4462TIP3   OH235020   7.086   1.639   1.453
 4462TIP3    H135021   7.006   1.589   1.436
 4462TIP3    H235022   7.084   1.711   1.389
 4463TIP3   OH235023   5.876   0.394   1.421
 4463TIP3    H135024   5.783   0.413   1.403
 4463TIP3    H235025   5.875   0.316   1.476
 4464TIP3   OH235026   7.178   1.161   0.320
 4464TIP3    H135027   7.135   1.107   0.386
 4464TIP3    H235028   7.262   1.186   0.360
 4465TIP3   OH235029   5.874   1.563   1.257
 4465TIP3    H135030   5.904   1.486   1.306
 4465TIP3    H235031   5.853   1.628   1.324
 4466TIP3   OH235032   6.306   1.401   0.265
 4466TIP3    H135033   6.374   1.350   0.309
 4466TIP3    H235034   6.327   1.492   0.286
 4467TIP3   OH235035   5.964   1.108   0.328
 4467TIP3    H135036   5.892   1.151   0.375
 4467TIP3    H235037   6.007   1.180   0.281
 4468TIP3   OH235038   6.796   0.351   1.356
 4468TIP3    H135039   6.846   0.371   1.435
 4468TIP3    H235040   6.753   0.268   1.375
 4469TIP3   OH235041   6.871   0.293   0.465
 4469TIP3    H135042   6.887   0.324   0.376
 4469TIP3    H235043   6.900   0.366   0.521
 4470TIP3   OH235044   6.607   1.509   0.328
 4470TIP3    H135045   6.528   1.561   0.343
 4470TIP3    H235046   6.650   1.552   0.255
 4471TIP3   OH235047   6.538   0.516   0.516
 4471TIP3    H135048   6.612   0.577   0.520
 4471TIP3    H235049   6.525   0.487   0.606
 4472TIP3   OH235050   6.643   0.595   1.404
 4472TIP3    H135051   6.650   0.622   1.496
 4472TIP3    H235052   6.684   0.509   1.401
 4473TIP3   OH235053   6.646   0.210   0.598
 4473TIP3    H135054   6.626   0.286   0.653
 4473TIP3    H235055   6.725   0.235   0.550
 4474TIP3   OH235056   6.374   1.660   0.331
 4474TIP3    H135057   6.374   1.743   0.285
 4474TIP3    H235058   6.341   1.681   0.419
 4475TIP3   OH235059   6.236   0.328   0.305
 4475TIP3    H135060   6.222   0.413   0.347
 4475TIP3    H235061   6.322   0.299   0.337
 4476TIP3   OH235062   7.277   0.385   1.460
 4476TIP3    H135063   7.195   0.426   1.487
 4476TIP3    H235064   7.256   0.339   1.379
 4477TIP3   OH235065   7.088   0.771   0.914
 4477TIP3    H135066   7.002   0.734   0.891
 4477TIP3    H235067   7.130   0.703   0.967
 4478TIP3   OH235068   6.058   1.326   0.176
 4478TIP3    H135069   6.128   1.369   0.224
 4478TIP3    H235070   6.103   1.274   0.109
 4479TIP3   OH235071   5.933   0.654   0.102
 4479TIP3    H135072   5.908   0.745   0.117
 4479TIP3    H235073   5.888   0.629   0.022
 4480TIP3   OH235074   7.235   1.717   1.068
 4480TIP3    H135075   7.224   1.785   1.002
 4480TIP3    H235076   7.329   1.697   1.065
 4481TIP3   OH235077   5.913   0.115   0.969
 4481TIP3    H135078   5.961   0.079   0.895
 4481TIP3    H235079   5.923   0.050   1.039
 4482TIP3   OH235080   5.832   1.516   0.564
 4482TIP3    H135081   5.773   1.544   0.634
 4482TIP3    H235082   5.817   1.579   0.493
 4483TIP3   OH235083   5.814   1.804   1.723
 4483TIP3    H135084   5.861   1.799   1.806
 4483TIP3    H235085   5.723   1.783   1.745
 4484TIP3   OH235086   6.269   1.655   1.855
 4484TIP3    H135087   6.226   1.614   1.930
 4484TIP3    H235088   6.237   1.606   1.779
 4485TIP3   OH235089   6.730   1.617   0.113
 4485TIP3    H135090   6.695   1.580   0.032
 4485TIP3    H235091   6.821   1.638   0.092
 4486TIP3   OH235092   6.860   1.525   1.759
 4486TIP3    H135093   6.830   1.442   1.796
 4486TIP3    H235094   6.932   1.552   1.815
 4487TIP3   OH235095   7.093   1.571   0.045
 4487TIP3    H135096   7.061   1.488   0.080
 4487TIP3    H235097   7.188   1.562   0.044
 4488TIP3   OH235098   5.763   1.067   1.765
 4488TIP3    H135099   5.736   0.996   1.706
 4488TIP3    H235100   5.707   1.141   1.741
 4489TIP3   OH235101   6.217   1.154   0.032
 4489TIP3    H135102   6.254   1.115   0.112
 4489TIP3    H235103   6.242   1.093  -0.037
 4490TIP3   OH235104   6.490   1.151   1.732
 4490TIP3    H135105   6.429   1.199   1.676
 4490TIP3    H235106   6.469   1.059   1.718
 4491TIP3   OH235107   6.970   1.187   1.543
 4491TIP3    H135108   7.060   1.197   1.513
 4491TIP3    H235109   6.925   1.265   1.512
 4492TIP3   OH235110   5.894   0.814   1.812
 4492TIP3    H135111   5.984   0.799   1.782
 4492TIP3    H235112   5.884   0.910   1.810
 4493TIP3   OH235113   6.318   0.993   0.236
 4493TIP3    H135114   6.265   0.955   0.306
 4493TIP3    H235115   6.355   0.917   0.191
 4494TIP3   OH235116   6.263   0.776   1.501
 4494TIP3    H135117   6.184   0.829   1.496
 4494TIP3    H235118   6.321   0.813   1.435
 4495TIP3   OH235119   6.443   0.795   0.075
 4495TIP3    H135120   6.448   0.799  -0.020
 4495TIP3    H235121   6.532   0.780   0.104
 4496TIP3   OH235122   6.807   1.025   1.838
 4496TIP3    H135123   6.851   0.979   1.766
 4496TIP3    H235124   6.754   0.958   1.881
 4497TIP3   OH235125   6.303   0.516   1.578
 4497TIP3    H135126   6.314   0.461   1.501
 4497TIP3    H235127   6.291   0.605   1.543
 4498TIP3   OH235128   6.336   0.369   1.342
 4498TIP3    H135129   6.387   0.415   1.275
 4498TIP3    H235130   6.248   0.365   1.305
 4499TIP3   OH235131   6.454   0.881   1.338
 4499TIP3    H135132   6.548   0.894   1.349
 4499TIP3    H235133   6.423   0.963   1.299
 4500TIP3   OH235134   6.910   0.674   1.832
 4500TIP3    H135135   6.898   0.599   1.890
 4500TIP3    H235136   6.992   0.655   1.786
 4501TIP3   OH235137   7.007   0.948   1.663
 4501TIP3    H135138   6.982   1.029   1.618
 4501TIP3    H235139   7.101   0.956   1.677
 4502TIP3   OH235140   6.140   0.582   1.792
 4502TIP3    H135141   6.059   0.536   1.775
 4502TIP3    H235142   6.196   0.560   1.717
 4503TIP3   OH235143   6.407   0.116   1.426
 4503TIP3    H135144   6.390   0.206   1.400
 4503TIP3    H235145   6.321   0.075   1.429
 4504TIP3   OH235146   6.541   0.482   1.722
 4504TIP3    H135147   6.522   0.442   1.807
 4504TIP3    H235148   6.456   0.485   1.678
 4505TIP3   OH235149   6.808   0.421   1.643
 4505TIP3    H135150   6.717   0.424   1.673
 4505TIP3    H235151   6.855   0.377   1.714
 4506TIP3   OH235152   6.981   0.327   1.848
 4506TIP3    H135153   6.957   0.234   1.842
 4506TIP3    H235154   6.934   0.358   1.926
 4507TIP3   OH235155   5.921   0.412   1.775
 4507TIP3    H135156   5.914   0.344   1.709
 4507TIP3    H235157   5.974   0.372   1.845
 4508TIP3   OH235158   6.396   0.083   1.706
 4508TIP3    H135159   6.458   0.021   1.743
 4508TIP3    H235160   6.426   0.096   1.616
 4509TIP3   OH235161   6.417   1.870   0.154
 4509TIP3    H135162   6.508   1.883   0.181
 4509TIP3    H235163   6.414   1.899   0.063
 4510TIP3   OH235164   5.782   1.350   0.128
 4510TIP3    H135165   5.876   1.358   0.146
 4510TIP3    H235166   5.778   1.298   0.048
 4511TIP3   OH235167   5.660   1.852   0.662
 4511TIP3    H135168   5.602   1.817   0.594
 4511TIP3    H235169   5.679   1.778   0.718
 4512TIP3   OH235170   5.732   1.638   0.821
 4512TIP3    H135171   5.695   1.562   0.867
 4512TIP3    H235172   5.782   1.684   0.888
 4513TIP3   OH235173   7.257   1.441   1.344
 4513TIP3    H135174   7.211   1.515   1.384
 4513TIP3    H235175   7.223   1.436   1.255
 4514TIP3   OH235176   7.247   0.618   0.082
 4514TIP3    H135177   7.315   0.639   0.017
 4514TIP3    H235178   7.227   0.526   0.065
 4515TIP3   OH235179   7.186   0.789   0.653
 4515TIP3    H135180   7.172   0.695   0.641
 4515TIP3    H235181   7.166   0.804   0.746
 4516TIP3   OH235182   5.714   0.978   1.074
 4516TIP3    H135183   5.728   0.967   0.980
 4516TIP3    H235184   5.797   0.950   1.114
 4517TIP3   OH235185   7.276   1.008   1.679
 4517TIP3    H135186   7.319   0.926   1.653
 4517TIP3    H235187   7.278   1.061   1.599
 4518TIP3   OH235188   7.197   0.353   0.053
 4518TIP3    H135189   7.262   0.300   0.100
 4518TIP3    H235190   7.116   0.338   0.101
 4519TIP3   OH235191   7.200   0.522   0.484
 4519TIP3    H135192   7.216   0.433   0.514
 4519TIP3    H235193   7.277   0.544   0.431
 4520TIP3   OH235194   7.202   0.504   1.033
 4520TIP3    H135195   7.283   0.554   1.039
 4520TIP3    H235196   7.158   0.519   1.116
 4521TIP3   OH235197   7.281   0.725   1.363
 4521TIP3    H135198   7.186   0.741   1.361
 4521TIP3    H235199   7.305   0.711   1.271
 4522TIP3   OH235200   5.677   0.490   1.667
 4522TIP3    H135201   5.765   0.478   1.703
 4522TIP3    H235202   5.636   0.405   1.676
 4523TIP3   OH235203   7.215   0.255   0.577
 4523TIP3    H135204   7.184   0.253   0.668
 4523TIP3    H235205   7.164   0.188   0.532
 4524TIP3   OH235206   5.803   0.367   0.977
 4524TIP3    H135207   5.836   0.277   0.980
 4524TIP3    H235208   5.880   0.422   0.993
 4525TIP3   OH235209   5.631   0.644   1.044
 4525TIP3    H135210   5.703   0.642   0.981
 4525TIP3    H235211   5.655   0.713   1.106
 4526TIP3   OH235212   5.686   0.245   0.433
 4526TIP3    H135213   5.592   0.256   0.444
 4526TIP3    H235214   5.715   0.326   0.391
 4527TIP3   OH235215   7.149   1.737   0.717
 4527TIP3    H135216   7.228   1.686   0.731
 4527TIP3    H235217   7.159   1.813   0.774
 4528TIP3   OH235218   5.724   0.119   1.299
 4528TIP3    H135219   5.651   0.103   1.359
 4528TIP3    H235220   5.691   0.185   1.239
 4529TIP3   OH235221   5.897   1.452   1.696
 4529TIP3    H135222   5.812   1.488   1.674
 4529TIP3    H235223   5.900   1.454   1.792
 4530TIP3   OH235224   6.219   1.580   1.356
 4530TIP3    H135225   6.181   1.664   1.332
 4530TIP3    H235226   6.312   1.587   1.333
 4531TIP3   OH235227   6.646   1.662   1.655
 4531TIP3    H135228   6.718   1.617   1.699
 4531TIP3    H235229   6.684   1.745   1.627
 4532TIP3   OH235230   6.840   1.852   1.586
 4532TIP3    H135231   6.906   1.803   1.536
 4532TIP3    H235232   6.885   1.873   1.668
 4533TIP3   OH235233   5.915   1.888   1.347
 4533TIP3    H135234   5.839   1.918   1.298
 4533TIP3    H235235   5.898   1.914   1.438
 4534TIP3   OH235236   6.177   1.845   1.280
 4534TIP3    H135237   6.086   1.859   1.308
 4534TIP3    H235238   6.183   1.888   1.195
 4535TIP3   OH235239   6.629   1.834   1.188
 4535TIP3    H135240   6.573   1.871   1.120
 4535TIP3    H235241   6.636   1.903   1.254
 4536TIP3   OH235242   6.851   1.701   1.282
 4536TIP3    H135243   6.774   1.748   1.250
 4536TIP3    H235244   6.924   1.761   1.266
 4537TIP3   OH235245   7.086   1.844   1.262
 4537TIP3    H135246   7.109   1.937   1.251
 4537TIP3    H235247   7.141   1.798   1.199
 4538TIP3   OH235248   5.896   1.740   1.027
 4538TIP3    H135249   5.874   1.699   1.111
 4538TIP3    H235250   5.973   1.692   0.996
 4539TIP3   OH235251   6.105   1.602   0.918
 4539TIP3    H135252   6.089   1.511   0.942
 4539TIP3    H235253   6.191   1.622   0.957
 4540TIP3   OH235254   6.364   1.639   1.024
 4540TIP3    H135255   6.375   1.549   0.995
 4540TIP3    H235256   6.391   1.639   1.116
 4541TIP3   OH235257   6.693   0.254   0.935
 4541TIP3    H135258   6.619   0.199   0.961
 4541TIP3    H235259   6.758   0.193   0.899
 4542TIP3   OH235260   7.146   0.020   0.963
 4542TIP3    H135261   7.222   0.022   0.905
 4542TIP3    H235262   7.076   0.064   0.914
 4543TIP3   OH235263   5.984   0.050   0.682
 4543TIP3    H135264   5.903   0.018   0.642
 4543TIP3    H235265   6.011  -0.021   0.741
 4544TIP3   OH235266   5.774   0.137   0.179
 4544TIP3    H135267   5.853   0.189   0.173
 4544TIP3    H235268   5.728   0.171   0.256
 4545TIP3   OH235269   6.408   0.112   0.702
 4545TIP3    H135270   6.494   0.129   0.663
 4545TIP3    H235271   6.424   0.110   0.797
 4546TIP3   OH235272   6.907   0.119   0.818
 4546TIP3    H135273   6.893   0.162   0.733
 4546TIP3    H235274   6.918   0.026   0.796
 4547TIP3   OH235275   7.047   0.079   0.436
 4547TIP3    H135276   6.978   0.145   0.433
 4547TIP3    H235277   7.003  -0.002   0.410
 4548TIP3   OH235278   5.795   1.696   0.362
 4548TIP3    H135279   5.719   1.679   0.307
 4548TIP3    H235280   5.808   1.791   0.357
 4549TIP3   OH235281   6.015   0.263   0.149
 4549TIP3    H135282   6.046   0.215   0.072
 4549TIP3    H235283   6.094   0.278   0.201
 4550TIP3   OH235284   6.496   0.282   0.373
 4550TIP3    H135285   6.541   0.224   0.434
 4550TIP3    H235286   6.512   0.370   0.408
 4551TIP3   OH235287   6.684   1.863   0.221
 4551TIP3    H135288   6.766   1.908   0.196
 4551TIP3    H235289   6.692   1.776   0.183
 4552TIP3   OH235290   5.893   0.189   1.622
 4552TIP3    H135291   5.829   0.138   1.671
 4552TIP3    H235292   5.978   0.152   1.647
 4553TIP3   OH235293   6.127   0.090   1.730
 4553TIP3    H135294   6.221   0.112   1.731
 4553TIP3    H235295   6.124   0.002   1.693
 4554TIP3   OH235296   6.009   1.806   0.098
 4554TIP3    H135297   5.927   1.786   0.141
 4554TIP3    H235298   6.054   1.722   0.090
 4555TIP3   OH235299   6.891   0.068   1.822
 4555TIP3    H135300   6.805   0.052   1.861
 4555TIP3    H235301   6.945  -0.005   1.852
 4556TIP3   OH235302   7.222   1.678   1.689
 4556TIP3    H135303   7.187   1.642   1.608
 4556TIP3    H235304   7.218   1.773   1.676
 4557TIP3   OH235305   1.192   2.906   0.656
 4557TIP3    H135306   1.181   3.001   0.657
 4557TIP3    H235307   1.117   2.874   0.606
 4558TIP3   OH235308   1.070   2.823   1.047
 4558TIP3    H135309   1.088   2.788   1.134
 4558TIP3    H235310   1.017   2.756   1.004
 4559TIP3   OH235311   0.296   2.759   1.195
 4559TIP3    H135312   0.292   2.683   1.254
 4559TIP3    H235313   0.352   2.822   1.241
 4560TIP3   OH235314   1.452   3.125   0.879
 4560TIP3    H135315   1.414   3.053   0.929
 4560TIP3    H235316   1.471   3.193   0.944
 4561TIP3   OH235317   0.409   3.223   0.991
 4561TIP3    H135318   0.380   3.134   0.973
 4561TIP3    H235319   0.501   3.213   1.018
 4562TIP3   OH235320   0.111   2.598   0.563
 4562TIP3    H135321   0.085   2.677   0.611
 4562TIP3    H235322   0.032   2.544   0.561
 4563TIP3   OH235323   0.166   2.806   0.800
 4563TIP3    H135324   0.183   2.719   0.836
 4563TIP3    H235325   0.242   2.858   0.826
 4564TIP3   OH235326   1.182   3.616   0.907
 4564TIP3    H135327   1.221   3.553   0.847
 4564TIP3    H235328   1.149   3.563   0.980
 4565TIP3   OH235329   0.917   3.075   1.073
 4565TIP3    H135330   0.955   2.996   1.035
 4565TIP3    H235331   0.982   3.105   1.137
 4566TIP3   OH235332   1.791   2.222   1.162
 4566TIP3    H135333   1.796   2.281   1.237
 4566TIP3    H235334   1.848   2.261   1.096
 4567TIP3   OH235335   1.224   2.486   1.081
 4567TIP3    H135336   1.238   2.392   1.092
 4567TIP3    H235337   1.211   2.498   0.987
 4568TIP3   OH235338   0.582   2.303   0.807
 4568TIP3    H135339   0.588   2.390   0.767
 4568TIP3    H235340   0.529   2.252   0.745
 4569TIP3   OH235341   1.358   2.350   0.652
 4569TIP3    H135342   1.390   2.313   0.734
 4569TIP3    H235343   1.434   2.393   0.613
 4570TIP3   OH235344   0.211   2.550   0.899
 4570TIP3    H135345   0.282   2.512   0.949
 4570TIP3    H235346   0.222   2.515   0.811
 4571TIP3   OH235347   0.717   2.708   0.842
 4571TIP3    H135348   0.796   2.667   0.878
 4571TIP3    H235349   0.678   2.641   0.787
 4572TIP3   OH235350   1.798   2.357   1.407
 4572TIP3    H135351   1.742   2.432   1.386
 4572TIP3    H235352   1.835   2.377   1.493
 4573TIP3   OH235353   0.427   2.219   1.235
 4573TIP3    H135354   0.399   2.278   1.164
 4573TIP3    H235355   0.359   2.228   1.302
 4574TIP3   OH235356   1.155   3.167   0.564
 4574TIP3    H135357   1.138   3.164   0.470
 4574TIP3    H235358   1.107   3.244   0.594
 4575TIP3   OH235359   0.695   2.990   1.217
 4575TIP3    H135360   0.643   3.059   1.258
 4575TIP3    H235361   0.766   3.037   1.172
 4576TIP3   OH235362   1.452   2.282   0.895
 4576TIP3    H135363   1.385   2.247   0.955
 4576TIP3    H235364   1.506   2.338   0.950
 4577TIP3   OH235365   0.406   2.384   1.012
 4577TIP3    H135366   0.459   2.443   1.065
 4577TIP3    H235367   0.467   2.349   0.947
 4578TIP3   OH235368   0.548   3.196   1.332
 4578TIP3    H135369   0.552   3.291   1.321
 4578TIP3    H235370   0.460   3.179   1.363
 4579TIP3   OH235371   0.099   3.141   0.402
 4579TIP3    H135372   0.104   3.177   0.314
 4579TIP3    H235373   0.127   3.213   0.459
 4580TIP3   OH235374   1.486   3.330   1.071
 4580TIP3    H135375   1.392   3.331   1.092
 4580TIP3    H235376   1.506   3.422   1.051
 4581TIP3   OH235377   1.525   2.127   1.201
 4581TIP3    H135378   1.464   2.189   1.161
 4581TIP3    H235379   1.611   2.161   1.177
 4582TIP3   OH235380   0.780   1.913   0.984
 4582TIP3    H135381   0.753   1.822   0.984
 4582TIP3    H235382   0.703   1.961   1.015
 4583TIP3   OH235383   1.310   3.471   0.706
 4583TIP3    H135384   1.351   3.388   0.684
 4583TIP3    H235385   1.381   3.535   0.705
 4584TIP3   OH235386   1.419   3.230   0.626
 4584TIP3    H135387   1.333   3.196   0.604
 4584TIP3    H235388   1.442   3.188   0.709
 4585TIP3   OH235389   1.587   3.122   1.436
 4585TIP3    H135390   1.582   3.061   1.362
 4585TIP3    H235391   1.601   3.207   1.395
 4586TIP3   OH235392   1.039   2.815   0.441
 4586TIP3    H135393   0.969   2.879   0.421
 4586TIP3    H235394   1.099   2.823   0.367
 4587TIP3   OH235395   1.044   2.656   0.127
 4587TIP3    H135396   1.110   2.691   0.188
 4587TIP3    H235397   1.096   2.613   0.059
 4588TIP3   OH235398   1.768   2.769   1.264
 4588TIP3    H135399   1.695   2.831   1.263
 4588TIP3    H235400   1.829   2.803   1.199
 4589TIP3   OH235401   1.402   2.824   0.506
 4589TIP3    H135402   1.336   2.856   0.566
 4589TIP3    H235403   1.471   2.787   0.562
 4590TIP3   OH235404   1.361   2.633   1.424
 4590TIP3    H135405   1.367   2.698   1.494
 4590TIP3    H235406   1.289   2.664   1.369
 4591TIP3   OH235407   0.562   2.895   0.709
 4591TIP3    H135408   0.536   2.852   0.627
 4591TIP3    H235409   0.620   2.832   0.752
 4592TIP3   OH235410   0.705   3.250   0.974
 4592TIP3    H135411   0.706   3.253   0.878
 4592TIP3    H235412   0.779   3.195   0.997
 4593TIP3   OH235413   0.576   2.794   1.066
 4593TIP3    H135414   0.636   2.776   0.994
 4593TIP3    H235415   0.621   2.861   1.118
 4594TIP3   OH235416   1.228   3.334   1.154
 4594TIP3    H135417   1.208   3.410   1.209
 4594TIP3    H235418   1.183   3.261   1.198
 4595TIP3   OH235419   0.698   3.243   1.563
 4595TIP3    H135420   0.633   3.302   1.602
 4595TIP3    H235421   0.655   3.210   1.484
 4596TIP3   OH235422   1.269   2.754   0.275
 4596TIP3    H135423   1.313   2.784   0.355
 4596TIP3    H235424   1.313   2.802   0.204
 4597TIP3   OH235425   0.406   2.845   1.475
 4597TIP3    H135426   0.404   2.916   1.539
 4597TIP3    H235427   0.314   2.819   1.466
 4598TIP3   OH235428   1.052   3.419   0.621
 4598TIP3    H135429   1.136   3.445   0.660
 4598TIP3    H235430   1.018   3.499   0.582
 4599TIP3   OH235431   0.496   3.422   1.636
 4599TIP3    H135432   0.495   3.443   1.543
 4599TIP3    H235433   0.404   3.402   1.657
 4600TIP3   OH235434   1.644   1.924   0.271
 4600TIP3    H135435   1.554   1.926   0.239
 4600TIP3    H235436   1.688   1.995   0.224
 4601TIP3   OH235437   0.472   2.791   0.454
 4601TIP3    H135438   0.411   2.856   0.418
 4601TIP3    H235439   0.418   2.715   0.473
 4602TIP3   OH235440   1.758   3.369   0.125
 4602TIP3    H135441   1.780   3.463   0.129
 4602TIP3    H235442   1.843   3.325   0.126
 4603TIP3   OH235443   0.154   3.003   1.332
 4603TIP3    H135444   0.074   3.012   1.280
 4603TIP3    H235445   0.146   2.917   1.374
 4604TIP3   OH235446   0.083   3.351   0.981
 4604TIP3    H135447   0.163   3.313   1.019
 4604TIP3    H235448   0.012   3.311   1.031
 4605TIP3   OH235449   1.876   3.351   1.656
 4605TIP3    H135450   1.849   3.259   1.653
 4605TIP3    H235451   1.798   3.398   1.683
 4606TIP3   OH235452   0.942   3.358   1.503
 4606TIP3    H135453   0.947   3.435   1.560
 4606TIP3    H235454   0.858   3.318   1.524
 4607TIP3   OH235455   1.023   3.692   0.483
 4607TIP3    H135456   1.024   3.723   0.392
 4607TIP3    H235457   0.993   3.767   0.534
 4608TIP3   OH235458   0.364   3.581   0.675
 4608TIP3    H135459   0.383   3.548   0.763
 4608TIP3    H235460   0.310   3.513   0.635
 4609TIP3   OH235461   1.326   3.579   0.165
 4609TIP3    H135462   1.351   3.665   0.132
 4609TIP3    H235463   1.325   3.590   0.260
 4610TIP3   OH235464   1.292   3.636   0.440
 4610TIP3    H135465   1.199   3.644   0.463
 4610TIP3    H235466   1.332   3.596   0.517
 4611TIP3   OH235467   1.544   2.536   1.666
 4611TIP3    H135468   1.505   2.622   1.677
 4611TIP3    H235469   1.478   2.485   1.618
 4612TIP3   OH235470   0.300   3.201   1.448
 4612TIP3    H135471   0.315   3.165   1.536
 4612TIP3    H235472   0.242   3.137   1.406
 4613TIP3   OH235473   0.540   2.027   1.068
 4613TIP3    H135474   0.462   2.020   1.013
 4613TIP3    H235475   0.518   2.096   1.131
 4614TIP3   OH235476   1.029   1.961   1.418
 4614TIP3    H135477   1.057   1.937   1.506
 4614TIP3    H235478   0.933   1.966   1.424
 4615TIP3   OH235479   1.336   2.382   1.540
 4615TIP3    H135480   1.251   2.369   1.581
 4615TIP3    H235481   1.326   2.464   1.490
 4616TIP3   OH235482   1.413   2.901   0.085
 4616TIP3    H135483   1.431   2.963   0.015
 4616TIP3    H235484   1.455   2.939   0.162
 4617TIP3   OH235485   0.994   2.205   0.138
 4617TIP3    H135486   0.931   2.192   0.209
 4617TIP3    H235487   0.941   2.205   0.059
 4618TIP3   OH235488   0.550   2.545   1.183
 4618TIP3    H135489   0.490   2.547   1.257
 4618TIP3    H235490   0.550   2.634   1.149
 4619TIP3   OH235491   0.584   2.541   0.670
 4619TIP3    H135492   0.489   2.530   0.672
 4619TIP3    H235493   0.609   2.520   0.580
 4620TIP3   OH235494   1.113   2.570   0.542
 4620TIP3    H135495   1.082   2.656   0.514
 4620TIP3    H235496   1.192   2.556   0.490
 4621TIP3   OH235497   1.013   2.618   1.669
 4621TIP3    H135498   0.968   2.547   1.714
 4621TIP3    H235499   1.085   2.642   1.727
 4622TIP3   OH235500   1.194   2.518   0.813
 4622TIP3    H135501   1.149   2.575   0.750
 4622TIP3    H235502   1.240   2.454   0.759
 4623TIP3   OH235503   0.353   2.529   1.378
 4623TIP3    H135504   0.375   2.556   1.468
 4623TIP3    H235505   0.309   2.444   1.389
 4624TIP3   OH235506   0.708   2.301   0.066
 4624TIP3    H135507   0.682   2.251   0.143
 4624TIP3    H235508   0.676   2.390   0.083
 4625TIP3   OH235509   0.066   2.312   0.715
 4625TIP3    H135510   0.089   2.295   0.806
 4625TIP3    H235511   0.099   2.236   0.667
 4626TIP3   OH235512   0.079   2.402   0.292
 4626TIP3    H135513   0.169   2.427   0.270
 4626TIP3    H235514   0.026   2.443   0.224
 4627TIP3   OH235515   1.133   2.663   1.267
 4627TIP3    H135516   1.169   2.601   1.203
 4627TIP3    H235517   1.073   2.611   1.320
 4628TIP3   OH235518   0.859   2.262   0.769
 4628TIP3    H135519   0.767   2.271   0.794
 4628TIP3    H235520   0.902   2.232   0.849
 4629TIP3   OH235521   0.328   2.460   0.652
 4629TIP3    H135522   0.250   2.494   0.609
 4629TIP3    H235523   0.332   2.368   0.624
 4630TIP3   OH235524   0.644   2.459   0.415
 4630TIP3    H135525   0.739   2.460   0.420
 4630TIP3    H235526   0.624   2.495   0.329
 4631TIP3   OH235527   1.247   2.209   1.070
 4631TIP3    H135528   1.227   2.196   1.163
 4631TIP3    H235529   1.173   2.170   1.024
 4632TIP3   OH235530   0.565   2.522   0.161
 4632TIP3    H135531   0.471   2.526   0.144
 4632TIP3    H235532   0.602   2.592   0.107
 4633TIP3   OH235533   1.636   3.767   1.748
 4633TIP3    H135534   1.570   3.832   1.724
 4633TIP3    H235535   1.632   3.763   1.844
 4634TIP3   OH235536   0.364   3.039   1.681
 4634TIP3    H135537   0.431   3.039   1.750
 4634TIP3    H235538   0.281   3.029   1.727
 4635TIP3   OH235539   0.930   2.580   0.965
 4635TIP3    H135540   1.006   2.528   0.939
 4635TIP3    H235541   0.894   2.533   1.040
 4636TIP3   OH235542   0.424   2.192   0.604
 4636TIP3    H135543   0.378   2.112   0.632
 4636TIP3    H235544   0.450   2.173   0.514
 4637TIP3   OH235545   0.813   2.455   1.190
 4637TIP3    H135546   0.727   2.497   1.193
 4637TIP3    H235547   0.860   2.491   1.266
 4638TIP3   OH235548   0.858   3.012   0.363
 4638TIP3    H135549   0.785   2.971   0.317
 4638TIP3    H235550   0.821   3.043   0.446
 4639TIP3   OH235551   1.575   2.961   1.210
 4639TIP3    H135552   1.634   3.019   1.162
 4639TIP3    H235553   1.500   2.950   1.151
 4640TIP3   OH235554   1.247   2.289   0.178
 4640TIP3    H135555   1.160   2.255   0.160
 4640TIP3    H235556   1.258   2.361   0.116
 4641TIP3   OH235557   1.007   3.040   1.513
 4641TIP3    H135558   1.037   2.992   1.590
 4641TIP3    H235559   0.979   3.125   1.546
 4642TIP3   OH235560   1.350   2.500   0.375
 4642TIP3    H135561   1.427   2.531   0.422
 4642TIP3    H235562   1.324   2.575   0.321
 4643TIP3   OH235563   0.383   2.940   0.919
 4643TIP3    H135564   0.445   2.938   0.846
 4643TIP3    H235565   0.424   2.885   0.986
 4644TIP3   OH235566   1.085   3.157   0.288
 4644TIP3    H135567   1.044   3.243   0.296
 4644TIP3    H235568   1.014   3.095   0.305
 4645TIP3   OH235569   0.139   2.759   1.465
 4645TIP3    H135570   0.154   2.730   1.555
 4645TIP3    H235571   0.076   2.697   1.429
 4646TIP3   OH235572   0.796   2.798   1.675
 4646TIP3    H135573   0.731   2.746   1.629
 4646TIP3    H235574   0.877   2.748   1.668
 4647TIP3   OH235575   1.221   3.312   1.507
 4647TIP3    H135576   1.127   3.323   1.493
 4647TIP3    H235577   1.233   3.323   1.601
 4648TIP3   OH235578   1.768   2.559   0.316
 4648TIP3    H135579   1.702   2.536   0.251
 4648TIP3    H235580   1.792   2.650   0.296
 4649TIP3   OH235581   1.799   3.090   1.602
 4649TIP3    H135582   1.713   3.106   1.564
 4649TIP3    H235583   1.857   3.079   1.526
 4650TIP3   OH235584   1.646   3.409   0.386
 4650TIP3    H135585   1.587   3.343   0.422
 4650TIP3    H235586   1.667   3.378   0.298
 4651TIP3   OH235587   1.359   2.904   1.030
 4651TIP3    H135588   1.264   2.895   1.031
 4651TIP3    H235589   1.390   2.823   0.988
 4652TIP3   OH235590   0.636   3.322   0.703
 4652TIP3    H135591   0.657   3.407   0.664
 4652TIP3    H235592   0.542   3.325   0.718
 4653TIP3   OH235593   0.191   2.804   0.139
 4653TIP3    H135594   0.235   2.855   0.207
 4653TIP3    H235595   0.102   2.791   0.174
 4654TIP3   OH235596   0.723   3.087   0.586
 4654TIP3    H135597   0.705   3.172   0.624
 4654TIP3    H235598   0.668   3.026   0.636
 4655TIP3   OH235599   0.828   3.500   1.281
 4655TIP3    H135600   0.886   3.571   1.255
 4655TIP3    H235601   0.881   3.445   1.338
 4656TIP3   OH235602   0.626   3.584   0.589
 4656TIP3    H135603   0.533   3.595   0.611
 4656TIP3    H235604   0.669   3.660   0.628
 4657TIP3   OH235605   1.119   3.097   1.267
 4657TIP3    H135606   1.077   3.078   1.350
 4657TIP3    H235607   1.200   3.046   1.269
 4658TIP3   OH235608   1.352   3.197   0.163
 4658TIP3    H135609   1.410   3.151   0.223
 4658TIP3    H235610   1.266   3.194   0.204
 4659TIP3   OH235611   1.423   3.526   1.463
 4659TIP3    H135612   1.344   3.474   1.446
 4659TIP3    H235613   1.418   3.598   1.400
 4660TIP3   OH235614   1.836   3.633   0.169
 4660TIP3    H135615   1.900   3.704   0.164
 4660TIP3    H235616   1.753   3.678   0.187
 4661TIP3   OH235617   0.238   2.272   1.434
 4661TIP3    H135618   0.162   2.312   1.477
 4661TIP3    H235619   0.255   2.192   1.484
 4662TIP3   OH235620   1.510   3.013   0.321
 4662TIP3    H135621   1.465   2.968   0.393
 4662TIP3    H235622   1.600   3.023   0.352
 4663TIP3   OH235623   0.226   3.465   1.259
 4663TIP3    H135624   0.251   3.378   1.291
 4663TIP3    H235625   0.199   3.512   1.338
 4664TIP3   OH235626   0.656   3.277   0.271
 4664TIP3    H135627   0.729   3.227   0.309
 4664TIP3    H235628   0.674   3.367   0.296
 4665TIP3   OH235629   0.307   2.974   0.326
 4665TIP3    H135630   0.230   3.016   0.366
 4665TIP3    H235631   0.364   3.047   0.301
 4666TIP3   OH235632   1.175   2.185   1.332
 4666TIP3    H135633   1.164   2.252   1.400
 4666TIP3    H235634   1.118   2.113   1.360
 4667TIP3   OH235635   1.197   2.215   0.476
 4667TIP3    H135636   1.145   2.276   0.424
 4667TIP3    H235637   1.235   2.269   0.545
 4668TIP3   OH235638   0.938   3.383   0.309
 4668TIP3    H135639   0.870   3.440   0.346
 4668TIP3    H235640   0.983   3.438   0.245
 4669TIP3   OH235641   0.905   2.393   0.524
 4669TIP3    H135642   0.972   2.461   0.534
 4669TIP3    H235643   0.884   2.367   0.613
 4670TIP3   OH235644   0.980   2.489   1.427
 4670TIP3    H135645   0.991   2.546   1.503
 4670TIP3    H235646   0.928   2.416   1.459
 4671TIP3   OH235647   0.968   2.079   0.592
 4671TIP3    H135648   0.935   2.145   0.654
 4671TIP3    H235649   1.050   2.116   0.559
 4672TIP3   OH235650   0.704   3.539   0.331
 4672TIP3    H135651   0.721   3.626   0.294
 4672TIP3    H235652   0.675   3.557   0.421
 4673TIP3   OH235653   0.565   2.211   0.305
 4673TIP3    H135654   0.564   2.298   0.344
 4673TIP3    H235655   0.650   2.175   0.329
 4674TIP3   OH235656   1.565   2.228   1.509
 4674TIP3    H135657   1.507   2.297   1.477
 4674TIP3    H235658   1.650   2.247   1.469
 4675TIP3   OH235659   1.437   2.653   0.914
 4675TIP3    H135660   1.350   2.616   0.903
 4675TIP3    H235661   1.482   2.592   0.973
 4676TIP3   OH235662   0.428   3.262   0.130
 4676TIP3    H135663   0.489   3.269   0.203
 4676TIP3    H235664   0.453   3.181   0.085
 4677TIP3   OH235665   0.289   2.533   0.123
 4677TIP3    H135666   0.253   2.621   0.113
 4677TIP3    H235667   0.245   2.480   0.057
 4678TIP3   OH235668   1.572   3.597   1.063
 4678TIP3    H135669   1.560   3.667   0.999
 4678TIP3    H235670   1.666   3.598   1.082
 4679TIP3   OH235671   0.289   2.007   0.948
 4679TIP3    H135672   0.294   1.993   0.854
 4679TIP3    H235673   0.259   1.924   0.984
 4680TIP3   OH235674   0.200   3.395   0.537
 4680TIP3    H135675   0.114   3.414   0.574
 4680TIP3    H235676   0.203   3.446   0.456
 4681TIP3   OH235677   0.183   3.711   1.674
 4681TIP3    H135678   0.196   3.724   1.768
 4681TIP3    H235679   0.115   3.644   1.669
 4682TIP3   OH235680   1.067   3.517   0.110
 4682TIP3    H135681   1.050   3.482   0.023
 4682TIP3    H235682   1.162   3.521   0.117
 4683TIP3   OH235683   1.261   3.350   1.780
 4683TIP3    H135684   1.289   3.279   1.839
 4683TIP3    H235685   1.314   3.425   1.807
 4684TIP3   OH235686   1.496   3.396   8.462
 4684TIP3    H135687   1.438   3.409   8.538
 4684TIP3    H235688   1.584   3.401   8.498
 4685TIP3   OH235689   0.138   3.003   1.839
 4685TIP3    H135690   0.121   2.912   1.817
 4685TIP3    H235691   0.052   3.045   1.835
 4686TIP3   OH235692   0.555   3.036   0.038
 4686TIP3    H135693   0.587   2.991   0.116
 4686TIP3    H235694   0.575   2.975  -0.034
 4687TIP3   OH235695   0.759   3.061   1.762
 4687TIP3    H135696   0.746   3.107   1.679
 4687TIP3    H235697   0.785   2.973   1.736
 4688TIP3   OH235698   1.332   3.049   1.514
 4688TIP3    H135699   1.423   3.074   1.498
 4688TIP3    H235700   1.284   3.131   1.508
 4689TIP3   OH235701   0.175   2.715   1.730
 4689TIP3    H135702   0.254   2.662   1.718
 4689TIP3    H235703   0.121   2.662   1.789
 4690TIP3   OH235704   0.648   2.876   0.244
 4690TIP3    H135705   0.599   2.834   0.315
 4690TIP3    H235706   0.687   2.803   0.195
 4691TIP3   OH235707   0.615   2.665   1.489
 4691TIP3    H135708   0.543   2.727   1.484
 4691TIP3    H235709   0.680   2.698   1.427
 4692TIP3   OH235710   0.773   2.693   0.073
 4692TIP3    H135711   0.775   2.686  -0.022
 4692TIP3    H235712   0.863   2.680   0.100
 4693TIP3   OH235713   1.107   2.930   1.754
 4693TIP3    H135714   1.201   2.942   1.748
 4693TIP3    H235715   1.095   2.872   1.829
 4694TIP3   OH235716   1.713   3.004   0.015
 4694TIP3    H135717   1.669   3.029  -0.066
 4694TIP3    H235718   1.715   3.084   0.067
 4695TIP3   OH235719   0.691   2.404   1.544
 4695TIP3    H135720   0.661   2.343   1.477
 4695TIP3    H235721   0.648   2.487   1.522
 4696TIP3   OH235722   0.687   2.228   1.321
 4696TIP3    H135723   0.731   2.290   1.264
 4696TIP3    H235724   0.596   2.229   1.292
 4697TIP3   OH235725   0.814   2.770   1.334
 4697TIP3    H135726   0.891   2.805   1.378
 4697TIP3    H235727   0.773   2.846   1.293
 4698TIP3   OH235728   1.319   2.565   1.871
 4698TIP3    H135729   1.386   2.498   1.859
 4698TIP3    H235730   1.368   2.643   1.899
 4699TIP3   OH235731   1.390   2.808   1.632
 4699TIP3    H135732   1.353   2.887   1.595
 4699TIP3    H235733   1.481   2.830   1.651
 4700TIP3   OH235734   0.380   2.535   1.671
 4700TIP3    H135735   0.359   2.445   1.697
 4700TIP3    H235736   0.464   2.552   1.714
 4701TIP3   OH235737   0.752   1.966   1.395
 4701TIP3    H135738   0.728   2.057   1.378
 4701TIP3    H235739   0.677   1.915   1.363
 4702TIP3   OH235740   0.883   2.387   1.730
 4702TIP3    H135741   0.844   2.373   1.816
 4702TIP3    H235742   0.809   2.386   1.669
 4703TIP3   OH235743   1.117   2.261   1.660
 4703TIP3    H135744   1.038   2.312   1.674
 4703TIP3    H235745   1.109   2.187   1.720
 4704TIP3   OH235746   1.306   2.107   1.850
 4704TIP3    H135747   1.299   2.015   1.874
 4704TIP3    H235748   1.265   2.154   1.923
 4705TIP3   OH235749   0.295   2.275   1.734
 4705TIP3    H135750   0.309   2.188   1.697
 4705TIP3    H235751   0.306   2.264   1.828
 4706TIP3   OH235752   0.748   1.904   1.671
 4706TIP3    H135753   0.794   1.821   1.679
 4706TIP3    H235754   0.746   1.921   1.577
 4707TIP3   OH235755   0.887   2.099   1.824
 4707TIP3    H135756   0.836   2.026   1.789
 4707TIP3    H235757   0.821   2.159   1.860
 4708TIP3   OH235758   0.777   3.768   0.187
 4708TIP3    H135759   0.872   3.773   0.195
 4708TIP3    H235760   0.749   3.859   0.175
 4709TIP3   OH235761   0.150   3.216   0.144
 4709TIP3    H135762   0.239   3.248   0.132
 4709TIP3    H235763   0.100   3.258   0.074
 4710TIP3   OH235764   0.031   3.791   0.612
 4710TIP3    H135765  -0.003   3.774   0.525
 4710TIP3    H235766   0.021   3.708   0.659
 4711TIP3   OH235767   0.067   3.556   0.802
 4711TIP3    H135768   0.065   3.470   0.845
 4711TIP3    H235769   0.124   3.609   0.857
 4712TIP3   OH235770   1.838   3.608   1.155
 4712TIP3    H135771   1.834   3.587   1.249
 4712TIP3    H235772   1.864   3.701   1.153
 4713TIP3   OH235773   1.815   3.523   1.417
 4713TIP3    H135774   1.765   3.457   1.369
 4713TIP3    H235775   1.765   3.538   1.497
 4714TIP3   OH235776   1.773   2.995   0.422
 4714TIP3    H135777   1.842   3.061   0.427
 4714TIP3    H235778   1.789   2.938   0.497
 4715TIP3   OH235779   1.828   2.800   0.617
 4715TIP3    H135780   1.743   2.774   0.654
 4715TIP3    H235781   1.883   2.817   0.693
 4716TIP3   OH235782   1.803   3.100   1.131
 4716TIP3    H135783   1.857   3.035   1.086
 4716TIP3    H235784   1.826   3.183   1.089
 4717TIP3   OH235785   1.611   3.368   1.317
 4717TIP3    H135786   1.543   3.418   1.362
 4717TIP3    H235787   1.575   3.352   1.230
 4718TIP3   OH235788   1.805   2.818   0.216
 4718TIP3    H135789   1.761   2.863   0.144
 4718TIP3    H235790   1.794   2.877   0.291
 4719TIP3   OH235791   1.593   2.493   0.110
 4719TIP3    H135792   1.661   2.512   0.046
 4719TIP3    H235793   1.585   2.397   0.108
 4720TIP3   OH235794   1.576   2.686   0.678
 4720TIP3    H135795   1.591   2.592   0.662
 4720TIP3    H235796   1.532   2.689   0.763
 4721TIP3   OH235797   0.079   2.877   1.059
 4721TIP3    H135798   0.096   2.880   0.965
 4721TIP3    H235799   0.164   2.858   1.098
 4722TIP3   OH235800   1.654   2.856   1.648
 4722TIP3    H135801   1.718   2.784   1.645
 4722TIP3    H235802   1.706   2.935   1.653
 4723TIP3   OH235803   1.802   2.627   1.618
 4723TIP3    H135804   1.717   2.590   1.641
 4723TIP3    H235805   1.865   2.561   1.644
 4724TIP3   OH235806   1.545   2.222   0.143
 4724TIP3    H135807   1.635   2.190   0.141
 4724TIP3    H235808   1.501   2.174   0.073
 4725TIP3   OH235809   1.591   2.433   0.508
 4725TIP3    H135810   1.623   2.344   0.517
 4725TIP3    H235811   1.661   2.479   0.462
 4726TIP3   OH235812   1.586   2.461   1.060
 4726TIP3    H135813   1.679   2.472   1.040
 4726TIP3    H235814   1.579   2.482   1.153
 4727TIP3   OH235815   1.610   2.548   1.325
 4727TIP3    H135816   1.528   2.581   1.361
 4727TIP3    H235817   1.664   2.626   1.313
 4728TIP3   OH235818   0.048   2.353   1.643
 4728TIP3    H135819   0.138   2.347   1.675
 4728TIP3    H235820  -0.005   2.334   1.720
 4729TIP3   OH235821   1.610   2.158   0.491
 4729TIP3    H135822   1.641   2.125   0.576
 4729TIP3    H235823   1.558   2.086   0.456
 4730TIP3   OH235824   0.156   2.251   0.973
 4730TIP3    H135825   0.190   2.161   0.976
 4730TIP3    H235826   0.232   2.306   0.990
 4731TIP3   OH235827   0.010   2.612   1.092
 4731TIP3    H135828   0.077   2.581   1.031
 4731TIP3    H235829   0.020   2.708   1.093
 4732TIP3   OH235830   1.801   2.140   0.146
 4732TIP3    H135831   1.850   2.104   0.071
 4732TIP3    H235832   1.860   2.206   0.182
 4733TIP3   OH235833   0.120   2.160   0.428
 4733TIP3    H135834   0.035   2.145   0.470
 4733TIP3    H235835   0.109   2.242   0.381
 4734TIP3   OH235836   1.496   3.661   0.668
 4734TIP3    H135837   1.572   3.667   0.611
 4734TIP3    H235838   1.521   3.711   0.746
 4735TIP3   OH235839   7.368   2.025   1.330
 4735TIP3    H135840   7.324   2.074   1.400
 4735TIP3    H235841   7.313   2.039   1.253
 4736TIP3   OH235842   0.236   3.387   1.726
 4736TIP3    H135843   0.153   3.392   1.679
 4736TIP3    H235844   0.213   3.349   1.811
 4737TIP3   OH235845   0.565   3.471   1.361
 4737TIP3    H135846   0.530   3.555   1.333
 4737TIP3    H235847   0.659   3.477   1.341
 4738TIP3   OH235848   0.980   3.584   1.665
 4738TIP3    H135849   1.010   3.553   1.750
 4738TIP3    H235850   1.052   3.638   1.633
 4739TIP3   OH235851   1.201   3.731   1.576
 4739TIP3    H135852   1.260   3.663   1.543
 4739TIP3    H235853   1.257   3.807   1.590
 4740TIP3   OH235854   1.696   1.912   1.453
 4740TIP3    H135855   1.621   1.912   1.395
 4740TIP3    H235856   1.741   1.829   1.434
 4741TIP3   OH235857   0.267   3.762   1.400
 4741TIP3    H135858   0.192   3.809   1.363
 4741TIP3    H235859   0.237   3.734   1.486
 4742TIP3   OH235860   0.519   3.735   1.289
 4742TIP3    H135861   0.429   3.746   1.320
 4742TIP3    H235862   0.522   3.780   1.205
 4743TIP3   OH235863   0.974   3.716   1.185
 4743TIP3    H135864   0.923   3.755   1.114
 4743TIP3    H235865   0.988   3.788   1.247
 4744TIP3   OH235866   1.199   3.582   1.272
 4744TIP3    H135867   1.122   3.629   1.241
 4744TIP3    H235868   1.271   3.644   1.263
 4745TIP3   OH235869   1.435   3.727   1.269
 4745TIP3    H135870   1.463   3.819   1.269
 4745TIP3    H235871   1.484   3.687   1.196
 4746TIP3   OH235872   0.226   3.630   1.031
 4746TIP3    H135873   0.215   3.586   1.115
 4746TIP3    H235874   0.301   3.585   0.990
 4747TIP3   OH235875   0.436   3.489   0.923
 4747TIP3    H135876   0.420   3.398   0.950
 4747TIP3    H235877   0.521   3.510   0.962
 4748TIP3   OH235878   0.695   3.524   1.034
 4748TIP3    H135879   0.706   3.433   1.005
 4748TIP3    H235880   0.729   3.524   1.123
 4749TIP3   OH235881   1.019   2.073   0.937
 4749TIP3    H135882   0.937   2.029   0.961
 4749TIP3    H235883   1.078   2.002   0.912
 4750TIP3   OH235884   1.560   1.948   0.924
 4750TIP3    H135885   1.610   2.017   0.880
 4750TIP3    H235886   1.469   1.963   0.898
 4751TIP3   OH235887   1.721   2.046   0.717
 4751TIP3    H135888   1.786   1.980   0.691
 4751TIP3    H235889   1.774   2.123   0.739
 4752TIP3   OH235890   0.294   1.959   0.677
 4752TIP3    H135891   0.205   1.952   0.643
 4752TIP3    H235892   0.331   1.872   0.666
 4753TIP3   OH235893   0.204   1.962   0.257
 4753TIP3    H135894   0.260   2.018   0.204
 4753TIP3    H235895   0.180   2.016   0.332
 4754TIP3   OH235896   0.750   1.924   0.696
 4754TIP3    H135897   0.822   1.978   0.664
 4754TIP3    H235898   0.758   1.928   0.792
 4755TIP3   OH235899   1.316   1.942   0.797
 4755TIP3    H135900   1.269   1.957   0.715
 4755TIP3    H235901   1.267   1.874   0.842
 4756TIP3   OH235902   1.385   2.027   0.398
 4756TIP3    H135903   1.299   2.059   0.426
 4756TIP3    H235904   1.377   1.932   0.402
 4757TIP3   OH235905   0.187   3.564   0.312
 4757TIP3    H135906   0.096   3.534   0.314
 4757TIP3    H235907   0.180   3.659   0.308
 4758TIP3   OH235908   0.391   2.104   0.116
 4758TIP3    H135909   0.445   2.028   0.092
 4758TIP3    H235910   0.441   2.147   0.185
 4759TIP3   OH235911   0.832   2.182   0.365
 4759TIP3    H135912   0.859   2.112   0.425
 4759TIP3    H235913   0.853   2.263   0.413
 4760TIP3   OH235914   1.053   3.771   0.212
 4760TIP3    H135915   1.130   3.817   0.177
 4760TIP3    H235916   1.058   3.683   0.174
 4761TIP3   OH235917   1.704   3.658   0.482
 4761TIP3    H135918   1.687   3.569   0.451
 4761TIP3    H235919   1.688   3.714   0.405
 4762TIP3   OH235920   0.289   2.006   1.635
 4762TIP3    H135921   0.229   1.939   1.669
 4762TIP3    H235922   0.371   1.991   1.682
 4763TIP3   OH235923   0.499   1.940   1.791
 4763TIP3    H135924   0.587   1.925   1.757
 4763TIP3    H235925   0.505   1.915   1.884
 4764TIP3   OH235926   0.349   3.602   0.078
 4764TIP3    H135927   0.306   3.676   0.034
 4764TIP3    H235928   0.303   3.594   0.162
 4765TIP3   OH235929   1.307   1.829   1.884
 4765TIP3    H135930   1.265   1.820   1.969
 4765TIP3    H235931   1.368   1.755   1.879
 4766TIP3   OH235932   1.649   3.523   1.630
 4766TIP3    H135933   1.562   3.515   1.592
 4766TIP3    H235934   1.643   3.600   1.687
 4767TIP3   OH235935   3.076   2.908   0.658
 4767TIP3    H135936   3.063   3.002   0.654
 4767TIP3    H235937   3.003   2.871   0.608
 4768TIP3   OH235938   2.944   2.823   1.048
 4768TIP3    H135939   2.972   2.787   1.132
 4768TIP3    H235940   2.899   2.751   1.004
 4769TIP3   OH235941   2.169   2.760   1.187
 4769TIP3    H135942   2.174   2.687   1.249
 4769TIP3    H235943   2.258   2.795   1.184
 4770TIP3   OH235944   3.337   3.132   0.881
 4770TIP3    H135945   3.303   3.056   0.929
 4770TIP3    H235946   3.358   3.196   0.949
 4771TIP3   OH235947   2.310   3.223   0.996
 4771TIP3    H135948   2.279   3.134   0.976
 4771TIP3    H235949   2.405   3.213   1.007
 4772TIP3   OH235950   1.957   2.563   0.529
 4772TIP3    H135951   1.930   2.646   0.569
 4772TIP3    H235952   1.898   2.552   0.454
 4773TIP3   OH235953   2.025   2.813   0.817
 4773TIP3    H135954   2.051   2.724   0.840
 4773TIP3    H235955   2.102   2.867   0.833
 4774TIP3   OH235956   3.069   3.613   0.916
 4774TIP3    H135957   3.103   3.551   0.852
 4774TIP3    H235958   3.045   3.559   0.991
 4775TIP3   OH235959   2.802   3.071   1.075
 4775TIP3    H135960   2.839   2.990   1.041
 4775TIP3    H235961   2.870   3.106   1.133
 4776TIP3   OH235962   3.677   2.216   1.166
 4776TIP3    H135963   3.695   2.280   1.235
 4776TIP3    H235964   3.733   2.242   1.093
 4777TIP3   OH235965   3.113   2.495   1.075
 4777TIP3    H135966   3.130   2.402   1.091
 4777TIP3    H235967   3.095   2.500   0.981
 4778TIP3   OH235968   2.453   2.301   0.812
 4778TIP3    H135969   2.461   2.387   0.771
 4778TIP3    H235970   2.401   2.249   0.751
 4779TIP3   OH235971   3.235   2.331   0.653
 4779TIP3    H135972   3.276   2.299   0.734
 4779TIP3    H235973   3.307   2.371   0.604
 4780TIP3   OH235974   2.091   2.554   0.891
 4780TIP3    H135975   2.156   2.517   0.951
 4780TIP3    H235976   2.114   2.518   0.806
 4781TIP3   OH235977   2.582   2.701   0.855
 4781TIP3    H135978   2.666   2.665   0.882
 4781TIP3    H235979   2.544   2.634   0.798
 4782TIP3   OH235980   3.719   2.379   1.386
 4782TIP3    H135981   3.650   2.443   1.372
 4782TIP3    H235982   3.749   2.394   1.475
 4783TIP3   OH235983   2.321   2.217   1.233
 4783TIP3    H135984   2.295   2.277   1.163
 4783TIP3    H235985   2.251   2.226   1.298
 4784TIP3   OH235986   3.040   3.167   0.562
 4784TIP3    H135987   3.025   3.165   0.468
 4784TIP3    H235988   2.991   3.242   0.593
 4785TIP3   OH235989   2.578   2.991   1.218
 4785TIP3    H135990   2.528   3.063   1.257
 4785TIP3    H235991   2.651   3.034   1.174
 4786TIP3   OH235992   3.338   2.278   0.901
 4786TIP3    H135993   3.273   2.252   0.966
 4786TIP3    H235994   3.398   2.336   0.947
 4787TIP3   OH235995   2.284   2.389   1.016
 4787TIP3    H135996   2.339   2.447   1.068
 4787TIP3    H235997   2.344   2.352   0.950
 4788TIP3   OH235998   2.425   3.194   1.330
 4788TIP3    H135999   2.427   3.288   1.314
 4788TIP3    H236000   2.336   3.176   1.360
 4789TIP3   OH236001   1.990   3.171   0.406
 4789TIP3    H136002   1.985   3.214   0.321
 4789TIP3    H236003   2.014   3.240   0.467
 4790TIP3   OH236004   3.372   3.335   1.078
 4790TIP3    H136005   3.278   3.335   1.094
 4790TIP3    H236006   3.393   3.426   1.058
 4791TIP3   OH236007   3.424   2.107   1.234
 4791TIP3    H136008   3.359   2.164   1.192
 4791TIP3    H236009   3.508   2.139   1.201
 4792TIP3   OH236010   2.676   1.909   0.975
 4792TIP3    H136011   2.652   1.816   0.979
 4792TIP3    H236012   2.598   1.955   1.009
 4793TIP3   OH236013   3.191   3.479   0.701
 4793TIP3    H136014   3.234   3.395   0.683
 4793TIP3    H236015   3.262   3.543   0.701
 4794TIP3   OH236016   3.302   3.237   0.628
 4794TIP3    H136017   3.218   3.198   0.606
 4794TIP3    H236018   3.326   3.195   0.711
 4795TIP3   OH236019   3.484   3.123   1.435
 4795TIP3    H136020   3.476   3.062   1.362
 4795TIP3    H236021   3.498   3.208   1.394
 4796TIP3   OH236022   2.925   2.813   0.442
 4796TIP3    H136023   2.861   2.880   0.418
 4796TIP3    H236024   2.991   2.817   0.373
 4797TIP3   OH236025   2.934   2.642   0.129
 4797TIP3    H136026   2.994   2.690   0.187
 4797TIP3    H236027   2.989   2.576   0.087
 4798TIP3   OH236028   3.647   2.770   1.265
 4798TIP3    H136029   3.578   2.835   1.259
 4798TIP3    H236030   3.713   2.799   1.202
 4799TIP3   OH236031   3.291   2.843   0.504
 4799TIP3    H136032   3.224   2.869   0.568
 4799TIP3    H236033   3.357   2.796   0.555
 4800TIP3   OH236034   3.253   2.635   1.438
 4800TIP3    H136035   3.266   2.709   1.498
 4800TIP3    H236036   3.184   2.664   1.378
 4801TIP3   OH236037   2.447   2.896   0.706
 4801TIP3    H136038   2.427   2.857   0.621
 4801TIP3    H236039   2.501   2.831   0.751
 4802TIP3   OH236040   2.592   3.242   0.970
 4802TIP3    H136041   2.599   3.250   0.875
 4802TIP3    H236042   2.668   3.189   0.995
 4803TIP3   OH236043   2.442   2.801   1.076
 4803TIP3    H136044   2.498   2.775   1.003
 4803TIP3    H236045   2.493   2.866   1.124
 4804TIP3   OH236046   3.109   3.341   1.144
 4804TIP3    H136047   3.095   3.414   1.204
 4804TIP3    H236048   3.069   3.265   1.188
 4805TIP3   OH236049   2.583   3.205   1.560
 4805TIP3    H136050   2.527   3.271   1.602
 4805TIP3    H236051   2.536   3.181   1.480
 4806TIP3   OH236052   3.151   2.767   0.281
 4806TIP3    H136053   3.198   2.795   0.359
 4806TIP3    H236054   3.203   2.802   0.208
 4807TIP3   OH236055   2.263   2.809   1.496
 4807TIP3    H136056   2.278   2.891   1.544
 4807TIP3    H236057   2.169   2.810   1.477
 4808TIP3   OH236058   2.934   3.415   0.625
 4808TIP3    H136059   3.017   3.444   0.662
 4808TIP3    H236060   2.899   3.494   0.582
 4809TIP3   OH236061   2.405   3.398   1.630
 4809TIP3    H136062   2.394   3.452   1.552
 4809TIP3    H236063   2.317   3.387   1.665
 4810TIP3   OH236064   3.522   1.930   0.256
 4810TIP3    H136065   3.442   1.955   0.301
 4810TIP3    H236066   3.568   2.013   0.240
 4811TIP3   OH236067   2.363   2.810   0.442
 4811TIP3    H136068   2.306   2.880   0.411
 4811TIP3    H236069   2.307   2.733   0.447
 4812TIP3   OH236070   3.645   3.368   0.129
 4812TIP3    H136071   3.668   3.461   0.129
 4812TIP3    H236072   3.729   3.322   0.119
 4813TIP3   OH236073   1.944   3.051   1.373
 4813TIP3    H136074   1.892   3.060   1.293
 4813TIP3    H236075   1.959   2.957   1.381
 4814TIP3   OH236076   1.910   3.354   1.047
 4814TIP3    H136077   1.998   3.346   1.085
 4814TIP3    H236078   1.876   3.435   1.084
 4815TIP3   OH236079   3.754   3.414   1.642
 4815TIP3    H136080   3.740   3.320   1.631
 4815TIP3    H236081   3.669   3.448   1.669
 4816TIP3   OH236082   2.816   3.342   1.491
 4816TIP3    H136083   2.823   3.424   1.541
 4816TIP3    H236084   2.735   3.301   1.524
 4817TIP3   OH236085   2.908   3.691   0.491
 4817TIP3    H136086   2.894   3.713   0.399
 4817TIP3    H236087   2.882   3.769   0.539
 4818TIP3   OH236088   2.252   3.579   0.682
 4818TIP3    H136089   2.269   3.550   0.772
 4818TIP3    H236090   2.195   3.512   0.646
 4819TIP3   OH236091   3.197   3.633   0.154
 4819TIP3    H136092   3.270   3.576   0.128
 4819TIP3    H236093   3.201   3.634   0.249
 4820TIP3   OH236094   3.174   3.636   0.435
 4820TIP3    H136095   3.082   3.644   0.459
 4820TIP3    H236096   3.213   3.584   0.506
 4821TIP3   OH236097   3.443   2.522   1.674
 4821TIP3    H136098   3.380   2.572   1.622
 4821TIP3    H236099   3.446   2.436   1.631
 4822TIP3   OH236100   2.170   3.190   1.438
 4822TIP3    H136101   2.200   3.153   1.521
 4822TIP3    H236102   2.090   3.141   1.418
 4823TIP3   OH236103   2.431   2.018   1.069
 4823TIP3    H136104   2.355   2.013   1.010
 4823TIP3    H236105   2.411   2.091   1.128
 4824TIP3   OH236106   2.909   1.990   1.414
 4824TIP3    H136107   2.958   1.933   1.473
 4824TIP3    H236108   2.817   1.976   1.437
 4825TIP3   OH236109   3.197   2.366   1.469
 4825TIP3    H136110   3.136   2.365   1.543
 4825TIP3    H236111   3.212   2.459   1.453
 4826TIP3   OH236112   3.320   2.883   0.097
 4826TIP3    H136113   3.401   2.877   0.046
 4826TIP3    H236114   3.341   2.944   0.168
 4827TIP3   OH236115   2.882   2.207   0.103
 4827TIP3    H136116   2.816   2.232   0.168
 4827TIP3    H236117   2.897   2.114   0.120
 4828TIP3   OH236118   2.435   2.545   1.183
 4828TIP3    H136119   2.373   2.546   1.255
 4828TIP3    H236120   2.439   2.636   1.154
 4829TIP3   OH236121   2.441   2.539   0.676
 4829TIP3    H136122   2.346   2.529   0.675
 4829TIP3    H236123   2.469   2.518   0.587
 4830TIP3   OH236124   2.987   2.565   0.544
 4830TIP3    H136125   2.963   2.652   0.513
 4830TIP3    H236126   3.058   2.538   0.485
 4831TIP3   OH236127   2.888   2.610   1.626
 4831TIP3    H136128   2.868   2.544   1.693
 4831TIP3    H236129   2.947   2.671   1.670
 4832TIP3   OH236130   3.076   2.508   0.805
 4832TIP3    H136131   3.035   2.557   0.733
 4832TIP3    H236132   3.123   2.437   0.762
 4833TIP3   OH236133   2.219   2.538   1.357
 4833TIP3    H136134   2.227   2.586   1.439
 4833TIP3    H236135   2.182   2.453   1.383
 4834TIP3   OH236136   2.554   2.309   0.075
 4834TIP3    H136137   2.531   2.260   0.153
 4834TIP3    H236138   2.532   2.400   0.096
 4835TIP3   OH236139   1.893   2.249   0.750
 4835TIP3    H136140   1.937   2.260   0.834
 4835TIP3    H236141   1.963   2.262   0.685
 4836TIP3   OH236142   1.950   2.347   0.261
 4836TIP3    H136143   2.027   2.381   0.215
 4836TIP3    H236144   1.897   2.424   0.279
 4837TIP3   OH236145   3.029   2.668   1.266
 4837TIP3    H136146   3.067   2.611   1.199
 4837TIP3    H236147   2.961   2.614   1.307
 4838TIP3   OH236148   2.737   2.264   0.758
 4838TIP3    H136149   2.649   2.270   0.797
 4838TIP3    H236150   2.791   2.227   0.828
 4839TIP3   OH236151   2.179   2.451   0.651
 4839TIP3    H136152   2.107   2.478   0.595
 4839TIP3    H236153   2.203   2.364   0.619
 4840TIP3   OH236154   2.505   2.454   0.423
 4840TIP3    H136155   2.599   2.454   0.439
 4840TIP3    H236156   2.496   2.499   0.339
 4841TIP3   OH236157   3.135   2.216   1.083
 4841TIP3    H136158   3.090   2.218   1.167
 4841TIP3    H236159   3.075   2.170   1.024
 4842TIP3   OH236160   2.448   2.549   0.170
 4842TIP3    H136161   2.361   2.554   0.130
 4842TIP3    H236162   2.504   2.604   0.115
 4843TIP3   OH236163   3.483   3.785   1.741
 4843TIP3    H136164   3.510   3.808   1.652
 4843TIP3    H236165   3.478   3.869   1.786
 4844TIP3   OH236166   2.274   3.043   1.652
 4844TIP3    H136167   2.335   3.067   1.721
 4844TIP3    H236168   2.188   3.041   1.695
 4845TIP3   OH236169   2.813   2.579   0.955
 4845TIP3    H136170   2.887   2.532   0.917
 4845TIP3    H236171   2.780   2.521   1.023
 4846TIP3   OH236172   2.289   2.192   0.607
 4846TIP3    H136173   2.240   2.113   0.631
 4846TIP3    H236174   2.337   2.166   0.528
 4847TIP3   OH236175   2.690   2.435   1.167
 4847TIP3    H136176   2.607   2.481   1.178
 4847TIP3    H236177   2.744   2.462   1.241
 4848TIP3   OH236178   2.752   3.013   0.361
 4848TIP3    H136179   2.679   2.977   0.312
 4848TIP3    H236180   2.714   3.045   0.442
 4849TIP3   OH236181   3.458   2.965   1.210
 4849TIP3    H136182   3.520   3.018   1.161
 4849TIP3    H236183   3.386   2.949   1.149
 4850TIP3   OH236184   3.143   2.262   0.226
 4850TIP3    H136185   3.069   2.268   0.165
 4850TIP3    H236186   3.162   2.352   0.251
 4851TIP3   OH236187   2.879   3.066   1.494
 4851TIP3    H136188   2.855   3.037   1.582
 4851TIP3    H236189   2.861   3.160   1.495
 4852TIP3   OH236190   3.198   2.501   0.363
 4852TIP3    H136191   3.284   2.488   0.402
 4852TIP3    H236192   3.201   2.589   0.325
 4853TIP3   OH236193   2.262   2.943   0.908
 4853TIP3    H136194   2.323   2.941   0.834
 4853TIP3    H236195   2.305   2.891   0.976
 4854TIP3   OH236196   2.977   3.160   0.282
 4854TIP3    H136197   2.934   3.245   0.293
 4854TIP3    H236198   2.908   3.096   0.300
 4855TIP3   OH236199   1.984   2.791   1.467
 4855TIP3    H136200   1.979   2.761   1.558
 4855TIP3    H236201   1.906   2.755   1.426
 4856TIP3   OH236202   2.659   2.762   1.685
 4856TIP3    H136203   2.586   2.728   1.632
 4856TIP3    H236204   2.737   2.723   1.645
 4857TIP3   OH236205   3.104   3.326   1.486
 4857TIP3    H136206   3.010   3.333   1.467
 4857TIP3    H236207   3.110   3.339   1.581
 4858TIP3   OH236208   3.640   2.556   0.318
 4858TIP3    H136209   3.576   2.535   0.249
 4858TIP3    H236210   3.668   2.645   0.297
 4859TIP3   OH236211   3.706   3.133   1.597
 4859TIP3    H136212   3.615   3.139   1.567
 4859TIP3    H236213   3.756   3.113   1.519
 4860TIP3   OH236214   3.521   3.406   0.382
 4860TIP3    H136215   3.476   3.331   0.421
 4860TIP3    H236216   3.554   3.373   0.299
 4861TIP3   OH236217   3.249   2.902   1.025
 4861TIP3    H136218   3.153   2.896   1.023
 4861TIP3    H236219   3.279   2.823   0.981
 4862TIP3   OH236220   2.529   3.324   0.701
 4862TIP3    H136221   2.555   3.408   0.664
 4862TIP3    H236222   2.434   3.326   0.704
 4863TIP3   OH236223   2.081   2.783   0.177
 4863TIP3    H136224   2.121   2.854   0.228
 4863TIP3    H236225   1.987   2.798   0.186
 4864TIP3   OH236226   2.613   3.086   0.583
 4864TIP3    H136227   2.598   3.172   0.621
 4864TIP3    H236228   2.558   3.027   0.635
 4865TIP3   OH236229   2.701   3.492   1.280
 4865TIP3    H136230   2.759   3.566   1.263
 4865TIP3    H236231   2.750   3.436   1.340
 4866TIP3   OH236232   2.513   3.591   0.589
 4866TIP3    H136233   2.421   3.599   0.616
 4866TIP3    H236234   2.556   3.668   0.627
 4867TIP3   OH236235   3.014   3.099   1.258
 4867TIP3    H136236   2.968   3.081   1.340
 4867TIP3    H236237   3.097   3.052   1.266
 4868TIP3   OH236238   3.247   3.202   0.149
 4868TIP3    H136239   3.301   3.154   0.211
 4868TIP3    H236240   3.158   3.198   0.185
 4869TIP3   OH236241   3.314   3.520   1.466
 4869TIP3    H136242   3.234   3.467   1.457
 4869TIP3    H236243   3.301   3.593   1.405
 4870TIP3   OH236244   3.714   3.635   0.171
 4870TIP3    H136245   3.780   3.704   0.169
 4870TIP3    H236246   3.632   3.681   0.188
 4871TIP3   OH236247   2.117   2.273   1.417
 4871TIP3    H136248   2.022   2.276   1.405
 4871TIP3    H236249   2.130   2.214   1.492
 4872TIP3   OH236250   3.397   3.028   0.320
 4872TIP3    H136251   3.350   2.982   0.390
 4872TIP3    H236252   3.488   3.032   0.351
 4873TIP3   OH236253   2.146   3.445   1.352
 4873TIP3    H136254   2.151   3.350   1.367
 4873TIP3    H236255   2.235   3.470   1.329
 4874TIP3   OH236256   2.530   3.285   0.275
 4874TIP3    H136257   2.608   3.239   0.305
 4874TIP3    H236258   2.548   3.377   0.292
 4875TIP3   OH236259   2.189   2.995   0.324
 4875TIP3    H136260   2.118   3.039   0.370
 4875TIP3    H236261   2.235   3.065   0.278
 4876TIP3   OH236262   3.004   2.233   1.325
 4876TIP3    H136263   3.078   2.258   1.381
 4876TIP3    H236264   2.974   2.150   1.361
 4877TIP3   OH236265   3.092   2.167   0.480
 4877TIP3    H136266   3.106   2.206   0.394
 4877TIP3    H236267   3.134   2.228   0.541
 4878TIP3   OH236268   2.822   3.381   0.315
 4878TIP3    H136269   2.750   3.439   0.343
 4878TIP3    H236270   2.870   3.432   0.250
 4879TIP3   OH236271   2.761   2.409   0.522
 4879TIP3    H136272   2.838   2.465   0.529
 4879TIP3    H236273   2.752   2.369   0.608
 4880TIP3   OH236274   2.860   2.480   1.378
 4880TIP3    H136275   2.868   2.511   1.468
 4880TIP3    H236276   2.905   2.395   1.378
 4881TIP3   OH236277   2.851   2.074   0.579
 4881TIP3    H136278   2.826   2.141   0.642
 4881TIP3    H236279   2.939   2.099   0.550
 4882TIP3   OH236280   2.597   3.545   0.332
 4882TIP3    H136281   2.599   3.629   0.287
 4882TIP3    H236282   2.567   3.566   0.421
 4883TIP3   OH236283   2.450   2.202   0.316
 4883TIP3    H136284   2.445   2.289   0.356
 4883TIP3    H236285   2.540   2.173   0.332
 4884TIP3   OH236286   3.450   2.282   1.524
 4884TIP3    H136287   3.357   2.293   1.501
 4884TIP3    H236288   3.494   2.271   1.440
 4885TIP3   OH236289   3.324   2.652   0.904
 4885TIP3    H136290   3.239   2.610   0.893
 4885TIP3    H236291   3.372   2.593   0.962
 4886TIP3   OH236292   2.286   3.210   0.172
 4886TIP3    H136293   2.350   3.255   0.227
 4886TIP3    H236294   2.339   3.162   0.108
 4887TIP3   OH236295   2.122   2.521   0.112
 4887TIP3    H136296   2.111   2.612   0.137
 4887TIP3    H236297   2.097   2.518   0.019
 4888TIP3   OH236298   3.452   3.603   1.069
 4888TIP3    H136299   3.441   3.673   1.005
 4888TIP3    H236300   3.547   3.598   1.083
 4889TIP3   OH236301   2.181   2.003   0.944
 4889TIP3    H136302   2.174   1.993   0.849
 4889TIP3    H236303   2.153   1.918   0.979
 4890TIP3   OH236304   2.058   3.398   0.567
 4890TIP3    H136305   2.004   3.429   0.640
 4890TIP3    H236306   2.044   3.462   0.498
 4891TIP3   OH236307   1.992   3.622   1.735
 4891TIP3    H136308   2.069   3.642   1.789
 4891TIP3    H236309   1.920   3.616   1.798
 4892TIP3   OH236310   2.426   3.522   1.895
 4892TIP3    H136311   2.501   3.506   1.953
 4892TIP3    H236312   2.451   3.483   1.812
 4893TIP3   OH236313   2.955   3.508   0.117
 4893TIP3    H136314   2.931   3.471   0.033
 4893TIP3    H236315   3.046   3.535   0.107
 4894TIP3   OH236316   3.107   3.359   1.754
 4894TIP3    H136317   3.078   3.283   1.804
 4894TIP3    H236318   3.183   3.392   1.801
 4895TIP3   OH236319   3.367   3.440   0.056
 4895TIP3    H136320   3.326   3.360   0.089
 4895TIP3    H236321   3.461   3.424   0.061
 4896TIP3   OH236322   2.023   3.018   1.746
 4896TIP3    H136323   2.022   2.922   1.753
 4896TIP3    H236324   1.936   3.041   1.715
 4897TIP3   OH236325   2.462   3.054   0.033
 4897TIP3    H136326   2.496   3.008   0.110
 4897TIP3    H236327   2.483   2.997  -0.040
 4898TIP3   OH236328   2.720   3.036   1.731
 4898TIP3    H136329   2.662   3.083   1.670
 4898TIP3    H236330   2.689   2.946   1.729
 4899TIP3   OH236331   3.223   3.063   1.499
 4899TIP3    H136332   3.313   3.093   1.486
 4899TIP3    H236333   3.171   3.144   1.498
 4900TIP3   OH236334   2.082   2.746   1.747
 4900TIP3    H136335   2.177   2.739   1.740
 4900TIP3    H236336   2.064   2.747   1.841
 4901TIP3   OH236337   2.545   2.879   0.233
 4901TIP3    H136338   2.493   2.845   0.305
 4901TIP3    H236339   2.583   2.802   0.192
 4902TIP3   OH236340   2.486   2.647   1.493
 4902TIP3    H136341   2.412   2.708   1.490
 4902TIP3    H236342   2.550   2.685   1.434
 4903TIP3   OH236343   2.665   2.681   0.057
 4903TIP3    H136344   2.672   2.641  -0.030
 4903TIP3    H236345   2.753   2.676   0.093
 4904TIP3   OH236346   3.008   2.866   1.898
 4904TIP3    H136347   3.104   2.867   1.897
 4904TIP3    H236348   2.985   2.861   1.991
 4905TIP3   OH236349   3.585   2.985   0.016
 4905TIP3    H136350   3.558   3.014  -0.072
 4905TIP3    H236351   3.598   3.066   0.065
 4906TIP3   OH236352   2.561   2.398   1.587
 4906TIP3    H136353   2.567   2.337   1.513
 4906TIP3    H236354   2.537   2.482   1.547
 4907TIP3   OH236355   2.571   2.238   1.347
 4907TIP3    H136356   2.624   2.284   1.282
 4907TIP3    H236357   2.483   2.234   1.309
 4908TIP3   OH236358   2.680   2.772   1.350
 4908TIP3    H136359   2.773   2.789   1.364
 4908TIP3    H236360   2.647   2.852   1.308
 4909TIP3   OH236361   3.307   2.831   1.620
 4909TIP3    H136362   3.267   2.911   1.585
 4909TIP3    H236363   3.401   2.852   1.626
 4910TIP3   OH236364   2.383   2.412   1.804
 4910TIP3    H136365   2.305   2.453   1.764
 4910TIP3    H236366   2.448   2.412   1.734
 4911TIP3   OH236367   2.627   1.973   1.421
 4911TIP3    H136368   2.608   2.064   1.397
 4911TIP3    H236369   2.558   1.923   1.378
 4912TIP3   OH236370   2.758   2.410   1.786
 4912TIP3    H136371   2.721   2.477   1.844
 4912TIP3    H236372   2.690   2.394   1.721
 4913TIP3   OH236373   3.016   2.322   1.667
 4913TIP3    H136374   2.927   2.321   1.702
 4913TIP3    H236375   3.062   2.254   1.716
 4914TIP3   OH236376   3.156   2.150   1.834
 4914TIP3    H136377   3.164   2.055   1.824
 4914TIP3    H236378   3.243   2.178   1.863
 4915TIP3   OH236379   2.148   2.262   1.742
 4915TIP3    H136380   2.173   2.174   1.715
 4915TIP3    H236381   2.210   2.285   1.811
 4916TIP3   OH236382   2.638   1.903   1.686
 4916TIP3    H136383   2.692   1.824   1.681
 4916TIP3    H236384   2.631   1.932   1.595
 4917TIP3   OH236385   2.645   3.755   0.154
 4917TIP3    H136386   2.735   3.770   0.182
 4917TIP3    H236387   2.643   3.783   0.062
 4918TIP3   OH236388   2.012   3.241   0.124
 4918TIP3    H136389   2.105   3.243   0.144
 4918TIP3    H236390   2.008   3.213   0.032
 4919TIP3   OH236391   1.898   3.736   0.657
 4919TIP3    H136392   1.837   3.709   0.589
 4919TIP3    H236393   1.911   3.657   0.710
 4920TIP3   OH236394   1.960   3.515   0.813
 4920TIP3    H136395   1.920   3.444   0.863
 4920TIP3    H236396   2.007   3.566   0.879
 4921TIP3   OH236397   3.721   3.602   1.136
 4921TIP3    H136398   3.716   3.605   1.232
 4921TIP3    H236399   3.796   3.657   1.114
 4922TIP3   OH236400   3.670   3.574   1.410
 4922TIP3    H136401   3.614   3.504   1.378
 4922TIP3    H236402   3.718   3.535   1.483
 4923TIP3   OH236403   3.515   3.185   1.922
 4923TIP3    H136404   3.420   3.180   1.937
 4923TIP3    H236405   3.551   3.217   2.004
 4924TIP3   OH236406   3.659   2.996   0.419
 4924TIP3    H136407   3.729   3.061   0.425
 4924TIP3    H236408   3.671   2.939   0.495
 4925TIP3   OH236409   3.709   2.803   0.614
 4925TIP3    H136410   3.626   2.769   0.647
 4925TIP3    H236411   3.763   2.816   0.693
 4926TIP3   OH236412   3.687   3.094   1.124
 4926TIP3    H136413   3.742   3.026   1.085
 4926TIP3    H236414   3.718   3.175   1.085
 4927TIP3   OH236415   3.501   3.374   1.323
 4927TIP3    H136416   3.429   3.417   1.370
 4927TIP3    H236417   3.465   3.356   1.236
 4928TIP3   OH236418   3.697   2.814   0.219
 4928TIP3    H136419   3.647   2.856   0.149
 4928TIP3    H236420   3.686   2.872   0.294
 4929TIP3   OH236421   3.475   2.512   0.098
 4929TIP3    H136422   3.550   2.530   0.041
 4929TIP3    H236423   3.456   2.419   0.084
 4930TIP3   OH236424   3.457   2.683   0.663
 4930TIP3    H136425   3.455   2.591   0.635
 4930TIP3    H236426   3.417   2.682   0.750
 4931TIP3   OH236427   1.945   2.865   1.076
 4931TIP3    H136428   1.959   2.854   0.982
 4931TIP3    H236429   2.027   2.837   1.116
 4932TIP3   OH236430   3.577   2.874   1.653
 4932TIP3    H136431   3.630   2.797   1.632
 4932TIP3    H236432   3.632   2.948   1.624
 4933TIP3   OH236433   3.689   2.627   1.611
 4933TIP3    H136434   3.605   2.593   1.640
 4933TIP3    H236435   3.753   2.561   1.637
 4934TIP3   OH236436   3.428   2.249   0.065
 4934TIP3    H136437   3.509   2.203   0.088
 4934TIP3    H236438   3.360   2.205   0.116
 4935TIP3   OH236439   3.448   2.434   0.494
 4935TIP3    H136440   3.475   2.343   0.497
 4935TIP3    H236441   3.518   2.479   0.447
 4936TIP3   OH236442   3.476   2.467   1.053
 4936TIP3    H136443   3.568   2.478   1.032
 4936TIP3    H236444   3.470   2.483   1.148
 4937TIP3   OH236445   3.500   2.546   1.323
 4937TIP3    H136446   3.418   2.579   1.360
 4937TIP3    H236447   3.553   2.624   1.308
 4938TIP3   OH236448   1.917   2.380   1.664
 4938TIP3    H136449   2.005   2.346   1.678
 4938TIP3    H236450   1.882   2.392   1.753
 4939TIP3   OH236451   3.686   1.952   1.834
 4939TIP3    H136452   3.759   1.891   1.819
 4939TIP3    H236453   3.725   2.025   1.883
 4940TIP3   OH236454   3.509   2.163   0.503
 4940TIP3    H136455   3.533   2.125   0.588
 4940TIP3    H236456   3.440   2.105   0.470
 4941TIP3   OH236457   2.043   2.242   0.982
 4941TIP3    H136458   2.085   2.156   0.980
 4941TIP3    H236459   2.115   2.303   1.000
 4942TIP3   OH236460   1.857   2.521   1.049
 4942TIP3    H136461   1.931   2.527   0.988
 4942TIP3    H236462   1.871   2.591   1.111
 4943TIP3   OH236463   3.668   2.174   1.645
 4943TIP3    H136464   3.586   2.202   1.606
 4943TIP3    H236465   3.668   2.079   1.635
 4944TIP3   OH236466   3.670   2.143   0.154
 4944TIP3    H136467   3.739   2.084   0.126
 4944TIP3    H236468   3.717   2.221   0.184
 4945TIP3   OH236469   1.918   2.133   0.438
 4945TIP3    H136470   1.824   2.140   0.452
 4945TIP3    H236471   1.940   2.212   0.388
 4946TIP3   OH236472   3.378   3.670   0.670
 4946TIP3    H136473   3.455   3.668   0.612
 4946TIP3    H236474   3.409   3.715   0.748
 4947TIP3   OH236475   1.911   2.010   1.296
 4947TIP3    H136476   1.841   1.993   1.360
 4947TIP3    H236477   1.875   2.079   1.240
 4948TIP3   OH236478   2.152   3.352   1.736
 4948TIP3    H136479   2.058   3.341   1.748
 4948TIP3    H236480   2.190   3.329   1.820
 4949TIP3   OH236481   2.430   3.479   1.336
 4949TIP3    H136482   2.413   3.572   1.322
 4949TIP3    H236483   2.524   3.469   1.325
 4950TIP3   OH236484   2.831   3.584   1.621
 4950TIP3    H136485   2.839   3.556   1.712
 4950TIP3    H236486   2.910   3.634   1.604
 4951TIP3   OH236487   3.065   3.722   1.575
 4951TIP3    H136488   3.132   3.659   1.547
 4951TIP3    H236489   3.097   3.756   1.658
 4952TIP3   OH236490   3.576   1.939   1.476
 4952TIP3    H136491   3.506   1.950   1.411
 4952TIP3    H236492   3.608   1.850   1.461
 4953TIP3   OH236493   2.130   3.781   1.371
 4953TIP3    H136494   2.048   3.809   1.329
 4953TIP3    H236495   2.132   3.828   1.454
 4954TIP3   OH236496   2.392   3.743   1.287
 4954TIP3    H136497   2.303   3.762   1.317
 4954TIP3    H236498   2.402   3.794   1.207
 4955TIP3   OH236499   2.854   3.710   1.194
 4955TIP3    H136500   2.806   3.752   1.123
 4955TIP3    H236501   2.866   3.780   1.258
 4956TIP3   OH236502   3.090   3.584   1.270
 4956TIP3    H136503   3.008   3.629   1.247
 4956TIP3    H236504   3.156   3.653   1.267
 4957TIP3   OH236505   3.328   3.734   1.279
 4957TIP3    H136506   3.351   3.826   1.265
 4957TIP3    H236507   3.370   3.687   1.207
 4958TIP3   OH236508   2.112   3.634   1.022
 4958TIP3    H136509   2.098   3.618   1.116
 4958TIP3    H236510   2.191   3.583   1.002
 4959TIP3   OH236511   2.325   3.489   0.935
 4959TIP3    H136512   2.314   3.396   0.957
 4959TIP3    H236513   2.413   3.510   0.965
 4960TIP3   OH236514   2.587   3.520   1.028
 4960TIP3    H136515   2.599   3.430   0.998
 4960TIP3    H236516   2.620   3.520   1.118
 4961TIP3   OH236517   2.900   2.097   0.909
 4961TIP3    H136518   2.841   2.025   0.934
 4961TIP3    H236519   2.977   2.053   0.872
 4962TIP3   OH236520   3.415   1.932   0.901
 4962TIP3    H136521   3.481   1.987   0.858
 4962TIP3    H236522   3.338   1.989   0.908
 4963TIP3   OH236523   3.601   2.044   0.734
 4963TIP3    H136524   3.663   1.975   0.713
 4963TIP3    H236525   3.655   2.121   0.752
 4964TIP3   OH236526   2.150   1.958   0.672
 4964TIP3    H136527   2.059   1.943   0.648
 4964TIP3    H236528   2.192   1.872   0.665
 4965TIP3   OH236529   2.025   1.947   0.260
 4965TIP3    H136530   2.097   2.000   0.225
 4965TIP3    H236531   1.984   2.003   0.327
 4966TIP3   OH236532   2.630   1.932   0.693
 4966TIP3    H136533   2.702   1.981   0.653
 4966TIP3    H236534   2.650   1.932   0.786
 4967TIP3   OH236535   3.128   1.969   0.825
 4967TIP3    H136536   3.179   1.948   0.747
 4967TIP3    H236537   3.110   1.885   0.866
 4968TIP3   OH236538   3.303   1.995   0.411
 4968TIP3    H136539   3.228   2.051   0.432
 4968TIP3    H236540   3.272   1.906   0.426
 4969TIP3   OH236541   2.023   3.580   0.367
 4969TIP3    H136542   1.949   3.570   0.308
 4969TIP3    H236543   2.042   3.674   0.366
 4970TIP3   OH236544   2.241   2.083   0.164
 4970TIP3    H136545   2.289   2.015   0.116
 4970TIP3    H236546   2.308   2.130   0.212
 4971TIP3   OH236547   2.726   2.194   0.354
 4971TIP3    H136548   2.763   2.127   0.411
 4971TIP3    H236549   2.740   2.276   0.400
 4972TIP3   OH236550   2.913   3.758   0.219
 4972TIP3    H136551   2.998   3.798   0.201
 4972TIP3    H236552   2.921   3.669   0.183
 4973TIP3   OH236553   3.585   3.651   0.483
 4973TIP3    H136554   3.566   3.562   0.453
 4973TIP3    H236555   3.570   3.705   0.406
 4974TIP3   OH236556   2.158   2.005   1.619
 4974TIP3    H136557   2.095   1.944   1.658
 4974TIP3    H236558   2.241   1.985   1.662
 4975TIP3   OH236559   2.376   1.939   1.766
 4975TIP3    H136560   2.468   1.932   1.738
 4975TIP3    H236561   2.365   1.868   1.829
 4976TIP3   OH236562   2.243   3.678   0.062
 4976TIP3    H136563   2.157   3.700   0.097
 4976TIP3    H236564   2.267   3.597   0.107
 4977TIP3   OH236565   3.188   1.880   1.814
 4977TIP3    H136566   3.185   1.834   1.898
 4977TIP3    H236567   3.281   1.882   1.791
 4978TIP3   OH236568   3.503   3.518   1.679
 4978TIP3    H136569   3.434   3.510   1.613
 4978TIP3    H236570   3.494   3.607   1.712
 4979TIP3   OH236571   4.967   2.902   0.661
 4979TIP3    H136572   4.953   2.997   0.661
 4979TIP3    H236573   4.893   2.867   0.612
 4980TIP3   OH236574   4.833   2.822   1.044
 4980TIP3    H136575   4.852   2.786   1.130
 4980TIP3    H236576   4.784   2.752   0.999
 4981TIP3   OH236577   4.049   2.750   1.196
 4981TIP3    H136578   4.055   2.673   1.253
 4981TIP3    H236579   4.128   2.800   1.216
 4982TIP3   OH236580   5.234   3.119   0.887
 4982TIP3    H136581   5.184   3.055   0.937
 4982TIP3    H236582   5.250   3.190   0.949
 4983TIP3   OH236583   4.195   3.226   0.983
 4983TIP3    H136584   4.162   3.138   0.969
 4983TIP3    H236585   4.287   3.215   1.004
 4984TIP3   OH236586   3.844   2.569   0.523
 4984TIP3    H136587   3.815   2.651   0.562
 4984TIP3    H236588   3.774   2.546   0.461
 4985TIP3   OH236589   3.907   2.811   0.818
 4985TIP3    H136590   3.935   2.722   0.839
 4985TIP3    H236591   3.985   2.864   0.834
 4986TIP3   OH236592   4.954   3.617   0.914
 4986TIP3    H136593   4.987   3.554   0.849
 4986TIP3    H236594   4.920   3.563   0.985
 4987TIP3   OH236595   4.690   3.073   1.073
 4987TIP3    H136596   4.725   2.991   1.037
 4987TIP3    H236597   4.757   3.103   1.134
 4988TIP3   OH236598   5.565   2.228   1.119
 4988TIP3    H136599   5.587   2.271   1.201
 4988TIP3    H236600   5.645   2.233   1.067
 4989TIP3   OH236601   5.006   2.495   1.076
 4989TIP3    H136602   5.009   2.401   1.094
 4989TIP3    H236603   4.977   2.502   0.986
 4990TIP3   OH236604   4.344   2.302   0.811
 4990TIP3    H136605   4.347   2.387   0.768
 4990TIP3    H236606   4.289   2.248   0.754
 4991TIP3   OH236607   5.121   2.337   0.647
 4991TIP3    H136608   5.155   2.297   0.727
 4991TIP3    H236609   5.199   2.369   0.601
 4992TIP3   OH236610   3.980   2.553   0.887
 4992TIP3    H136611   4.044   2.513   0.947
 4992TIP3    H236612   4.002   2.516   0.802
 4993TIP3   OH236613   4.467   2.703   0.852
 4993TIP3    H136614   4.549   2.664   0.883
 4993TIP3    H236615   4.428   2.635   0.797
 4994TIP3   OH236616   5.594   2.421   1.316
 4994TIP3    H136617   5.520   2.466   1.358
 4994TIP3    H236618   5.619   2.353   1.378
 4995TIP3   OH236619   4.212   2.216   1.232
 4995TIP3    H136620   4.185   2.277   1.163
 4995TIP3    H236621   4.141   2.220   1.296
 4996TIP3   OH236622   4.931   3.164   0.581
 4996TIP3    H136623   4.915   3.161   0.486
 4996TIP3    H236624   4.879   3.239   0.611
 4997TIP3   OH236625   4.465   2.993   1.216
 4997TIP3    H136626   4.412   3.064   1.254
 4997TIP3    H236627   4.537   3.037   1.172
 4998TIP3   OH236628   5.210   2.269   0.894
 4998TIP3    H136629   5.140   2.237   0.950
 4998TIP3    H236630   5.270   2.314   0.954
 4999TIP3   OH236631   4.171   2.387   1.015
 4999TIP3    H136632   4.224   2.446   1.068
 4999TIP3    H236633   4.232   2.350   0.951
 5000TIP3   OH236634   4.310   3.198   1.321
 5000TIP3    H136635   4.316   3.294   1.315
 5000TIP3    H236636   4.218   3.182   1.343
 5001TIP3   OH236637   3.876   3.170   0.405
 5001TIP3    H136638   3.875   3.212   0.319
 5001TIP3    H236639   3.903   3.240   0.465
 5002TIP3   OH236640   5.259   3.331   1.073
 5002TIP3    H136641   5.166   3.329   1.095
 5002TIP3    H236642   5.278   3.422   1.055
 5003TIP3   OH236643   5.306   2.115   1.235
 5003TIP3    H136644   5.243   2.170   1.190
 5003TIP3    H236645   5.391   2.143   1.202
 5004TIP3   OH236646   4.561   1.908   0.975
 5004TIP3    H136647   4.538   1.815   0.980
 5004TIP3    H236648   4.483   1.954   1.008
 5005TIP3   OH236649   5.077   3.484   0.696
 5005TIP3    H136650   5.121   3.400   0.682
 5005TIP3    H236651   5.148   3.548   0.699
 5006TIP3   OH236652   5.191   3.238   0.641
 5006TIP3    H136653   5.106   3.201   0.618
 5006TIP3    H236654   5.215   3.193   0.722
 5007TIP3   OH236655   5.374   3.127   1.437
 5007TIP3    H136656   5.364   3.064   1.366
 5007TIP3    H236657   5.387   3.211   1.394
 5008TIP3   OH236658   4.813   2.819   0.441
 5008TIP3    H136659   4.746   2.884   0.419
 5008TIP3    H236660   4.877   2.824   0.370
 5009TIP3   OH236661   4.830   2.645   0.122
 5009TIP3    H136662   4.889   2.694   0.180
 5009TIP3    H236663   4.883   2.574   0.087
 5010TIP3   OH236664   5.541   2.784   1.268
 5010TIP3    H136665   5.470   2.847   1.264
 5010TIP3    H236666   5.603   2.812   1.201
 5011TIP3   OH236667   5.187   2.853   0.512
 5011TIP3    H136668   5.112   2.872   0.568
 5011TIP3    H236669   5.261   2.850   0.572
 5012TIP3   OH236670   5.121   2.629   1.442
 5012TIP3    H136671   5.137   2.690   1.514
 5012TIP3    H236672   5.049   2.668   1.394
 5013TIP3   OH236673   4.331   2.897   0.707
 5013TIP3    H136674   4.310   2.856   0.623
 5013TIP3    H236675   4.384   2.831   0.752
 5014TIP3   OH236676   4.481   3.249   0.971
 5014TIP3    H136677   4.484   3.254   0.875
 5014TIP3    H236678   4.556   3.193   0.994
 5015TIP3   OH236679   4.329   2.802   1.074
 5015TIP3    H136680   4.386   2.776   1.002
 5015TIP3    H236681   4.380   2.865   1.123
 5016TIP3   OH236682   5.001   3.335   1.153
 5016TIP3    H136683   4.984   3.409   1.212
 5016TIP3    H236684   4.957   3.261   1.195
 5017TIP3   OH236685   4.481   3.238   1.540
 5017TIP3    H136686   4.417   3.288   1.590
 5017TIP3    H236687   4.431   3.204   1.465
 5018TIP3   OH236688   5.048   2.769   0.289
 5018TIP3    H136689   5.088   2.801   0.369
 5018TIP3    H236690   5.110   2.794   0.220
 5019TIP3   OH236691   4.159   2.822   1.473
 5019TIP3    H136692   4.172   2.902   1.523
 5019TIP3    H236693   4.064   2.813   1.465
 5020TIP3   OH236694   4.818   3.410   0.635
 5020TIP3    H136695   4.901   3.448   0.662
 5020TIP3    H236696   4.781   3.474   0.574
 5021TIP3   OH236697   4.275   3.403   1.633
 5021TIP3    H136698   4.273   3.432   1.541
 5021TIP3    H236699   4.183   3.384   1.653
 5022TIP3   OH236700   5.412   1.927   0.278
 5022TIP3    H136701   5.326   1.951   0.313
 5022TIP3    H236702   5.447   2.008   0.241
 5023TIP3   OH236703   4.249   2.805   0.446
 5023TIP3    H136704   4.191   2.874   0.414
 5023TIP3    H236705   4.193   2.728   0.453
 5024TIP3   OH236706   5.521   3.359   0.130
 5024TIP3    H136707   5.542   3.453   0.133
 5024TIP3    H236708   5.606   3.315   0.125
 5025TIP3   OH236709   3.831   3.054   1.368
 5025TIP3    H136710   3.778   3.054   1.288
 5025TIP3    H236711   3.847   2.961   1.386
 5026TIP3   OH236712   3.810   3.340   1.047
 5026TIP3    H136713   3.896   3.335   1.088
 5026TIP3    H236714   3.768   3.416   1.088
 5027TIP3   OH236715   5.628   3.390   1.640
 5027TIP3    H136716   5.613   3.296   1.634
 5027TIP3    H236717   5.544   3.426   1.668
 5028TIP3   OH236718   4.716   3.369   1.497
 5028TIP3    H136719   4.718   3.437   1.565
 5028TIP3    H236720   4.635   3.320   1.514
 5029TIP3   OH236721   4.795   3.693   0.483
 5029TIP3    H136722   4.780   3.706   0.389
 5029TIP3    H236723   4.764   3.774   0.523
 5030TIP3   OH236724   4.137   3.582   0.674
 5030TIP3    H136725   4.158   3.551   0.763
 5030TIP3    H236726   4.082   3.513   0.637
 5031TIP3   OH236727   5.095   3.661   0.156
 5031TIP3    H136728   5.155   3.592   0.129
 5031TIP3    H236729   5.086   3.650   0.251
 5032TIP3   OH236730   5.058   3.635   0.436
 5032TIP3    H136731   4.965   3.645   0.455
 5032TIP3    H236732   5.091   3.577   0.506
 5033TIP3   OH236733   5.336   2.539   1.673
 5033TIP3    H136734   5.251   2.545   1.716
 5033TIP3    H236735   5.337   2.453   1.632
 5034TIP3   OH236736   4.048   3.215   1.419
 5034TIP3    H136737   4.084   3.173   1.497
 5034TIP3    H236738   3.971   3.163   1.397
 5035TIP3   OH236739   4.316   2.017   1.067
 5035TIP3    H136740   4.237   2.008   1.013
 5035TIP3    H236741   4.296   2.089   1.127
 5036TIP3   OH236742   4.789   1.997   1.415
 5036TIP3    H136743   4.841   1.944   1.476
 5036TIP3    H236744   4.698   1.981   1.441
 5037TIP3   OH236745   5.073   2.359   1.489
 5037TIP3    H136746   5.035   2.355   1.577
 5037TIP3    H236747   5.096   2.451   1.477
 5038TIP3   OH236748   5.242   2.833   0.107
 5038TIP3    H136749   5.182   2.820   0.035
 5038TIP3    H236750   5.287   2.915   0.086
 5039TIP3   OH236751   4.788   2.223   0.144
 5039TIP3    H136752   4.719   2.219   0.211
 5039TIP3    H236753   4.762   2.157   0.079
 5040TIP3   OH236754   4.320   2.546   1.181
 5040TIP3    H136755   4.258   2.544   1.255
 5040TIP3    H236756   4.321   2.637   1.153
 5041TIP3   OH236757   4.325   2.540   0.676
 5041TIP3    H136758   4.230   2.529   0.674
 5041TIP3    H236759   4.353   2.519   0.587
 5042TIP3   OH236760   4.869   2.569   0.543
 5042TIP3    H136761   4.844   2.655   0.510
 5042TIP3    H236762   4.937   2.539   0.483
 5043TIP3   OH236763   4.817   2.568   1.665
 5043TIP3    H136764   4.848   2.481   1.686
 5043TIP3    H236765   4.878   2.627   1.709
 5044TIP3   OH236766   4.977   2.524   0.798
 5044TIP3    H136767   4.922   2.563   0.729
 5044TIP3    H236768   5.017   2.448   0.756
 5045TIP3   OH236769   4.108   2.529   1.361
 5045TIP3    H136770   4.134   2.563   1.447
 5045TIP3    H236771   4.069   2.444   1.379
 5046TIP3   OH236772   4.442   2.307   0.065
 5046TIP3    H136773   4.418   2.264   0.147
 5046TIP3    H236774   4.427   2.400   0.082
 5047TIP3   OH236775   3.781   2.243   0.749
 5047TIP3    H136776   3.828   2.254   0.832
 5047TIP3    H236777   3.851   2.234   0.684
 5048TIP3   OH236778   3.826   2.353   0.259
 5048TIP3    H136779   3.903   2.390   0.215
 5048TIP3    H236780   3.771   2.428   0.279
 5049TIP3   OH236781   4.903   2.669   1.264
 5049TIP3    H136782   4.945   2.608   1.204
 5049TIP3    H236783   4.841   2.615   1.314
 5050TIP3   OH236784   4.629   2.276   0.771
 5050TIP3    H136785   4.539   2.276   0.803
 5050TIP3    H236786   4.678   2.228   0.837
 5051TIP3   OH236787   4.065   2.453   0.645
 5051TIP3    H136788   3.991   2.479   0.591
 5051TIP3    H236789   4.085   2.363   0.617
 5052TIP3   OH236790   4.390   2.458   0.422
 5052TIP3    H136791   4.485   2.456   0.439
 5052TIP3    H236792   4.382   2.500   0.337
 5053TIP3   OH236793   5.003   2.218   1.073
 5053TIP3    H136794   4.968   2.216   1.162
 5053TIP3    H236795   4.938   2.170   1.020
 5054TIP3   OH236796   4.339   2.549   0.167
 5054TIP3    H136797   4.255   2.557   0.123
 5054TIP3    H236798   4.398   2.606   0.117
 5055TIP3   OH236799   5.369   3.765   1.738
 5055TIP3    H136800   5.396   3.807   1.656
 5055TIP3    H236801   5.434   3.792   1.802
 5056TIP3   OH236802   4.158   3.058   1.626
 5056TIP3    H136803   4.235   3.055   1.683
 5056TIP3    H236804   4.084   3.057   1.686
 5057TIP3   OH236805   4.692   2.578   0.962
 5057TIP3    H136806   4.742   2.510   0.916
 5057TIP3    H236807   4.657   2.534   1.039
 5058TIP3   OH236808   4.172   2.187   0.615
 5058TIP3    H136809   4.121   2.110   0.641
 5058TIP3    H236810   4.222   2.158   0.539
 5059TIP3   OH236811   4.582   2.449   1.184
 5059TIP3    H136812   4.496   2.490   1.193
 5059TIP3    H236813   4.630   2.476   1.262
 5060TIP3   OH236814   4.635   3.017   0.362
 5060TIP3    H136815   4.563   2.978   0.312
 5060TIP3    H236816   4.595   3.045   0.444
 5061TIP3   OH236817   5.345   2.969   1.208
 5061TIP3    H136818   5.401   3.030   1.160
 5061TIP3    H236819   5.265   2.964   1.157
 5062TIP3   OH236820   5.049   2.266   0.220
 5062TIP3    H136821   4.962   2.256   0.182
 5062TIP3    H236822   5.051   2.356   0.251
 5063TIP3   OH236823   4.772   3.064   1.508
 5063TIP3    H136824   4.804   3.014   1.583
 5063TIP3    H236825   4.754   3.151   1.542
 5064TIP3   OH236826   5.082   2.504   0.364
 5064TIP3    H136827   5.170   2.494   0.400
 5064TIP3    H236828   5.081   2.593   0.328
 5065TIP3   OH236829   4.146   2.943   0.910
 5065TIP3    H136830   4.207   2.940   0.837
 5065TIP3    H236831   4.188   2.890   0.979
 5066TIP3   OH236832   4.868   3.164   0.309
 5066TIP3    H136833   4.828   3.250   0.317
 5066TIP3    H236834   4.795   3.102   0.311
 5067TIP3   OH236835   3.878   2.804   1.487
 5067TIP3    H136836   3.895   2.788   1.581
 5067TIP3    H236837   3.807   2.744   1.465
 5068TIP3   OH236838   4.591   2.754   1.655
 5068TIP3    H136839   4.521   2.707   1.609
 5068TIP3    H236840   4.665   2.693   1.653
 5069TIP3   OH236841   4.993   3.326   1.486
 5069TIP3    H136842   4.900   3.335   1.466
 5069TIP3    H236843   5.000   3.350   1.578
 5070TIP3   OH236844   5.543   2.548   0.326
 5070TIP3    H136845   5.484   2.523   0.254
 5070TIP3    H236846   5.568   2.638   0.306
 5071TIP3   OH236847   5.590   3.108   1.603
 5071TIP3    H136848   5.501   3.119   1.568
 5071TIP3    H236849   5.645   3.097   1.526
 5072TIP3   OH236850   5.413   3.395   0.388
 5072TIP3    H136851   5.354   3.326   0.419
 5072TIP3    H236852   5.439   3.367   0.300
 5073TIP3   OH236853   5.117   2.914   1.040
 5073TIP3    H136854   5.021   2.914   1.045
 5073TIP3    H236855   5.139   2.827   1.007
 5074TIP3   OH236856   4.415   3.323   0.701
 5074TIP3    H136857   4.437   3.408   0.661
 5074TIP3    H236858   4.319   3.324   0.707
 5075TIP3   OH236859   3.969   2.809   0.150
 5075TIP3    H136860   4.010   2.863   0.217
 5075TIP3    H236861   3.876   2.805   0.175
 5076TIP3   OH236862   4.500   3.084   0.587
 5076TIP3    H136863   4.483   3.171   0.625
 5076TIP3    H236864   4.443   3.025   0.636
 5077TIP3   OH236865   4.598   3.501   1.280
 5077TIP3    H136866   4.657   3.572   1.255
 5077TIP3    H236867   4.648   3.448   1.342
 5078TIP3   OH236868   4.399   3.591   0.584
 5078TIP3    H136869   4.307   3.599   0.608
 5078TIP3    H236870   4.441   3.667   0.623
 5079TIP3   OH236871   4.895   3.096   1.265
 5079TIP3    H136872   4.843   3.085   1.344
 5079TIP3    H236873   4.979   3.055   1.286
 5080TIP3   OH236874   5.121   3.204   0.172
 5080TIP3    H136875   5.179   3.158   0.232
 5080TIP3    H236876   5.033   3.194   0.210
 5081TIP3   OH236877   5.202   3.517   1.462
 5081TIP3    H136878   5.121   3.466   1.453
 5081TIP3    H236879   5.188   3.594   1.406
 5082TIP3   OH236880   5.591   3.622   0.168
 5082TIP3    H136881   5.650   3.675   0.114
 5082TIP3    H236882   5.523   3.683   0.197
 5083TIP3   OH236883   3.998   2.271   1.403
 5083TIP3    H136884   3.905   2.289   1.391
 5083TIP3    H236885   4.001   2.211   1.477
 5084TIP3   OH236886   5.289   3.058   0.338
 5084TIP3    H136887   5.238   3.000   0.395
 5084TIP3    H236888   5.379   3.049   0.369
 5085TIP3   OH236889   3.991   3.461   1.266
 5085TIP3    H136890   4.014   3.382   1.314
 5085TIP3    H236891   4.003   3.532   1.330
 5086TIP3   OH236892   4.421   3.283   0.270
 5086TIP3    H136893   4.494   3.232   0.304
 5086TIP3    H236894   4.444   3.374   0.288
 5087TIP3   OH236895   4.076   2.991   0.329
 5087TIP3    H136896   4.006   3.036   0.375
 5087TIP3    H236897   4.123   3.061   0.283
 5088TIP3   OH236898   4.893   2.237   1.324
 5088TIP3    H136899   4.964   2.262   1.384
 5088TIP3    H236900   4.861   2.154   1.359
 5089TIP3   OH236901   4.974   2.174   0.476
 5089TIP3    H136902   4.994   2.208   0.389
 5089TIP3    H236903   5.018   2.235   0.536
 5090TIP3   OH236904   4.730   3.397   0.330
 5090TIP3    H136905   4.651   3.449   0.341
 5090TIP3    H236906   4.774   3.436   0.254
 5091TIP3   OH236907   4.645   2.410   0.527
 5091TIP3    H136908   4.722   2.467   0.532
 5091TIP3    H236909   4.637   2.372   0.614
 5092TIP3   OH236910   4.754   2.484   1.401
 5092TIP3    H136911   4.767   2.505   1.494
 5092TIP3    H236912   4.795   2.399   1.390
 5093TIP3   OH236913   4.736   2.084   0.585
 5093TIP3    H136914   4.715   2.149   0.651
 5093TIP3    H236915   4.822   2.109   0.553
 5094TIP3   OH236916   4.494   3.541   0.331
 5094TIP3    H136917   4.493   3.624   0.283
 5094TIP3    H236918   4.460   3.563   0.418
 5095TIP3   OH236919   4.335   2.209   0.307
 5095TIP3    H136920   4.328   2.293   0.351
 5095TIP3    H236921   4.424   2.178   0.328
 5096TIP3   OH236922   5.351   2.303   1.519
 5096TIP3    H136923   5.260   2.285   1.494
 5096TIP3    H236924   5.402   2.234   1.477
 5097TIP3   OH236925   5.187   2.649   0.942
 5097TIP3    H136926   5.116   2.638   0.879
 5097TIP3    H236927   5.156   2.605   1.021
 5098TIP3   OH236928   4.170   3.213   0.181
 5098TIP3    H136929   4.242   3.256   0.229
 5098TIP3    H236930   4.214   3.160   0.115
 5099TIP3   OH236931   4.001   2.532   0.112
 5099TIP3    H136932   3.994   2.626   0.123
 5099TIP3    H236933   3.981   2.518   0.019
 5100TIP3   OH236934   5.336   3.599   1.069
 5100TIP3    H136935   5.323   3.671   1.008
 5100TIP3    H236936   5.431   3.598   1.086
 5101TIP3   OH236937   4.062   1.993   0.952
 5101TIP3    H136938   4.053   1.980   0.857
 5101TIP3    H236939   4.031   1.911   0.990
 5102TIP3   OH236940   3.945   3.398   0.565
 5102TIP3    H136941   3.892   3.428   0.639
 5102TIP3    H236942   3.929   3.464   0.497
 5103TIP3   OH236943   3.917   3.671   1.692
 5103TIP3    H136944   3.977   3.645   1.762
 5103TIP3    H236945   3.865   3.592   1.675
 5104TIP3   OH236946   4.328   3.477   1.892
 5104TIP3    H136947   4.421   3.497   1.909
 5104TIP3    H236948   4.326   3.451   1.800
 5105TIP3   OH236949   4.846   3.477   0.097
 5105TIP3    H136950   4.785   3.423   0.047
 5105TIP3    H236951   4.930   3.466   0.052
 5106TIP3   OH236952   4.990   3.407   1.745
 5106TIP3    H136953   4.949   3.328   1.780
 5106TIP3    H236954   5.055   3.432   1.811
 5107TIP3   OH236955   5.238   3.442   0.066
 5107TIP3    H136956   5.195   3.363   0.100
 5107TIP3    H236957   5.332   3.423   0.071
 5108TIP3   OH236958   3.921   3.067   1.765
 5108TIP3    H136959   3.913   2.976   1.795
 5108TIP3    H236960   3.836   3.087   1.727
 5109TIP3   OH236961   4.314   3.031   0.036
 5109TIP3    H136962   4.356   2.992   0.113
 5109TIP3    H236963   4.347   2.980  -0.038
 5110TIP3   OH236964   4.472   3.006   1.701
 5110TIP3    H136965   4.506   3.074   1.644
 5110TIP3    H236966   4.526   2.929   1.681
 5111TIP3   OH236967   5.107   3.067   1.484
 5111TIP3    H136968   5.199   3.091   1.483
 5111TIP3    H236969   5.061   3.151   1.489
 5112TIP3   OH236970   3.957   2.765   1.759
 5112TIP3    H136971   4.009   2.685   1.761
 5112TIP3    H236972   3.943   2.787   1.851
 5113TIP3   OH236973   4.430   2.878   0.237
 5113TIP3    H136974   4.380   2.838   0.308
 5113TIP3    H236975   4.471   2.804   0.192
 5114TIP3   OH236976   4.379   2.649   1.484
 5114TIP3    H136977   4.306   2.712   1.486
 5114TIP3    H236978   4.440   2.685   1.420
 5115TIP3   OH236979   4.558   2.686   0.069
 5115TIP3    H136980   4.563   2.686  -0.027
 5115TIP3    H236981   4.648   2.672   0.097
 5116TIP3   OH236982   4.939   2.907   1.868
 5116TIP3    H136983   5.025   2.872   1.843
 5116TIP3    H236984   4.948   2.928   1.961
 5117TIP3   OH236985   5.443   3.001  -0.010
 5117TIP3    H136986   5.514   2.937  -0.010
 5117TIP3    H236987   5.471   3.067   0.055
 5118TIP3   OH236988   4.432   2.399   1.587
 5118TIP3    H136989   4.446   2.335   1.517
 5118TIP3    H236990   4.416   2.482   1.542
 5119TIP3   OH236991   4.461   2.233   1.353
 5119TIP3    H136992   4.513   2.281   1.289
 5119TIP3    H236993   4.374   2.228   1.314
 5120TIP3   OH236994   4.569   2.763   1.326
 5120TIP3    H136995   4.655   2.784   1.362
 5120TIP3    H236996   4.536   2.846   1.292
 5121TIP3   OH236997   5.090   2.536   1.856
 5121TIP3    H136998   5.145   2.458   1.858
 5121TIP3    H236999   5.081   2.562   1.948
 5122TIP3   OH237000   5.168   2.832   1.624
 5122TIP3    H137001   5.134   2.913   1.584
 5122TIP3    H237002   5.263   2.841   1.619
 5123TIP3   OH237003   4.247   2.486   1.774
 5123TIP3    H137004   4.174   2.423   1.769
 5123TIP3    H237005   4.313   2.451   1.714
 5124TIP3   OH237006   4.510   1.965   1.443
 5124TIP3    H137007   4.492   2.057   1.421
 5124TIP3    H237008   4.444   1.916   1.395
 5125TIP3   OH237009   4.902   2.305   1.708
 5125TIP3    H137010   4.846   2.232   1.683
 5125TIP3    H237011   4.957   2.270   1.778
 5126TIP3   OH237012   5.023   2.145   1.904
 5126TIP3    H137013   5.036   2.054   1.878
 5126TIP3    H237014   4.981   2.139   1.990
 5127TIP3   OH237015   4.056   2.274   1.737
 5127TIP3    H137016   4.052   2.188   1.695
 5127TIP3    H237017   4.074   2.255   1.829
 5128TIP3   OH237018   4.497   1.842   1.703
 5128TIP3    H137019   4.575   1.786   1.701
 5128TIP3    H237020   4.497   1.886   1.618
 5129TIP3   OH237021   4.538   3.748   0.150
 5129TIP3    H137022   4.631   3.752   0.173
 5129TIP3    H237023   4.533   3.788   0.063
 5130TIP3   OH237024   3.899   3.231   0.119
 5130TIP3    H137025   3.990   3.241   0.144
 5130TIP3    H237026   3.901   3.191   0.032
 5131TIP3   OH237027   3.778   3.731   0.661
 5131TIP3    H137028   3.719   3.701   0.591
 5131TIP3    H237029   3.794   3.652   0.713
 5132TIP3   OH237030   3.845   3.510   0.816
 5132TIP3    H137031   3.809   3.435   0.862
 5132TIP3    H237032   3.893   3.559   0.883
 5133TIP3   OH237033   5.602   3.608   1.143
 5133TIP3    H137034   5.596   3.609   1.238
 5133TIP3    H237035   5.673   3.668   1.122
 5134TIP3   OH237036   5.553   3.576   1.417
 5134TIP3    H137037   5.499   3.505   1.385
 5134TIP3    H237038   5.600   3.539   1.492
 5135TIP3   OH237039   5.548   2.992   0.424
 5135TIP3    H137040   5.618   3.057   0.426
 5135TIP3    H237041   5.564   2.936   0.500
 5136TIP3   OH237042   5.590   2.799   0.625
 5136TIP3    H137043   5.519   2.750   0.667
 5136TIP3    H237044   5.652   2.816   0.696
 5137TIP3   OH237045   5.574   3.106   1.130
 5137TIP3    H137046   5.634   3.042   1.091
 5137TIP3    H237047   5.604   3.190   1.097
 5138TIP3   OH237048   5.389   3.375   1.319
 5138TIP3    H137049   5.317   3.417   1.366
 5138TIP3    H237050   5.353   3.356   1.232
 5139TIP3   OH237051   5.556   2.806   0.223
 5139TIP3    H137052   5.466   2.793   0.191
 5139TIP3    H237053   5.548   2.874   0.289
 5140TIP3   OH237054   5.392   2.517   0.104
 5140TIP3    H137055   5.455   2.534   0.034
 5140TIP3    H237056   5.360   2.429   0.085
 5141TIP3   OH237057   5.379   2.627   0.723
 5141TIP3    H137058   5.380   2.561   0.653
 5141TIP3    H237059   5.286   2.644   0.737
 5142TIP3   OH237060   3.831   2.862   1.079
 5142TIP3    H137061   3.844   2.848   0.985
 5142TIP3    H237062   3.911   2.830   1.120
 5143TIP3   OH237063   5.438   2.866   1.627
 5143TIP3    H137064   5.492   2.787   1.636
 5143TIP3    H237065   5.501   2.938   1.631
 5144TIP3   OH237066   5.588   2.635   1.639
 5144TIP3    H137067   5.501   2.599   1.655
 5144TIP3    H237068   5.648   2.561   1.656
 5145TIP3   OH237069   5.301   2.266   0.069
 5145TIP3    H137070   5.374   2.210   0.095
 5145TIP3    H237071   5.226   2.233   0.116
 5146TIP3   OH237072   5.349   2.441   0.505
 5146TIP3    H137073   5.367   2.347   0.504
 5146TIP3    H237074   5.415   2.478   0.446
 5147TIP3   OH237075   5.366   2.411   1.073
 5147TIP3    H137076   5.436   2.346   1.088
 5147TIP3    H237077   5.351   2.451   1.158
 5148TIP3   OH237078   5.345   2.582   1.282
 5148TIP3    H137079   5.275   2.592   1.346
 5148TIP3    H237080   5.409   2.649   1.305
 5149TIP3   OH237081   3.826   2.393   1.646
 5149TIP3    H137082   3.911   2.373   1.686
 5149TIP3    H237083   3.773   2.316   1.663
 5150TIP3   OH237084   5.387   2.168   0.506
 5150TIP3    H137085   5.410   2.128   0.590
 5150TIP3    H237086   5.321   2.110   0.469
 5151TIP3   OH237087   3.929   2.237   0.983
 5151TIP3    H137088   3.969   2.149   0.985
 5151TIP3    H237089   4.001   2.296   1.002
 5152TIP3   OH237090   3.745   2.524   1.041
 5152TIP3    H137091   3.818   2.526   0.979
 5152TIP3    H237092   3.772   2.582   1.113
 5153TIP3   OH237093   5.462   2.184   1.752
 5153TIP3    H137094   5.435   2.227   1.670
 5153TIP3    H237095   5.543   2.137   1.729
 5154TIP3   OH237096   5.541   2.145   0.157
 5154TIP3    H137097   5.587   2.089   0.095
 5154TIP3    H237098   5.606   2.212   0.182
 5155TIP3   OH237099   3.797   2.140   0.438
 5155TIP3    H137100   3.706   2.151   0.466
 5155TIP3    H237101   3.816   2.219   0.387
 5156TIP3   OH237102   5.268   3.672   0.676
 5156TIP3    H137103   5.342   3.665   0.615
 5156TIP3    H237104   5.305   3.715   0.753
 5157TIP3   OH237105   3.797   2.003   1.303
 5157TIP3    H137106   3.731   1.991   1.372
 5157TIP3    H237107   3.759   2.070   1.246
 5158TIP3   OH237108   4.016   3.355   1.734
 5158TIP3    H137109   3.929   3.371   1.698
 5158TIP3    H237110   4.008   3.270   1.779
 5159TIP3   OH237111   4.334   3.473   1.361
 5159TIP3    H137112   4.304   3.559   1.333
 5159TIP3    H237113   4.428   3.473   1.342
 5160TIP3   OH237114   4.723   3.582   1.685
 5160TIP3    H137115   4.751   3.548   1.770
 5160TIP3    H237116   4.798   3.632   1.653
 5161TIP3   OH237117   4.950   3.724   1.604
 5161TIP3    H137118   5.008   3.655   1.572
 5161TIP3    H237119   4.991   3.755   1.685
 5162TIP3   OH237120   5.432   1.908   1.488
 5162TIP3    H137121   5.492   1.981   1.476
 5162TIP3    H237122   5.481   1.831   1.460
 5163TIP3   OH237123   4.029   3.757   1.365
 5163TIP3    H137124   3.951   3.798   1.328
 5163TIP3    H237125   4.038   3.797   1.452
 5164TIP3   OH237126   4.291   3.735   1.284
 5164TIP3    H137127   4.199   3.745   1.308
 5164TIP3    H237128   4.299   3.781   1.200
 5165TIP3   OH237129   4.749   3.715   1.187
 5165TIP3    H137130   4.696   3.755   1.118
 5165TIP3    H237131   4.760   3.784   1.252
 5166TIP3   OH237132   4.976   3.584   1.274
 5166TIP3    H137133   4.897   3.628   1.244
 5166TIP3    H237134   5.045   3.651   1.269
 5167TIP3   OH237135   5.214   3.734   1.278
 5167TIP3    H137136   5.237   3.826   1.261
 5167TIP3    H237137   5.255   3.686   1.206
 5168TIP3   OH237138   3.998   3.619   1.035
 5168TIP3    H137139   3.990   3.573   1.118
 5168TIP3    H237140   4.077   3.582   0.994
 5169TIP3   OH237141   4.213   3.493   0.923
 5169TIP3    H137142   4.199   3.401   0.946
 5169TIP3    H237143   4.299   3.514   0.959
 5170TIP3   OH237144   4.472   3.523   1.031
 5170TIP3    H137145   4.483   3.433   1.001
 5170TIP3    H237146   4.504   3.523   1.121
 5171TIP3   OH237147   4.789   2.093   0.909
 5171TIP3    H137148   4.729   2.022   0.933
 5171TIP3    H237149   4.865   2.049   0.872
 5172TIP3   OH237150   5.306   1.930   0.905
 5172TIP3    H137151   5.364   1.991   0.859
 5172TIP3    H237152   5.221   1.974   0.905
 5173TIP3   OH237153   5.483   2.054   0.736
 5173TIP3    H137154   5.547   1.985   0.716
 5173TIP3    H237155   5.536   2.131   0.756
 5174TIP3   OH237156   4.032   1.954   0.677
 5174TIP3    H137157   3.940   1.934   0.659
 5174TIP3    H237158   4.076   1.869   0.667
 5175TIP3   OH237159   3.893   1.962   0.247
 5175TIP3    H137160   3.974   2.006   0.220
 5175TIP3    H237161   3.860   2.014   0.320
 5176TIP3   OH237162   4.515   1.933   0.690
 5176TIP3    H137163   4.590   1.980   0.654
 5176TIP3    H237164   4.532   1.928   0.784
 5177TIP3   OH237165   5.026   1.973   0.823
 5177TIP3    H137166   5.065   1.948   0.740
 5177TIP3    H237167   5.002   1.890   0.865
 5178TIP3   OH237168   5.185   1.995   0.419
 5178TIP3    H137169   5.106   2.048   0.434
 5178TIP3    H237170   5.156   1.905   0.432
 5179TIP3   OH237171   3.904   3.582   0.368
 5179TIP3    H137172   3.829   3.567   0.310
 5179TIP3    H237173   3.923   3.675   0.360
 5180TIP3   OH237174   4.126   2.080   0.168
 5180TIP3    H137175   4.168   2.071   0.083
 5180TIP3    H237176   4.190   2.128   0.222
 5181TIP3   OH237177   4.607   2.194   0.360
 5181TIP3    H137178   4.642   2.127   0.419
 5181TIP3    H237179   4.621   2.277   0.407
 5182TIP3   OH237180   4.808   3.726   0.204
 5182TIP3    H137181   4.892   3.768   0.187
 5182TIP3    H237182   4.817   3.639   0.164
 5183TIP3   OH237183   5.471   3.643   0.489
 5183TIP3    H137184   5.455   3.555   0.457
 5183TIP3    H237185   5.460   3.699   0.412
 5184TIP3   OH237186   4.038   2.004   1.636
 5184TIP3    H137187   3.976   1.939   1.670
 5184TIP3    H237188   4.118   1.989   1.687
 5185TIP3   OH237189   4.253   1.953   1.804
 5185TIP3    H137190   4.336   1.922   1.770
 5185TIP3    H237191   4.237   1.900   1.882
 5186TIP3   OH237192   4.114   3.676   0.047
 5186TIP3    H137193   4.055   3.681   0.122
 5186TIP3    H237194   4.165   3.596   0.061
 5187TIP3   OH237195   5.077   1.881   1.829
 5187TIP3    H137196   5.074   1.798   1.877
 5187TIP3    H237197   5.167   1.887   1.797
 5188TIP3   OH237198   5.374   3.494   1.683
 5188TIP3    H137199   5.311   3.489   1.611
 5188TIP3    H237200   5.371   3.585   1.713
 5189TIP3   OH237201   6.835   2.890   0.665
 5189TIP3    H137202   6.833   2.986   0.662
 5189TIP3    H237203   6.771   2.862   0.600
 5190TIP3   OH237204   6.713   2.822   1.057
 5190TIP3    H137205   6.741   2.787   1.141
 5190TIP3    H237206   6.674   2.748   1.011
 5191TIP3   OH237207   5.964   2.780   1.201
 5191TIP3    H137208   5.953   2.690   1.232
 5191TIP3    H237209   5.994   2.828   1.278
 5192TIP3   OH237210   7.101   3.135   0.890
 5192TIP3    H137211   7.067   3.058   0.936
 5192TIP3    H237212   7.122   3.197   0.960
 5193TIP3   OH237213   6.088   3.240   0.988
 5193TIP3    H137214   6.046   3.166   1.032
 5193TIP3    H237215   6.182   3.227   1.003
 5194TIP3   OH237216   5.729   2.571   0.532
 5194TIP3    H137217   5.697   2.656   0.563
 5194TIP3    H237218   5.666   2.543   0.467
 5195TIP3   OH237219   5.788   2.805   0.822
 5195TIP3    H137220   5.816   2.715   0.836
 5195TIP3    H237221   5.866   2.858   0.839
 5196TIP3   OH237222   6.827   3.605   0.919
 5196TIP3    H137223   6.851   3.539   0.855
 5196TIP3    H237224   6.802   3.556   0.997
 5197TIP3   OH237225   6.571   3.069   1.076
 5197TIP3    H137226   6.610   2.987   1.045
 5197TIP3    H237227   6.637   3.107   1.134
 5198TIP3   OH237228   6.887   2.488   1.083
 5198TIP3    H137229   6.897   2.394   1.098
 5198TIP3    H237230   6.871   2.496   0.989
 5199TIP3   OH237231   6.216   2.310   0.811
 5199TIP3    H137232   6.211   2.391   0.760
 5199TIP3    H237233   6.179   2.243   0.754
 5200TIP3   OH237234   6.989   2.335   0.648
 5200TIP3    H137235   7.029   2.286   0.720
 5200TIP3    H237236   7.062   2.361   0.593
 5201TIP3   OH237237   5.873   2.550   0.882
 5201TIP3    H137238   5.935   2.506   0.940
 5201TIP3    H237239   5.883   2.506   0.798
 5202TIP3   OH237240   6.414   2.657   0.775
 5202TIP3    H137241   6.488   2.641   0.832
 5202TIP3    H237242   6.353   2.585   0.794
 5203TIP3   OH237243   6.104   2.211   1.229
 5203TIP3    H137244   6.065   2.271   1.166
 5203TIP3    H237245   6.044   2.210   1.303
 5204TIP3   OH237246   6.824   3.148   0.573
 5204TIP3    H137247   6.806   3.156   0.479
 5204TIP3    H237248   6.767   3.213   0.614
 5205TIP3   OH237249   6.342   2.995   1.216
 5205TIP3    H137250   6.291   3.064   1.257
 5205TIP3    H237251   6.417   3.040   1.177
 5206TIP3   OH237252   7.083   2.228   0.881
 5206TIP3    H137253   7.010   2.205   0.938
 5206TIP3    H237254   7.143   2.277   0.937
 5207TIP3   OH237255   6.053   2.390   1.019
 5207TIP3    H137256   6.109   2.446   1.072
 5207TIP3    H237257   6.112   2.351   0.955
 5208TIP3   OH237258   6.192   3.196   1.327
 5208TIP3    H137259   6.203   3.291   1.322
 5208TIP3    H237260   6.104   3.184   1.361
 5209TIP3   OH237261   5.766   3.167   0.404
 5209TIP3    H137262   5.759   3.208   0.318
 5209TIP3    H237263   5.788   3.239   0.464
 5210TIP3   OH237264   7.144   3.340   1.089
 5210TIP3    H137265   7.050   3.336   1.103
 5210TIP3    H237266   7.163   3.432   1.073
 5211TIP3   OH237267   7.146   2.108   1.166
 5211TIP3    H137268   7.053   2.126   1.151
 5211TIP3    H237269   7.189   2.192   1.147
 5212TIP3   OH237270   6.442   1.909   0.967
 5212TIP3    H137271   6.423   1.815   0.973
 5212TIP3    H237272   6.364   1.952   1.002
 5213TIP3   OH237273   6.935   3.465   0.697
 5213TIP3    H137274   6.977   3.380   0.684
 5213TIP3    H237275   7.008   3.526   0.712
 5214TIP3   OH237276   7.079   3.240   0.637
 5214TIP3    H137277   7.003   3.190   0.606
 5214TIP3    H237278   7.103   3.199   0.720
 5215TIP3   OH237279   7.237   3.073   1.465
 5215TIP3    H137280   7.229   3.032   1.379
 5215TIP3    H237281   7.261   3.164   1.446
 5216TIP3   OH237282   6.700   2.820   0.431
 5216TIP3    H137283   6.640   2.889   0.402
 5216TIP3    H237284   6.768   2.818   0.364
 5217TIP3   OH237285   6.719   2.637   0.126
 5217TIP3    H137286   6.782   2.684   0.180
 5217TIP3    H237287   6.771   2.570   0.081
 5218TIP3   OH237288   7.056   2.850   0.506
 5218TIP3    H137289   6.988   2.871   0.569
 5218TIP3    H237290   7.114   2.789   0.552
 5219TIP3   OH237291   7.015   2.651   1.450
 5219TIP3    H137292   7.000   2.714   1.521
 5219TIP3    H237293   6.946   2.670   1.387
 5220TIP3   OH237294   6.220   2.881   0.747
 5220TIP3    H137295   6.129   2.900   0.771
 5220TIP3    H237296   6.260   2.850   0.829
 5221TIP3   OH237297   6.368   3.241   0.968
 5221TIP3    H137298   6.378   3.250   0.873
 5221TIP3    H237299   6.443   3.188   0.995
 5222TIP3   OH237300   6.286   2.815   1.020
 5222TIP3    H137301   6.366   2.763   1.017
 5222TIP3    H237302   6.301   2.876   1.093
 5223TIP3   OH237303   6.877   3.343   1.146
 5223TIP3    H137304   6.863   3.415   1.209
 5223TIP3    H237305   6.836   3.267   1.187
 5224TIP3   OH237306   6.357   3.215   1.556
 5224TIP3    H137307   6.296   3.272   1.602
 5224TIP3    H237308   6.309   3.187   1.478
 5225TIP3   OH237309   6.933   2.774   0.273
 5225TIP3    H137310   6.977   2.804   0.353
 5225TIP3    H237311   6.984   2.812   0.202
 5226TIP3   OH237312   6.028   2.839   1.477
 5226TIP3    H137313   6.042   2.909   1.541
 5226TIP3    H237314   5.935   2.817   1.484
 5227TIP3   OH237315   6.677   3.363   0.657
 5227TIP3    H137316   6.752   3.420   0.677
 5227TIP3    H237317   6.644   3.394   0.573
 5228TIP3   OH237318   6.160   3.392   1.635
 5228TIP3    H137319   6.157   3.429   1.546
 5228TIP3    H237320   6.069   3.391   1.664
 5229TIP3   OH237321   7.273   1.874   0.317
 5229TIP3    H137322   7.187   1.916   0.329
 5229TIP3    H237323   7.323   1.938   0.266
 5230TIP3   OH237324   6.130   2.789   0.433
 5230TIP3    H137325   6.081   2.868   0.409
 5230TIP3    H237326   6.073   2.716   0.409
 5231TIP3   OH237327   5.722   3.049   1.372
 5231TIP3    H137328   5.664   3.057   1.297
 5231TIP3    H237329   5.728   2.955   1.388
 5232TIP3   OH237330   5.691   3.354   1.063
 5232TIP3    H137331   5.770   3.361   1.117
 5232TIP3    H237332   5.638   3.430   1.087
 5233TIP3   OH237333   6.591   3.339   1.488
 5233TIP3    H137334   6.603   3.410   1.551
 5233TIP3    H237335   6.508   3.299   1.512
 5234TIP3   OH237336   6.685   3.719   0.483
 5234TIP3    H137337   6.667   3.731   0.389
 5234TIP3    H237338   6.649   3.797   0.524
 5235TIP3   OH237339   6.020   3.585   0.671
 5235TIP3    H137340   6.039   3.555   0.759
 5235TIP3    H237341   5.963   3.517   0.634
 5236TIP3   OH237342   6.959   3.698   0.190
 5236TIP3    H137343   6.949   3.641   0.114
 5236TIP3    H237344   6.961   3.638   0.265
 5237TIP3   OH237345   6.919   3.589   0.444
 5237TIP3    H137346   6.831   3.622   0.460
 5237TIP3    H237347   6.939   3.535   0.521
 5238TIP3   OH237348   7.171   2.546   1.671
 5238TIP3    H137349   7.135   2.588   1.593
 5238TIP3    H237350   7.246   2.496   1.639
 5239TIP3   OH237351   5.943   3.199   1.438
 5239TIP3    H137352   5.964   3.168   1.526
 5239TIP3    H237353   5.864   3.150   1.414
 5240TIP3   OH237354   6.201   2.016   1.057
 5240TIP3    H137355   6.120   2.007   1.007
 5240TIP3    H237356   6.181   2.084   1.122
 5241TIP3   OH237357   6.676   1.996   1.409
 5241TIP3    H137358   6.725   1.952   1.479
 5241TIP3    H237359   6.584   1.988   1.436
 5242TIP3   OH237360   7.007   2.363   1.461
 5242TIP3    H137361   6.948   2.348   1.535
 5242TIP3    H237362   7.013   2.459   1.453
 5243TIP3   OH237363   7.079   2.904   0.076
 5243TIP3    H137364   7.151   2.907   0.012
 5243TIP3    H237365   7.073   2.993   0.109
 5244TIP3   OH237366   6.672   2.223   0.150
 5244TIP3    H137367   6.600   2.212   0.212
 5244TIP3    H237368   6.633   2.206   0.064
 5245TIP3   OH237369   6.207   2.559   1.174
 5245TIP3    H137370   6.148   2.553   1.249
 5245TIP3    H237371   6.208   2.651   1.152
 5246TIP3   OH237372   6.183   2.535   0.651
 5246TIP3    H137373   6.091   2.507   0.647
 5246TIP3    H237374   6.219   2.510   0.566
 5247TIP3   OH237375   6.759   2.572   0.544
 5247TIP3    H137376   6.737   2.658   0.509
 5247TIP3    H237377   6.831   2.541   0.488
 5248TIP3   OH237378   6.657   2.559   1.697
 5248TIP3    H137379   6.598   2.568   1.772
 5248TIP3    H237380   6.745   2.561   1.736
 5249TIP3   OH237381   6.855   2.517   0.812
 5249TIP3    H137382   6.816   2.576   0.748
 5249TIP3    H237383   6.894   2.447   0.760
 5250TIP3   OH237384   5.990   2.531   1.350
 5250TIP3    H137385   5.990   2.576   1.435
 5250TIP3    H237386   5.958   2.443   1.370
 5251TIP3   OH237387   6.367   2.300   0.057
 5251TIP3    H137388   6.320   2.270   0.135
 5251TIP3    H237389   6.377   2.395   0.071
 5252TIP3   OH237390   5.660   2.260   0.749
 5252TIP3    H137391   5.719   2.257   0.825
 5252TIP3    H237392   5.713   2.226   0.677
 5253TIP3   OH237393   5.725   2.341   0.258
 5253TIP3    H137394   5.802   2.375   0.211
 5253TIP3    H237395   5.672   2.419   0.276
 5254TIP3   OH237396   6.795   2.663   1.272
 5254TIP3    H137397   6.831   2.603   1.208
 5254TIP3    H237398   6.736   2.609   1.325
 5255TIP3   OH237399   6.500   2.298   0.783
 5255TIP3    H137400   6.410   2.289   0.814
 5255TIP3    H237401   6.551   2.238   0.837
 5256TIP3   OH237402   5.934   2.426   0.636
 5256TIP3    H137403   5.860   2.469   0.594
 5256TIP3    H237404   5.935   2.338   0.600
 5257TIP3   OH237405   6.338   2.565   0.427
 5257TIP3    H137406   6.412   2.506   0.436
 5257TIP3    H237407   6.306   2.550   0.338
 5258TIP3   OH237408   6.880   2.203   1.079
 5258TIP3    H137409   6.843   2.213   1.166
 5258TIP3    H237410   6.808   2.169   1.026
 5259TIP3   OH237411   6.208   2.554   0.180
 5259TIP3    H137412   6.120   2.534   0.149
 5259TIP3    H237413   6.253   2.590   0.104
 5260TIP3   OH237414   7.231   3.793   1.792
 5260TIP3    H137415   7.256   3.879   1.757
 5260TIP3    H237416   7.250   3.799   1.885
 5261TIP3   OH237417   6.011   3.049   1.680
 5261TIP3    H137418   6.079   3.063   1.746
 5261TIP3    H237419   5.930   3.038   1.730
 5262TIP3   OH237420   6.593   2.580   0.969
 5262TIP3    H137421   6.662   2.525   0.932
 5262TIP3    H237422   6.559   2.531   1.043
 5263TIP3   OH237423   6.116   2.143   0.610
 5263TIP3    H137424   6.040   2.087   0.624
 5263TIP3    H237425   6.190   2.082   0.610
 5264TIP3   OH237426   6.474   2.457   1.191
 5264TIP3    H137427   6.388   2.500   1.199
 5264TIP3    H237428   6.520   2.482   1.271
 5265TIP3   OH237429   6.515   3.020   0.358
 5265TIP3    H137430   6.450   2.973   0.307
 5265TIP3    H237431   6.471   3.041   0.441
 5266TIP3   OH237432   7.217   2.971   1.210
 5266TIP3    H137433   7.284   2.941   1.149
 5266TIP3    H237434   7.134   2.957   1.164
 5267TIP3   OH237435   6.936   2.270   0.213
 5267TIP3    H137436   6.849   2.257   0.177
 5267TIP3    H237437   6.936   2.360   0.246
 5268TIP3   OH237438   6.648   3.046   1.493
 5268TIP3    H137439   6.678   3.009   1.576
 5268TIP3    H237440   6.623   3.136   1.514
 5269TIP3   OH237441   6.969   2.506   0.365
 5269TIP3    H137442   7.056   2.488   0.400
 5269TIP3    H237443   6.976   2.593   0.326
 5270TIP3   OH237444   6.022   2.901   0.955
 5270TIP3    H137445   6.116   2.912   0.968
 5270TIP3    H237446   5.992   2.855   1.033
 5271TIP3   OH237447   6.742   3.175   0.305
 5271TIP3    H137448   6.705   3.261   0.326
 5271TIP3    H237449   6.668   3.115   0.312
 5272TIP3   OH237450   5.753   2.786   1.465
 5272TIP3    H137451   5.742   2.748   1.553
 5272TIP3    H237452   5.679   2.751   1.415
 5273TIP3   OH237453   6.452   2.770   1.665
 5273TIP3    H137454   6.383   2.723   1.618
 5273TIP3    H237455   6.532   2.720   1.649
 5274TIP3   OH237456   6.878   3.329   1.500
 5274TIP3    H137457   6.786   3.333   1.473
 5274TIP3    H237458   6.876   3.343   1.594
 5275TIP3   OH237459   7.287   3.430   0.346
 5275TIP3    H137460   7.227   3.382   0.402
 5275TIP3    H237461   7.247   3.427   0.259
 5276TIP3   OH237462   7.003   2.907   1.035
 5276TIP3    H137463   6.908   2.897   1.030
 5276TIP3    H237464   7.037   2.830   0.990
 5277TIP3   OH237465   6.305   3.313   0.695
 5277TIP3    H137466   6.332   3.399   0.661
 5277TIP3    H237467   6.211   3.323   0.713
 5278TIP3   OH237468   5.839   2.780   0.176
 5278TIP3    H137469   5.878   2.851   0.227
 5278TIP3    H237470   5.745   2.794   0.183
 5279TIP3   OH237471   6.370   3.060   0.589
 5279TIP3    H137472   6.365   3.152   0.616
 5279TIP3    H237473   6.317   3.013   0.653
 5280TIP3   OH237474   6.484   3.495   1.278
 5280TIP3    H137475   6.542   3.569   1.259
 5280TIP3    H237476   6.534   3.439   1.336
 5281TIP3   OH237477   6.285   3.587   0.595
 5281TIP3    H137478   6.193   3.599   0.615
 5281TIP3    H237479   6.328   3.664   0.631
 5282TIP3   OH237480   6.780   3.104   1.258
 5282TIP3    H137481   6.734   3.082   1.339
 5282TIP3    H237482   6.862   3.056   1.264
 5283TIP3   OH237483   7.020   3.172   0.153
 5283TIP3    H137484   7.071   3.143   0.228
 5283TIP3    H237485   6.931   3.184   0.187
 5284TIP3   OH237486   7.094   3.525   1.466
 5284TIP3    H137487   7.016   3.471   1.457
 5284TIP3    H237488   7.082   3.594   1.401
 5285TIP3   OH237489   5.929   2.252   1.436
 5285TIP3    H137490   5.835   2.235   1.435
 5285TIP3    H237491   5.962   2.204   1.512
 5286TIP3   OH237492   7.168   3.057   0.350
 5286TIP3    H137493   7.135   2.992   0.412
 5286TIP3    H237494   7.255   3.079   0.382
 5287TIP3   OH237495   5.879   3.458   1.267
 5287TIP3    H137496   5.904   3.382   1.319
 5287TIP3    H237497   5.887   3.533   1.326
 5288TIP3   OH237498   6.312   3.280   0.252
 5288TIP3    H137499   6.384   3.233   0.294
 5288TIP3    H237500   6.324   3.371   0.277
 5289TIP3   OH237501   5.963   2.986   0.328
 5289TIP3    H137502   5.893   3.032   0.374
 5289TIP3    H237503   6.007   3.054   0.277
 5290TIP3   OH237504   6.782   2.239   1.330
 5290TIP3    H137505   6.854   2.259   1.390
 5290TIP3    H237506   6.743   2.158   1.366
 5291TIP3   OH237507   6.845   2.179   0.467
 5291TIP3    H137508   6.868   2.213   0.381
 5291TIP3    H237509   6.886   2.239   0.529
 5292TIP3   OH237510   6.594   3.403   0.396
 5292TIP3    H137511   6.510   3.448   0.403
 5292TIP3    H237512   6.632   3.435   0.314
 5293TIP3   OH237513   6.540   2.406   0.532
 5293TIP3    H137514   6.619   2.460   0.537
 5293TIP3    H237515   6.528   2.372   0.620
 5294TIP3   OH237516   6.642   2.487   1.420
 5294TIP3    H137517   6.642   2.504   1.514
 5294TIP3    H237518   6.678   2.400   1.411
 5295TIP3   OH237519   6.626   2.067   0.590
 5295TIP3    H137520   6.632   2.105   0.678
 5295TIP3    H237521   6.700   2.103   0.543
 5296TIP3   OH237522   6.358   3.536   0.336
 5296TIP3    H137523   6.364   3.618   0.286
 5296TIP3    H237524   6.326   3.563   0.422
 5297TIP3   OH237525   6.223   2.204   0.280
 5297TIP3    H137526   6.172   2.216   0.360
 5297TIP3    H237527   6.311   2.184   0.310
 5298TIP3   OH237528   7.221   2.182   1.508
 5298TIP3    H137529   7.144   2.232   1.481
 5298TIP3    H237530   7.280   2.248   1.546
 5299TIP3   OH237531   7.088   2.662   0.921
 5299TIP3    H137532   7.008   2.613   0.904
 5299TIP3    H237533   7.135   2.610   0.985
 5300TIP3   OH237534   6.054   3.199   0.173
 5300TIP3    H137535   6.118   3.254   0.218
 5300TIP3    H237536   6.106   3.146   0.113
 5301TIP3   OH237537   5.917   2.522   0.114
 5301TIP3    H137538   5.891   2.611   0.135
 5301TIP3    H237539   5.884   2.507   0.026
 5302TIP3   OH237540   7.234   3.607   1.070
 5302TIP3    H137541   7.220   3.676   1.005
 5302TIP3    H237542   7.326   3.582   1.058
 5303TIP3   OH237543   5.947   1.998   0.943
 5303TIP3    H137544   5.937   1.982   0.850
 5303TIP3    H237545   5.919   1.916   0.985
 5304TIP3   OH237546   5.827   3.397   0.564
 5304TIP3    H137547   5.775   3.427   0.639
 5304TIP3    H237548   5.810   3.462   0.495
 5305TIP3   OH237549   5.794   3.673   1.759
 5305TIP3    H137550   5.814   3.670   1.852
 5305TIP3    H237551   5.815   3.586   1.726
 5306TIP3   OH237552   6.264   3.615   1.785
 5306TIP3    H137553   6.302   3.603   1.872
 5306TIP3    H237554   6.239   3.527   1.758
 5307TIP3   OH237555   6.668   3.462   0.146
 5307TIP3    H137556   6.609   3.421   0.083
 5307TIP3    H237557   6.751   3.472   0.099
 5308TIP3   OH237558   6.849   3.372   1.772
 5308TIP3    H137559   6.819   3.297   1.825
 5308TIP3    H237560   6.926   3.404   1.818
 5309TIP3   OH237561   7.158   3.407   0.099
 5309TIP3    H137562   7.112   3.325   0.114
 5309TIP3    H237563   7.098   3.458   0.044
 5310TIP3   OH237564   5.754   3.005   1.804
 5310TIP3    H137565   5.779   2.915   1.784
 5310TIP3    H237566   5.697   3.031   1.732
 5311TIP3   OH237567   6.216   3.028   0.039
 5311TIP3    H137568   6.262   2.983   0.110
 5311TIP3    H237569   6.234   2.975  -0.038
 5312TIP3   OH237570   6.389   3.026   1.764
 5312TIP3    H137571   6.393   3.085   1.688
 5312TIP3    H237572   6.421   2.943   1.730
 5313TIP3   OH237573   6.967   3.061   1.504
 5313TIP3    H137574   7.062   3.071   1.496
 5313TIP3    H237575   6.933   3.150   1.499
 5314TIP3   OH237576   5.861   2.755   1.751
 5314TIP3    H137577   5.955   2.738   1.757
 5314TIP3    H237578   5.821   2.696   1.815
 5315TIP3   OH237579   6.331   2.857   0.230
 5315TIP3    H137580   6.265   2.812   0.282
 5315TIP3    H237581   6.371   2.789   0.176
 5316TIP3   OH237582   6.260   2.657   1.482
 5316TIP3    H137583   6.188   2.720   1.484
 5316TIP3    H237584   6.322   2.693   1.419
 5317TIP3   OH237585   6.450   2.669   0.059
 5317TIP3    H137586   6.458   2.674  -0.036
 5317TIP3    H237587   6.539   2.656   0.090
 5318TIP3   OH237588   6.762   2.901   1.807
 5318TIP3    H137589   6.841   2.864   1.766
 5318TIP3    H237590   6.743   2.841   1.879
 5319TIP3   OH237591   6.307   2.396   1.577
 5319TIP3    H137592   6.326   2.335   1.506
 5319TIP3    H237593   6.296   2.481   1.534
 5320TIP3   OH237594   6.351   2.238   1.344
 5320TIP3    H137595   6.402   2.289   1.281
 5320TIP3    H237596   6.264   2.231   1.304
 5321TIP3   OH237597   6.451   2.765   1.319
 5321TIP3    H137598   6.540   2.780   1.352
 5321TIP3    H237599   6.420   2.851   1.293
 5322TIP3   OH237600   6.900   2.546   1.842
 5322TIP3    H137601   6.917   2.478   1.907
 5322TIP3    H237602   6.986   2.565   1.804
 5323TIP3   OH237603   7.003   2.839   1.660
 5323TIP3    H137604   6.977   2.917   1.611
 5323TIP3    H237605   7.099   2.844   1.664
 5324TIP3   OH237606   6.157   2.491   1.789
 5324TIP3    H137607   6.076   2.442   1.803
 5324TIP3    H237608   6.193   2.454   1.707
 5325TIP3   OH237609   6.396   1.968   1.413
 5325TIP3    H137610   6.374   2.059   1.396
 5325TIP3    H237611   6.322   1.918   1.376
 5326TIP3   OH237612   6.822   2.286   1.642
 5326TIP3    H137613   6.739   2.304   1.687
 5326TIP3    H237614   6.877   2.244   1.708
 5327TIP3   OH237615   6.981   2.173   1.841
 5327TIP3    H137616   6.962   2.080   1.855
 5327TIP3    H237617   6.946   2.216   1.919
 5328TIP3   OH237618   5.956   2.286   1.811
 5328TIP3    H137619   5.953   2.203   1.765
 5328TIP3    H237620   5.956   2.263   1.904
 5329TIP3   OH237621   6.503   1.918   1.666
 5329TIP3    H137622   6.491   1.825   1.685
 5329TIP3    H237623   6.446   1.934   1.591
 5330TIP3   OH237624   6.408   3.741   0.154
 5330TIP3    H137625   6.500   3.758   0.174
 5330TIP3    H237626   6.396   3.781   0.067
 5331TIP3   OH237627   5.780   3.233   0.117
 5331TIP3    H137628   5.873   3.235   0.139
 5331TIP3    H237629   5.778   3.231   0.021
 5332TIP3   OH237630   5.663   3.731   0.664
 5332TIP3    H137631   5.608   3.701   0.592
 5332TIP3    H237632   5.682   3.652   0.715
 5333TIP3   OH237633   5.734   3.509   0.818
 5333TIP3    H137634   5.697   3.435   0.866
 5333TIP3    H237635   5.782   3.559   0.884
 5334TIP3   OH237636   7.257   3.169   1.885
 5334TIP3    H137637   7.185   3.174   1.947
 5334TIP3    H237638   7.326   3.222   1.924
 5335TIP3   OH237639   7.257   3.324   1.350
 5335TIP3    H137640   7.211   3.396   1.393
 5335TIP3    H237641   7.221   3.322   1.261
 5336TIP3   OH237642   7.278   2.523   0.083
 5336TIP3    H137643   7.317   2.547  -0.001
 5336TIP3    H237644   7.241   2.435   0.069
 5337TIP3   OH237645   7.180   2.660   0.659
 5337TIP3    H137646   7.180   2.564   0.653
 5337TIP3    H237647   7.162   2.679   0.750
 5338TIP3   OH237648   5.727   2.880   1.085
 5338TIP3    H137649   5.737   2.853   0.994
 5338TIP3    H237650   5.808   2.850   1.128
 5339TIP3   OH237651   7.272   2.875   1.661
 5339TIP3    H137652   7.354   2.828   1.647
 5339TIP3    H237653   7.276   2.949   1.601
 5340TIP3   OH237654   7.165   2.280   0.040
 5340TIP3    H137655   7.188   2.198  -0.003
 5340TIP3    H237656   7.091   2.258   0.097
 5341TIP3   OH237657   7.215   2.407   0.487
 5341TIP3    H137658   7.231   2.320   0.525
 5341TIP3    H237659   7.281   2.416   0.419
 5342TIP3   OH237660   7.240   2.351   1.071
 5342TIP3    H137661   7.329   2.338   1.037
 5342TIP3    H237662   7.245   2.433   1.121
 5343TIP3   OH237663   7.284   2.596   1.364
 5343TIP3    H137664   7.192   2.620   1.370
 5343TIP3    H237665   7.304   2.600   1.270
 5344TIP3   OH237666   5.738   2.405   1.661
 5344TIP3    H137667   5.804   2.377   1.725
 5344TIP3    H237668   5.700   2.323   1.628
 5345TIP3   OH237669   7.218   2.134   0.552
 5345TIP3    H137670   7.244   2.075   0.622
 5345TIP3    H237671   7.152   2.085   0.503
 5346TIP3   OH237672   5.814   2.237   0.982
 5346TIP3    H137673   5.852   2.149   0.981
 5346TIP3    H237674   5.887   2.294   1.005
 5347TIP3   OH237675   5.633   2.574   1.032
 5347TIP3    H137676   5.717   2.559   0.988
 5347TIP3    H237677   5.648   2.545   1.122
 5348TIP3   OH237678   5.687   2.156   0.460
 5348TIP3    H137679   5.592   2.152   0.469
 5348TIP3    H237680   5.702   2.223   0.393
 5349TIP3   OH237681   7.153   3.618   0.726
 5349TIP3    H137682   7.234   3.572   0.745
 5349TIP3    H237683   7.157   3.697   0.781
 5350TIP3   OH237684   5.681   1.981   1.214
 5350TIP3    H137685   5.669   2.019   1.302
 5350TIP3    H237686   5.632   2.040   1.157
 5351TIP3   OH237687   5.896   3.394   1.731
 5351TIP3    H137688   5.805   3.380   1.706
 5351TIP3    H237689   5.904   3.355   1.818
 5352TIP3   OH237690   6.221   3.469   1.358
 5352TIP3    H137691   6.187   3.554   1.331
 5352TIP3    H237692   6.315   3.473   1.340
 5353TIP3   OH237693   6.644   3.538   1.665
 5353TIP3    H137694   6.701   3.490   1.725
 5353TIP3    H237695   6.695   3.615   1.639
 5354TIP3   OH237696   6.838   3.726   1.593
 5354TIP3    H137697   6.909   3.671   1.559
 5354TIP3    H237698   6.870   3.756   1.678
 5355TIP3   OH237699   5.912   3.756   1.372
 5355TIP3    H137700   5.834   3.799   1.337
 5355TIP3    H237701   5.924   3.794   1.459
 5356TIP3   OH237702   6.167   3.727   1.275
 5356TIP3    H137703   6.077   3.740   1.304
 5356TIP3    H237704   6.173   3.776   1.193
 5357TIP3   OH237705   6.632   3.716   1.193
 5357TIP3    H137706   6.579   3.755   1.123
 5357TIP3    H237707   6.640   3.785   1.259
 5358TIP3   OH237708   6.859   3.585   1.278
 5358TIP3    H137709   6.780   3.631   1.250
 5358TIP3    H237710   6.929   3.649   1.270
 5359TIP3   OH237711   7.091   3.736   1.269
 5359TIP3    H137712   7.108   3.828   1.250
 5359TIP3    H237713   7.144   3.689   1.204
 5360TIP3   OH237714   5.885   3.622   1.034
 5360TIP3    H137715   5.877   3.575   1.117
 5360TIP3    H237716   5.964   3.587   0.994
 5361TIP3   OH237717   6.101   3.502   0.920
 5361TIP3    H137718   6.087   3.410   0.944
 5361TIP3    H237719   6.187   3.523   0.956
 5362TIP3   OH237720   6.359   3.521   1.029
 5362TIP3    H137721   6.371   3.431   0.999
 5362TIP3    H237722   6.391   3.521   1.119
 5363TIP3   OH237723   6.656   2.090   0.888
 5363TIP3    H137724   6.597   2.022   0.922
 5363TIP3    H237725   6.738   2.044   0.870
 5364TIP3   OH237726   7.175   1.938   0.901
 5364TIP3    H137727   7.221   2.017   0.927
 5364TIP3    H237728   7.083   1.963   0.896
 5365TIP3   OH237729   5.919   1.954   0.669
 5365TIP3    H137730   5.826   1.939   0.653
 5365TIP3    H237731   5.960   1.868   0.663
 5366TIP3   OH237732   5.783   1.962   0.266
 5366TIP3    H137733   5.854   2.012   0.227
 5366TIP3    H237734   5.751   2.018   0.337
 5367TIP3   OH237735   6.373   1.963   0.685
 5367TIP3    H137736   6.455   1.995   0.648
 5367TIP3    H237737   6.394   1.946   0.777
 5368TIP3   OH237738   6.896   1.963   0.832
 5368TIP3    H137739   6.921   1.942   0.742
 5368TIP3    H237740   6.872   1.879   0.871
 5369TIP3   OH237741   7.037   1.980   0.421
 5369TIP3    H137742   6.959   2.036   0.422
 5369TIP3    H237743   7.003   1.891   0.429
 5370TIP3   OH237744   5.781   3.580   0.368
 5370TIP3    H137745   5.706   3.569   0.310
 5370TIP3    H237746   5.814   3.668   0.349
 5371TIP3   OH237747   6.004   2.080   0.142
 5371TIP3    H137748   6.029   1.991   0.117
 5371TIP3    H237749   6.083   2.118   0.180
 5372TIP3   OH237750   6.484   2.193   0.369
 5372TIP3    H137751   6.520   2.122   0.422
 5372TIP3    H237752   6.506   2.272   0.418
 5373TIP3   OH237753   6.679   3.733   0.207
 5373TIP3    H137754   6.770   3.757   0.189
 5373TIP3    H237755   6.673   3.641   0.181
 5374TIP3   OH237756   5.961   2.050   1.648
 5374TIP3    H137757   5.883   1.996   1.660
 5374TIP3    H237758   6.030   2.003   1.694
 5375TIP3   OH237759   6.122   1.898   1.816
 5375TIP3    H137760   6.182   1.824   1.824
 5375TIP3    H237761   6.055   1.881   1.882
 5376TIP3   OH237762   5.994   3.633   0.012
 5376TIP3    H137763   5.933   3.687   0.062
 5376TIP3    H237764   6.069   3.622   0.071
 5377TIP3   OH237765   6.997   1.883   1.825
 5377TIP3    H137766   7.014   1.795   1.860
 5377TIP3    H237767   7.080   1.909   1.786
 5378TIP3   OH237768   7.294   3.551   1.670
 5378TIP3    H137769   7.226   3.528   1.606
 5378TIP3    H237770   7.258   3.626   1.718
 5379TIP3   OH237771   1.197   4.797   0.653
 5379TIP3    H137772   1.182   4.891   0.650
 5379TIP3    H237773   1.122   4.758   0.607
 5380TIP3   OH237774   1.067   4.706   1.053
 5380TIP3    H137775   1.094   4.668   1.137
 5380TIP3    H237776   1.021   4.635   1.008
 5381TIP3   OH237777   0.295   4.641   1.174
 5381TIP3    H137778   0.298   4.570   1.238
 5381TIP3    H237779   0.387   4.663   1.158
 5382TIP3   OH237780   1.453   5.017   0.873
 5382TIP3    H137781   1.416   4.943   0.920
 5382TIP3    H237782   1.474   5.081   0.941
 5383TIP3   OH237783   0.404   5.111   0.990
 5383TIP3    H137784   0.380   5.022   0.966
 5383TIP3    H237785   0.498   5.106   1.010
 5384TIP3   OH237786   0.105   4.470   0.563
 5384TIP3    H137787   0.064   4.549   0.600
 5384TIP3    H237788   0.044   4.400   0.586
 5385TIP3   OH237789   0.159   4.698   0.814
 5385TIP3    H137790   0.182   4.609   0.840
 5385TIP3    H237791   0.238   4.749   0.832
 5386TIP3   OH237792   1.181   5.509   0.906
 5386TIP3    H137793   1.217   5.443   0.848
 5386TIP3    H237794   1.142   5.459   0.978
 5387TIP3   OH237795   0.913   4.958   1.070
 5387TIP3    H137796   0.950   4.877   1.035
 5387TIP3    H237797   0.982   4.992   1.127
 5388TIP3   OH237798   1.796   4.106   1.155
 5388TIP3    H137799   1.810   4.164   1.230
 5388TIP3    H237800   1.842   4.149   1.083
 5389TIP3   OH237801   1.226   4.387   1.078
 5389TIP3    H137802   1.238   4.293   1.093
 5389TIP3    H237803   1.209   4.394   0.984
 5390TIP3   OH237804   0.577   4.191   0.810
 5390TIP3    H137805   0.587   4.276   0.769
 5390TIP3    H237806   0.528   4.139   0.746
 5391TIP3   OH237807   1.348   4.215   0.658
 5391TIP3    H137808   1.390   4.178   0.736
 5391TIP3    H237809   1.420   4.251   0.607
 5392TIP3   OH237810   0.212   4.438   0.900
 5392TIP3    H137811   0.282   4.396   0.951
 5392TIP3    H237812   0.223   4.402   0.812
 5393TIP3   OH237813   0.702   4.589   0.862
 5393TIP3    H137814   0.786   4.553   0.891
 5393TIP3    H237815   0.668   4.524   0.800
 5394TIP3   OH237816   1.828   4.251   1.389
 5394TIP3    H137817   1.765   4.322   1.378
 5394TIP3    H237818   1.808   4.213   1.474
 5395TIP3   OH237819   0.429   4.104   1.240
 5395TIP3    H137820   0.403   4.160   1.167
 5395TIP3    H237821   0.360   4.115   1.305
 5396TIP3   OH237822   1.159   5.056   0.560
 5396TIP3    H137823   1.137   5.054   0.467
 5396TIP3    H237824   1.108   5.130   0.595
 5397TIP3   OH237825   0.692   4.880   1.218
 5397TIP3    H137826   0.640   4.951   1.257
 5397TIP3    H237827   0.762   4.925   1.172
 5398TIP3   OH237828   1.460   4.152   0.899
 5398TIP3    H137829   1.386   4.133   0.957
 5398TIP3    H237830   1.513   4.215   0.948
 5399TIP3   OH237831   0.404   4.267   1.014
 5399TIP3    H137832   0.461   4.324   1.067
 5399TIP3    H237833   0.463   4.232   0.947
 5400TIP3   OH237834   0.537   5.083   1.334
 5400TIP3    H137835   0.547   5.178   1.324
 5400TIP3    H237836   0.446   5.070   1.359
 5401TIP3   OH237837   0.094   5.035   0.411
 5401TIP3    H137838   0.110   5.074   0.325
 5401TIP3    H237839   0.125   5.101   0.473
 5402TIP3   OH237840   1.489   5.216   1.073
 5402TIP3    H137841   1.396   5.217   1.092
 5402TIP3    H237842   1.511   5.307   1.055
 5403TIP3   OH237843   1.535   3.994   1.214
 5403TIP3    H137844   1.470   4.049   1.169
 5403TIP3    H237845   1.619   4.026   1.181
 5404TIP3   OH237846   0.785   3.794   0.981
 5404TIP3    H137847   0.759   3.703   0.985
 5404TIP3    H237848   0.708   3.843   1.012
 5405TIP3   OH237849   1.307   5.360   0.702
 5405TIP3    H137850   1.349   5.276   0.683
 5405TIP3    H237851   1.378   5.424   0.701
 5406TIP3   OH237852   1.425   5.119   0.617
 5406TIP3    H137853   1.337   5.086   0.597
 5406TIP3    H237854   1.447   5.080   0.701
 5407TIP3   OH237855   1.581   5.006   1.433
 5407TIP3    H137856   1.579   4.948   1.357
 5407TIP3    H237857   1.596   5.093   1.396
 5408TIP3   OH237858   1.049   4.700   0.433
 5408TIP3    H137859   0.981   4.764   0.413
 5408TIP3    H237860   1.112   4.709   0.362
 5409TIP3   OH237861   1.054   4.531   0.122
 5409TIP3    H137862   1.118   4.577   0.177
 5409TIP3    H237863   1.100   4.451   0.094
 5410TIP3   OH237864   1.776   4.670   1.263
 5410TIP3    H137865   1.701   4.728   1.258
 5410TIP3    H237866   1.834   4.698   1.192
 5411TIP3   OH237867   1.410   4.726   0.500
 5411TIP3    H137868   1.341   4.753   0.561
 5411TIP3    H237869   1.472   4.677   0.554
 5412TIP3   OH237870   1.399   4.574   1.428
 5412TIP3    H137871   1.394   4.667   1.448
 5412TIP3    H237872   1.316   4.555   1.384
 5413TIP3   OH237873   0.568   4.780   0.708
 5413TIP3    H137874   0.547   4.739   0.624
 5413TIP3    H237875   0.621   4.715   0.754
 5414TIP3   OH237876   0.697   5.133   0.971
 5414TIP3    H137877   0.699   5.141   0.876
 5414TIP3    H237878   0.773   5.079   0.992
 5415TIP3   OH237879   0.558   4.683   1.081
 5415TIP3    H137880   0.615   4.659   1.008
 5415TIP3    H237881   0.608   4.749   1.129
 5416TIP3   OH237882   1.229   5.225   1.147
 5416TIP3    H137883   1.212   5.297   1.207
 5416TIP3    H237884   1.187   5.149   1.188
 5417TIP3   OH237885   0.695   5.101   1.565
 5417TIP3    H137886   0.638   5.165   1.608
 5417TIP3    H237887   0.648   5.076   1.486
 5418TIP3   OH237888   1.282   4.660   0.266
 5418TIP3    H137889   1.324   4.687   0.348
 5418TIP3    H237890   1.332   4.706   0.198
 5419TIP3   OH237891   0.397   4.700   1.502
 5419TIP3    H137892   0.403   4.781   1.552
 5419TIP3    H237893   0.308   4.698   1.469
 5420TIP3   OH237894   1.048   5.299   0.630
 5420TIP3    H137895   1.131   5.331   0.664
 5420TIP3    H237896   1.010   5.375   0.585
 5421TIP3   OH237897   0.519   5.303   1.631
 5421TIP3    H137898   0.522   5.333   1.540
 5421TIP3    H237899   0.426   5.301   1.653
 5422TIP3   OH237900   1.651   3.815   0.257
 5422TIP3    H137901   1.560   3.830   0.282
 5422TIP3    H237902   1.678   3.895   0.213
 5423TIP3   OH237903   0.480   4.689   0.447
 5423TIP3    H137904   0.423   4.759   0.416
 5423TIP3    H237905   0.421   4.617   0.467
 5424TIP3   OH237906   1.752   5.242   0.126
 5424TIP3    H137907   1.771   5.335   0.136
 5424TIP3    H237908   1.838   5.200   0.123
 5425TIP3   OH237909   0.147   4.886   1.341
 5425TIP3    H137910   0.091   4.882   1.264
 5425TIP3    H237911   0.135   4.801   1.384
 5426TIP3   OH237912   0.110   5.223   0.977
 5426TIP3    H137913   0.194   5.186   1.001
 5426TIP3    H237914   0.050   5.196   1.047
 5427TIP3   OH237915   1.851   5.294   1.642
 5427TIP3    H137916   1.844   5.199   1.637
 5427TIP3    H237917   1.766   5.322   1.677
 5428TIP3   OH237918   0.932   5.237   1.505
 5428TIP3    H137919   0.934   5.323   1.547
 5428TIP3    H237920   0.849   5.198   1.532
 5429TIP3   OH237921   1.030   5.580   0.494
 5429TIP3    H137922   1.010   5.598   0.402
 5429TIP3    H237923   0.999   5.658   0.540
 5430TIP3   OH237924   0.371   5.462   0.671
 5430TIP3    H137925   0.386   5.432   0.760
 5430TIP3    H237926   0.317   5.394   0.631
 5431TIP3   OH237927   1.318   5.519   0.144
 5431TIP3    H137928   1.389   5.458   0.123
 5431TIP3    H237929   1.316   5.523   0.240
 5432TIP3   OH237930   1.292   5.520   0.430
 5432TIP3    H137931   1.200   5.532   0.453
 5432TIP3    H237932   1.329   5.470   0.503
 5433TIP3   OH237933   1.550   4.435   1.621
 5433TIP3    H137934   1.491   4.489   1.570
 5433TIP3    H237935   1.547   4.349   1.579
 5434TIP3   OH237936   0.284   5.088   1.458
 5434TIP3    H137937   0.322   5.033   1.526
 5434TIP3    H237938   0.226   5.030   1.409
 5435TIP3   OH237939   0.540   3.907   1.071
 5435TIP3    H137940   0.463   3.901   1.014
 5435TIP3    H237941   0.520   3.978   1.132
 5436TIP3   OH237942   1.020   3.872   1.409
 5436TIP3    H137943   1.074   3.824   1.471
 5436TIP3    H237944   0.930   3.859   1.440
 5437TIP3   OH237945   1.250   4.288   1.469
 5437TIP3    H137946   1.230   4.262   1.559
 5437TIP3    H237947   1.346   4.284   1.463
 5438TIP3   OH237948   1.437   4.816   0.075
 5438TIP3    H137949   1.400   4.890   0.027
 5438TIP3    H237950   1.466   4.853   0.158
 5439TIP3   OH237951   0.975   4.091   0.049
 5439TIP3    H137952   0.903   4.122   0.104
 5439TIP3    H237953   1.043   4.064   0.111
 5440TIP3   OH237954   0.556   4.424   1.182
 5440TIP3    H137955   0.492   4.425   1.254
 5440TIP3    H237956   0.562   4.515   1.155
 5441TIP3   OH237957   0.581   4.431   0.673
 5441TIP3    H137958   0.486   4.417   0.675
 5441TIP3    H237959   0.606   4.409   0.583
 5442TIP3   OH237960   1.102   4.455   0.546
 5442TIP3    H137961   1.078   4.541   0.512
 5442TIP3    H237962   1.174   4.426   0.491
 5443TIP3   OH237963   1.006   4.464   1.677
 5443TIP3    H137964   0.958   4.390   1.715
 5443TIP3    H237965   1.097   4.436   1.677
 5444TIP3   OH237966   1.193   4.397   0.806
 5444TIP3    H137967   1.150   4.441   0.733
 5444TIP3    H237968   1.238   4.323   0.765
 5445TIP3   OH237969   0.342   4.424   1.357
 5445TIP3    H137970   0.358   4.470   1.440
 5445TIP3    H237971   0.298   4.343   1.383
 5446TIP3   OH237972   0.693   4.199   0.093
 5446TIP3    H137973   0.671   4.149   0.171
 5446TIP3    H237974   0.647   4.283   0.105
 5447TIP3   OH237975   0.065   4.208   0.707
 5447TIP3    H137976   0.091   4.179   0.795
 5447TIP3    H237977   0.095   4.139   0.649
 5448TIP3   OH237978   0.086   4.273   0.292
 5448TIP3    H137979   0.179   4.295   0.289
 5448TIP3    H237980   0.052   4.304   0.208
 5449TIP3   OH237981   1.148   4.555   1.276
 5449TIP3    H137982   1.184   4.497   1.210
 5449TIP3    H237983   1.085   4.501   1.324
 5450TIP3   OH237984   0.853   4.151   0.754
 5450TIP3    H137985   0.765   4.157   0.793
 5450TIP3    H237986   0.907   4.116   0.825
 5451TIP3   OH237987   0.328   4.343   0.654
 5451TIP3    H137988   0.250   4.375   0.609
 5451TIP3    H237989   0.336   4.252   0.626
 5452TIP3   OH237990   0.627   4.345   0.414
 5452TIP3    H137991   0.722   4.341   0.428
 5452TIP3    H237992   0.618   4.389   0.329
 5453TIP3   OH237993   1.243   4.108   1.062
 5453TIP3    H137994   1.205   4.102   1.150
 5453TIP3    H237995   1.177   4.068   1.005
 5454TIP3   OH237996   0.549   4.427   0.155
 5454TIP3    H137997   0.454   4.425   0.139
 5454TIP3    H237998   0.581   4.496   0.097
 5455TIP3   OH237999   1.595   5.649   1.726
 5455TIP3    H138000   1.639   5.691   1.653
 5455TIP3    H238001   1.622   5.700   1.803
 5456TIP3   OH238002   0.372   4.928   1.663
 5456TIP3    H138003   0.441   4.928   1.730
 5456TIP3    H238004   0.290   4.925   1.713
 5457TIP3   OH238005   0.931   4.466   0.962
 5457TIP3    H138006   1.001   4.415   0.921
 5457TIP3    H238007   0.900   4.410   1.033
 5458TIP3   OH238008   0.426   4.077   0.604
 5458TIP3    H138009   0.377   4.001   0.633
 5458TIP3    H238010   0.458   4.054   0.517
 5459TIP3   OH238011   0.816   4.324   1.178
 5459TIP3    H138012   0.731   4.367   1.188
 5459TIP3    H238013   0.865   4.349   1.256
 5460TIP3   OH238014   0.868   4.896   0.362
 5460TIP3    H138015   0.793   4.859   0.314
 5460TIP3    H238016   0.830   4.928   0.444
 5461TIP3   OH238017   1.572   4.850   1.206
 5461TIP3    H138018   1.633   4.906   1.159
 5461TIP3    H238019   1.501   4.834   1.145
 5462TIP3   OH238020   1.203   4.179   0.244
 5462TIP3    H138021   1.238   4.180   0.155
 5462TIP3    H238022   1.238   4.258   0.285
 5463TIP3   OH238023   0.990   4.958   1.487
 5463TIP3    H138024   0.961   4.923   1.572
 5463TIP3    H238025   0.971   5.051   1.492
 5464TIP3   OH238026   1.316   4.396   0.373
 5464TIP3    H138027   1.402   4.376   0.412
 5464TIP3    H238028   1.328   4.481   0.331
 5465TIP3   OH238029   0.387   4.836   0.910
 5465TIP3    H138030   0.447   4.830   0.836
 5465TIP3    H238031   0.429   4.783   0.979
 5466TIP3   OH238032   1.090   5.043   0.281
 5466TIP3    H138033   1.049   5.129   0.293
 5466TIP3    H238034   1.020   4.980   0.301
 5467TIP3   OH238035   0.123   4.646   1.482
 5467TIP3    H138036   0.137   4.611   1.570
 5467TIP3    H238037   0.061   4.586   1.442
 5468TIP3   OH238038   0.790   4.645   1.691
 5468TIP3    H138039   0.728   4.608   1.629
 5468TIP3    H238040   0.871   4.596   1.676
 5469TIP3   OH238041   1.218   5.191   1.504
 5469TIP3    H138042   1.125   5.209   1.493
 5469TIP3    H238043   1.237   5.218   1.594
 5470TIP3   OH238044   1.765   4.422   0.341
 5470TIP3    H138045   1.710   4.398   0.267
 5470TIP3    H238046   1.786   4.514   0.327
 5471TIP3   OH238047   1.793   5.000   1.604
 5471TIP3    H138048   1.709   5.011   1.560
 5471TIP3    H238049   1.856   4.986   1.533
 5472TIP3   OH238050   1.634   5.286   0.394
 5472TIP3    H138051   1.581   5.223   0.444
 5472TIP3    H238052   1.653   5.242   0.312
 5473TIP3   OH238053   1.362   4.787   1.022
 5473TIP3    H138054   1.266   4.778   1.023
 5473TIP3    H238055   1.393   4.708   0.979
 5474TIP3   OH238056   0.640   5.208   0.702
 5474TIP3    H138057   0.665   5.292   0.664
 5474TIP3    H238058   0.544   5.209   0.703
 5475TIP3   OH238059   0.192   4.690   0.173
 5475TIP3    H138060   0.242   4.752   0.227
 5475TIP3    H238061   0.102   4.700   0.203
 5476TIP3   OH238062   0.731   4.971   0.585
 5476TIP3    H138063   0.713   5.058   0.623
 5476TIP3    H238064   0.676   4.912   0.635
 5477TIP3   OH238065   0.829   5.379   1.276
 5477TIP3    H138066   0.888   5.451   1.251
 5477TIP3    H238067   0.880   5.325   1.336
 5478TIP3   OH238068   0.635   5.471   0.590
 5478TIP3    H138069   0.542   5.483   0.610
 5478TIP3    H238070   0.677   5.549   0.626
 5479TIP3   OH238071   1.126   4.985   1.251
 5479TIP3    H138072   1.083   4.970   1.335
 5479TIP3    H238073   1.200   4.924   1.250
 5480TIP3   OH238074   1.356   5.086   0.156
 5480TIP3    H138075   1.404   5.047   0.229
 5480TIP3    H238076   1.265   5.085   0.185
 5481TIP3   OH238077   1.424   5.411   1.465
 5481TIP3    H138078   1.338   5.371   1.449
 5481TIP3    H238079   1.425   5.490   1.411
 5482TIP3   OH238080   1.825   5.510   0.174
 5482TIP3    H138081   1.894   5.574   0.161
 5482TIP3    H238082   1.747   5.561   0.191
 5483TIP3   OH238083   0.228   4.169   1.435
 5483TIP3    H138084   0.133   4.176   1.439
 5483TIP3    H238085   0.251   4.104   1.502
 5484TIP3   OH238086   1.516   4.911   0.321
 5484TIP3    H138087   1.470   4.866   0.391
 5484TIP3    H238088   1.605   4.921   0.354
 5485TIP3   OH238089   0.216   5.391   1.262
 5485TIP3    H138090   0.216   5.313   1.318
 5485TIP3    H238091   0.230   5.464   1.323
 5486TIP3   OH238092   0.649   5.168   0.269
 5486TIP3    H138093   0.724   5.124   0.308
 5486TIP3    H238094   0.664   5.261   0.284
 5487TIP3   OH238095   0.312   4.878   0.334
 5487TIP3    H138096   0.239   4.917   0.383
 5487TIP3    H238097   0.352   4.951   0.288
 5488TIP3   OH238098   1.126   4.105   1.304
 5488TIP3    H138099   1.178   4.150   1.371
 5488TIP3    H238100   1.092   4.028   1.348
 5489TIP3   OH238101   1.178   4.062   0.494
 5489TIP3    H138102   1.187   4.099   0.407
 5489TIP3    H238103   1.238   4.113   0.549
 5490TIP3   OH238104   0.944   5.267   0.319
 5490TIP3    H138105   0.869   5.322   0.342
 5490TIP3    H238106   0.991   5.318   0.253
 5491TIP3   OH238107   0.881   4.291   0.513
 5491TIP3    H138108   0.958   4.347   0.523
 5491TIP3    H238109   0.870   4.250   0.599
 5492TIP3   OH238110   0.975   4.377   1.402
 5492TIP3    H138111   0.972   4.405   1.493
 5492TIP3    H238112   1.044   4.310   1.400
 5493TIP3   OH238113   0.952   3.951   0.586
 5493TIP3    H138114   0.922   4.020   0.645
 5493TIP3    H238115   1.039   3.979   0.558
 5494TIP3   OH238116   0.718   5.426   0.331
 5494TIP3    H138117   0.714   5.508   0.282
 5494TIP3    H238118   0.686   5.449   0.419
 5495TIP3   OH238119   0.567   4.090   0.326
 5495TIP3    H138120   0.564   4.177   0.366
 5495TIP3    H238121   0.655   4.058   0.347
 5496TIP3   OH238122   1.525   4.205   1.475
 5496TIP3    H138123   1.489   4.129   1.521
 5496TIP3    H238124   1.566   4.169   1.397
 5497TIP3   OH238125   1.437   4.538   0.900
 5497TIP3    H138126   1.352   4.497   0.885
 5497TIP3    H238127   1.483   4.477   0.958
 5498TIP3   OH238128   0.399   5.090   0.177
 5498TIP3    H138129   0.463   5.143   0.225
 5498TIP3    H238130   0.451   5.043   0.112
 5499TIP3   OH238131   0.278   4.444   0.092
 5499TIP3    H138132   0.257   4.533   0.118
 5499TIP3    H238133   0.196   4.408   0.060
 5500TIP3   OH238134   1.568   5.483   1.069
 5500TIP3    H138135   1.556   5.553   1.005
 5500TIP3    H238136   1.662   5.482   1.086
 5501TIP3   OH238137   0.287   3.890   0.954
 5501TIP3    H138138   0.292   3.876   0.860
 5501TIP3    H238139   0.259   3.805   0.990
 5502TIP3   OH238140   0.185   5.272   0.552
 5502TIP3    H138141   0.122   5.306   0.616
 5502TIP3    H238142   0.182   5.335   0.480
 5503TIP3   OH238143   0.156   5.570   1.731
 5503TIP3    H138144   0.221   5.548   1.798
 5503TIP3    H238145   0.122   5.486   1.702
 5504TIP3   OH238146   0.555   5.449   1.886
 5504TIP3    H138147   0.638   5.487   1.916
 5504TIP3    H238148   0.579   5.398   1.808
 5505TIP3   OH238149   1.077   5.391   0.119
 5505TIP3    H138150   1.046   5.361   0.033
 5505TIP3    H238151   1.165   5.424   0.102
 5506TIP3   OH238152   1.253   5.253   1.772
 5506TIP3    H138153   1.225   5.169   1.809
 5506TIP3    H238154   1.326   5.281   1.826
 5507TIP3   OH238155   1.479   5.316   0.048
 5507TIP3    H138156   1.437   5.238   0.085
 5507TIP3    H238157   1.573   5.300   0.059
 5508TIP3   OH238158   0.133   4.943   1.791
 5508TIP3    H138159   0.097   4.855   1.800
 5508TIP3    H238160   0.058   4.997   1.766
 5509TIP3   OH238161   0.571   4.929   0.036
 5509TIP3    H138162   0.605   4.887   0.115
 5509TIP3    H238163   0.592   4.868  -0.035
 5510TIP3   OH238164   0.830   4.921   1.729
 5510TIP3    H138165   0.770   4.969   1.671
 5510TIP3    H238166   0.806   4.829   1.718
 5511TIP3   OH238167   1.334   4.924   1.526
 5511TIP3    H138168   1.422   4.953   1.501
 5511TIP3    H238169   1.280   5.002   1.515
 5512TIP3   OH238170   0.178   4.613   1.762
 5512TIP3    H138171   0.273   4.622   1.756
 5512TIP3    H238172   0.164   4.565   1.844
 5513TIP3   OH238173   0.660   4.757   0.238
 5513TIP3    H138174   0.605   4.729   0.311
 5513TIP3    H238175   0.697   4.677   0.202
 5514TIP3   OH238176   0.617   4.536   1.490
 5514TIP3    H138177   0.544   4.598   1.493
 5514TIP3    H238178   0.678   4.575   1.428
 5515TIP3   OH238179   0.786   4.564   0.047
 5515TIP3    H138180   0.781   4.478   0.007
 5515TIP3    H238181   0.876   4.571   0.080
 5516TIP3   OH238182   1.727   4.936   0.028
 5516TIP3    H138183   1.643   4.891   0.019
 5516TIP3    H238184   1.703   5.026   0.052
 5517TIP3   OH238185   0.672   4.276   1.561
 5517TIP3    H138186   0.681   4.219   1.485
 5517TIP3    H238187   0.656   4.363   1.523
 5518TIP3   OH238188   0.690   4.111   1.334
 5518TIP3    H138189   0.742   4.158   1.270
 5518TIP3    H238190   0.601   4.113   1.299
 5519TIP3   OH238191   0.804   4.658   1.337
 5519TIP3    H138192   0.898   4.671   1.341
 5519TIP3    H238193   0.770   4.740   1.300
 5520TIP3   OH238194   1.385   4.779   1.758
 5520TIP3    H138195   1.344   4.826   1.686
 5520TIP3    H238196   1.469   4.751   1.723
 5521TIP3   OH238197   0.528   4.317   1.793
 5521TIP3    H138198   0.434   4.299   1.780
 5521TIP3    H238199   0.565   4.310   1.705
 5522TIP3   OH238200   0.737   3.848   1.428
 5522TIP3    H138201   0.726   3.939   1.402
 5522TIP3    H238202   0.670   3.801   1.377
 5523TIP3   OH238203   0.870   4.240   1.753
 5523TIP3    H138204   0.826   4.198   1.827
 5523TIP3    H238205   0.803   4.246   1.685
 5524TIP3   OH238206   1.151   4.204   1.709
 5524TIP3    H138207   1.061   4.191   1.736
 5524TIP3    H238208   1.192   4.118   1.718
 5525TIP3   OH238209   0.276   4.188   1.781
 5525TIP3    H138210   0.286   4.105   1.735
 5525TIP3    H238211   0.293   4.168   1.873
 5526TIP3   OH238212   0.727   3.709   1.669
 5526TIP3    H138213   0.813   3.666   1.665
 5526TIP3    H238214   0.720   3.756   1.586
 5527TIP3   OH238215   0.831   3.875   1.879
 5527TIP3    H138216   0.781   3.854   1.801
 5527TIP3    H238217   0.794   3.957   1.911
 5528TIP3   OH238218   0.751   5.641   0.157
 5528TIP3    H138219   0.842   5.654   0.183
 5528TIP3    H238220   0.748   5.667   0.065
 5529TIP3   OH238221   0.124   5.135   0.158
 5529TIP3    H138222   0.220   5.138   0.161
 5529TIP3    H238223   0.102   5.136   0.065
 5530TIP3   OH238224   0.047   5.651   0.617
 5530TIP3    H138225  -0.034   5.638   0.566
 5530TIP3    H238226   0.052   5.574   0.674
 5531TIP3   OH238227   0.068   5.424   0.796
 5531TIP3    H138228   0.067   5.339   0.840
 5531TIP3    H238229   0.117   5.481   0.855
 5532TIP3   OH238230   1.834   5.490   1.145
 5532TIP3    H138231   1.825   5.489   1.240
 5532TIP3    H238232   1.897   5.560   1.127
 5533TIP3   OH238233   1.773   5.462   1.417
 5533TIP3    H138234   1.717   5.392   1.384
 5533TIP3    H238235   1.823   5.422   1.488
 5534TIP3   OH238236   1.777   4.885   0.423
 5534TIP3    H138237   1.847   4.949   0.431
 5534TIP3    H238238   1.788   4.828   0.499
 5535TIP3   OH238239   1.822   4.688   0.614
 5535TIP3    H138240   1.740   4.652   0.647
 5535TIP3    H238241   1.876   4.701   0.692
 5536TIP3   OH238242   1.805   4.984   1.133
 5536TIP3    H138243   1.861   4.919   1.090
 5536TIP3    H238244   1.833   5.068   1.096
 5537TIP3   OH238245   1.607   5.258   1.325
 5537TIP3    H138246   1.534   5.303   1.369
 5537TIP3    H238247   1.576   5.241   1.237
 5538TIP3   OH238248   1.776   4.680   0.244
 5538TIP3    H138249   1.685   4.673   0.215
 5538TIP3    H238250   1.776   4.752   0.307
 5539TIP3   OH238251   1.624   4.388   0.110
 5539TIP3    H138252   1.690   4.401   0.042
 5539TIP3    H238253   1.591   4.300   0.096
 5540TIP3   OH238254   1.572   4.563   0.660
 5540TIP3    H138255   1.567   4.472   0.633
 5540TIP3    H238256   1.531   4.565   0.746
 5541TIP3   OH238257   0.074   4.767   1.071
 5541TIP3    H138258   0.085   4.769   0.976
 5541TIP3    H238259   0.159   4.738   1.105
 5542TIP3   OH238260   1.654   4.764   1.700
 5542TIP3    H138261   1.706   4.684   1.691
 5542TIP3    H238262   1.708   4.833   1.662
 5543TIP3   OH238263   1.807   4.529   1.653
 5543TIP3    H138264   1.720   4.490   1.658
 5543TIP3    H238265   1.864   4.468   1.700
 5544TIP3   OH238266   1.547   4.134   0.055
 5544TIP3    H138267   1.630   4.091   0.071
 5544TIP3    H238268   1.483   4.063   0.050
 5545TIP3   OH238269   1.562   4.314   0.501
 5545TIP3    H138270   1.583   4.220   0.502
 5545TIP3    H238271   1.637   4.355   0.457
 5546TIP3   OH238272   1.590   4.351   1.046
 5546TIP3    H138273   1.683   4.358   1.025
 5546TIP3    H238274   1.585   4.372   1.139
 5547TIP3   OH238275   1.627   4.443   1.306
 5547TIP3    H138276   1.549   4.475   1.352
 5547TIP3    H238277   1.682   4.521   1.296
 5548TIP3   OH238278   0.037   4.301   1.698
 5548TIP3    H138279   0.122   4.266   1.725
 5548TIP3    H238280   0.007   4.241   1.630
 5549TIP3   OH238281   1.917   3.910   1.839
 5549TIP3    H138282   1.882   3.827   1.870
 5549TIP3    H238283   1.856   3.937   1.770
 5550TIP3   OH238284   1.623   4.044   0.502
 5550TIP3    H138285   1.642   4.005   0.587
 5550TIP3    H238286   1.555   3.988   0.464
 5551TIP3   OH238287   0.159   4.133   0.966
 5551TIP3    H138288   0.192   4.043   0.971
 5551TIP3    H238289   0.234   4.188   0.985
 5552TIP3   OH238290   0.007   4.494   1.088
 5552TIP3    H138291   0.078   4.471   1.027
 5552TIP3    H238292   0.012   4.590   1.094
 5553TIP3   OH238293   1.808   4.078   1.610
 5553TIP3    H138294   1.747   4.089   1.683
 5553TIP3    H238295   1.773   4.005   1.560
 5554TIP3   OH238296   1.797   4.031   0.140
 5554TIP3    H138297   1.859   3.958   0.145
 5554TIP3    H238298   1.846   4.106   0.172
 5555TIP3   OH238299   0.122   4.053   0.457
 5555TIP3    H138300   0.035   4.019   0.474
 5555TIP3    H238301   0.109   4.125   0.395
 5556TIP3   OH238302   1.501   5.541   0.668
 5556TIP3    H138303   1.577   5.546   0.610
 5556TIP3    H238304   1.527   5.589   0.747
 5557TIP3   OH238305   7.371   3.892   1.331
 5557TIP3    H138306   7.314   3.872   1.405
 5557TIP3    H238307   7.313   3.932   1.266
 5558TIP3   OH238308   0.244   5.243   1.686
 5558TIP3    H138309   0.232   5.206   1.599
 5558TIP3    H238310   0.260   5.168   1.743
 5559TIP3   OH238311   0.567   5.358   1.358
 5559TIP3    H138312   0.533   5.443   1.330
 5559TIP3    H238313   0.660   5.361   1.335
 5560TIP3   OH238314   0.946   5.488   1.626
 5560TIP3    H138315   0.961   5.455   1.714
 5560TIP3    H238316   1.021   5.545   1.609
 5561TIP3   OH238317   1.174   5.652   1.611
 5561TIP3    H138318   1.256   5.603   1.610
 5561TIP3    H238319   1.182   5.709   1.688
 5562TIP3   OH238320   1.691   3.867   1.468
 5562TIP3    H138321   1.602   3.900   1.478
 5562TIP3    H238322   1.692   3.783   1.514
 5563TIP3   OH238323   0.255   5.648   1.379
 5563TIP3    H138324   0.175   5.692   1.350
 5563TIP3    H238325   0.276   5.691   1.463
 5564TIP3   OH238326   0.516   5.619   1.283
 5564TIP3    H138327   0.425   5.632   1.310
 5564TIP3    H238328   0.523   5.668   1.201
 5565TIP3   OH238329   0.979   5.592   1.177
 5565TIP3    H138330   0.922   5.632   1.111
 5565TIP3    H238331   0.992   5.661   1.241
 5566TIP3   OH238332   1.202   5.466   1.279
 5566TIP3    H138333   1.125   5.510   1.245
 5566TIP3    H238334   1.272   5.530   1.272
 5567TIP3   OH238335   1.440   5.617   1.274
 5567TIP3    H138336   1.464   5.708   1.256
 5567TIP3    H238337   1.482   5.567   1.204
 5568TIP3   OH238338   0.214   5.517   1.020
 5568TIP3    H138339   0.205   5.480   1.107
 5568TIP3    H238340   0.290   5.473   0.982
 5569TIP3   OH238341   0.432   5.379   0.925
 5569TIP3    H138342   0.417   5.288   0.951
 5569TIP3    H238343   0.518   5.401   0.962
 5570TIP3   OH238344   0.694   5.409   1.031
 5570TIP3    H138345   0.703   5.319   1.000
 5570TIP3    H238346   0.730   5.408   1.119
 5571TIP3   OH238347   1.013   3.990   0.913
 5571TIP3    H138348   0.955   3.918   0.941
 5571TIP3    H238349   1.089   3.945   0.875
 5572TIP3   OH238350   1.531   3.814   0.898
 5572TIP3    H138351   1.595   3.871   0.856
 5572TIP3    H238352   1.455   3.870   0.912
 5573TIP3   OH238353   1.717   3.931   0.736
 5573TIP3    H138354   1.783   3.866   0.714
 5573TIP3    H238355   1.767   4.012   0.751
 5574TIP3   OH238356   0.292   3.848   0.682
 5574TIP3    H138357   0.203   3.845   0.647
 5574TIP3    H238358   0.326   3.760   0.670
 5575TIP3   OH238359   0.212   3.839   0.263
 5575TIP3    H138360   0.253   3.916   0.225
 5575TIP3    H238361   0.148   3.873   0.325
 5576TIP3   OH238362   0.742   3.805   0.698
 5576TIP3    H138363   0.813   3.855   0.657
 5576TIP3    H238364   0.760   3.810   0.792
 5577TIP3   OH238365   1.242   3.868   0.823
 5577TIP3    H138366   1.284   3.854   0.739
 5577TIP3    H238367   1.225   3.780   0.857
 5578TIP3   OH238368   1.422   3.880   0.400
 5578TIP3    H138369   1.360   3.920   0.339
 5578TIP3    H238370   1.382   3.797   0.424
 5579TIP3   OH238371   0.154   5.456   0.352
 5579TIP3    H138372   0.068   5.429   0.319
 5579TIP3    H238373   0.160   5.549   0.332
 5580TIP3   OH238374   0.372   4.040   0.132
 5580TIP3    H138375   0.406   3.962   0.089
 5580TIP3    H238376   0.433   4.057   0.204
 5581TIP3   OH238377   0.839   4.066   0.353
 5581TIP3    H138378   0.880   4.002   0.410
 5581TIP3    H238379   0.864   4.151   0.390
 5582TIP3   OH238380   1.019   5.638   0.223
 5582TIP3    H138381   1.088   5.693   0.185
 5582TIP3    H238382   1.035   5.551   0.186
 5583TIP3   OH238383   1.706   5.535   0.481
 5583TIP3    H138384   1.685   5.446   0.453
 5583TIP3    H238385   1.688   5.590   0.405
 5584TIP3   OH238386   0.293   3.962   1.623
 5584TIP3    H138387   0.240   3.889   1.655
 5584TIP3    H238388   0.358   3.921   1.566
 5585TIP3   OH238389   0.353   5.496   0.078
 5585TIP3    H138390   0.313   5.576   0.043
 5585TIP3    H238391   0.324   5.492   0.169
 5586TIP3   OH238392   1.590   5.380   1.691
 5586TIP3    H138393   1.531   5.373   1.616
 5586TIP3    H238394   1.592   5.473   1.711
 5587TIP3   OH238395   3.082   4.800   0.657
 5587TIP3    H138396   3.070   4.894   0.651
 5587TIP3    H238397   3.007   4.763   0.610
 5588TIP3   OH238398   2.952   4.707   1.053
 5588TIP3    H138399   2.978   4.669   1.138
 5588TIP3    H238400   2.905   4.636   1.009
 5589TIP3   OH238401   2.164   4.652   1.197
 5589TIP3    H138402   2.169   4.569   1.244
 5589TIP3    H238403   2.232   4.707   1.238
 5590TIP3   OH238404   3.343   5.020   0.871
 5590TIP3    H138405   3.306   4.945   0.917
 5590TIP3    H238406   3.361   5.084   0.940
 5591TIP3   OH238407   2.313   5.108   0.976
 5591TIP3    H138408   2.278   5.020   0.967
 5591TIP3    H238409   2.404   5.096   1.003
 5592TIP3   OH238410   1.971   4.458   0.531
 5592TIP3    H138411   1.940   4.541   0.568
 5592TIP3    H238412   1.896   4.423   0.483
 5593TIP3   OH238413   2.025   4.696   0.810
 5593TIP3    H138414   2.051   4.608   0.835
 5593TIP3    H238415   2.102   4.750   0.830
 5594TIP3   OH238416   3.066   5.503   0.910
 5594TIP3    H138417   3.104   5.438   0.851
 5594TIP3    H238418   3.033   5.452   0.984
 5595TIP3   OH238419   2.805   4.956   1.073
 5595TIP3    H138420   2.842   4.874   1.040
 5595TIP3    H238421   2.871   4.991   1.132
 5596TIP3   OH238422   3.682   4.103   1.164
 5596TIP3    H138423   3.699   4.169   1.231
 5596TIP3    H238424   3.732   4.132   1.088
 5597TIP3   OH238425   3.113   4.381   1.078
 5597TIP3    H138426   3.128   4.288   1.094
 5597TIP3    H238427   3.099   4.386   0.983
 5598TIP3   OH238428   2.456   4.188   0.812
 5598TIP3    H138429   2.463   4.273   0.770
 5598TIP3    H238430   2.402   4.136   0.753
 5599TIP3   OH238431   3.237   4.215   0.654
 5599TIP3    H138432   3.277   4.183   0.735
 5599TIP3    H238433   3.309   4.255   0.605
 5600TIP3   OH238434   2.099   4.442   0.890
 5600TIP3    H138435   2.162   4.405   0.951
 5600TIP3    H238436   2.121   4.403   0.805
 5601TIP3   OH238437   2.592   4.587   0.848
 5601TIP3    H138438   2.673   4.548   0.880
 5601TIP3    H238439   2.553   4.519   0.793
 5602TIP3   OH238440   3.725   4.269   1.381
 5602TIP3    H138441   3.648   4.324   1.367
 5602TIP3    H238442   3.742   4.275   1.475
 5603TIP3   OH238443   2.313   4.106   1.241
 5603TIP3    H138444   2.285   4.168   1.174
 5603TIP3    H238445   2.248   4.115   1.311
 5604TIP3   OH238446   3.055   5.060   0.557
 5604TIP3    H138447   3.032   5.054   0.464
 5604TIP3    H238448   3.003   5.133   0.590
 5605TIP3   OH238449   2.580   4.876   1.215
 5605TIP3    H138450   2.528   4.947   1.253
 5605TIP3    H238451   2.652   4.920   1.171
 5606TIP3   OH238452   3.339   4.162   0.902
 5606TIP3    H138453   3.273   4.135   0.966
 5606TIP3    H238454   3.396   4.222   0.950
 5607TIP3   OH238455   2.289   4.275   1.018
 5607TIP3    H138456   2.344   4.332   1.072
 5607TIP3    H238457   2.349   4.238   0.954
 5608TIP3   OH238458   2.424   5.078   1.323
 5608TIP3    H138459   2.434   5.173   1.315
 5608TIP3    H238460   2.332   5.066   1.348
 5609TIP3   OH238461   1.997   5.059   0.418
 5609TIP3    H138462   1.989   5.119   0.344
 5609TIP3    H238463   2.022   5.114   0.492
 5610TIP3   OH238464   3.376   5.218   1.073
 5610TIP3    H138465   3.282   5.219   1.093
 5610TIP3    H238466   3.397   5.310   1.054
 5611TIP3   OH238467   3.431   4.000   1.250
 5611TIP3    H138468   3.361   4.046   1.205
 5611TIP3    H238469   3.512   4.029   1.208
 5612TIP3   OH238470   2.672   3.795   0.979
 5612TIP3    H138471   2.647   3.703   0.983
 5612TIP3    H238472   2.597   3.843   1.013
 5613TIP3   OH238473   3.195   5.360   0.705
 5613TIP3    H138474   3.238   5.277   0.685
 5613TIP3    H238475   3.266   5.425   0.705
 5614TIP3   OH238476   3.321   5.126   0.615
 5614TIP3    H138477   3.235   5.091   0.592
 5614TIP3    H238478   3.342   5.085   0.699
 5615TIP3   OH238479   3.486   5.008   1.436
 5615TIP3    H138480   3.479   4.947   1.363
 5615TIP3    H238481   3.499   5.093   1.395
 5616TIP3   OH238482   2.926   4.700   0.444
 5616TIP3    H138483   2.862   4.767   0.419
 5616TIP3    H238484   2.990   4.700   0.373
 5617TIP3   OH238485   2.929   4.530   0.128
 5617TIP3    H138486   2.993   4.576   0.183
 5617TIP3    H238487   2.979   4.457   0.090
 5618TIP3   OH238488   3.663   4.661   1.260
 5618TIP3    H138489   3.589   4.721   1.256
 5618TIP3    H238490   3.719   4.686   1.186
 5619TIP3   OH238491   3.292   4.727   0.501
 5619TIP3    H138492   3.226   4.755   0.564
 5619TIP3    H238493   3.357   4.679   0.553
 5620TIP3   OH238494   3.255   4.518   1.454
 5620TIP3    H138495   3.261   4.592   1.514
 5620TIP3    H238496   3.187   4.543   1.392
 5621TIP3   OH238497   2.449   4.781   0.708
 5621TIP3    H138498   2.429   4.740   0.624
 5621TIP3    H238499   2.505   4.717   0.753
 5622TIP3   OH238500   2.600   5.130   0.971
 5622TIP3    H138501   2.606   5.135   0.875
 5622TIP3    H238502   2.674   5.075   0.997
 5623TIP3   OH238503   2.452   4.682   1.069
 5623TIP3    H138504   2.510   4.658   0.997
 5623TIP3    H238505   2.500   4.748   1.119
 5624TIP3   OH238506   3.117   5.225   1.150
 5624TIP3    H138507   3.097   5.300   1.207
 5624TIP3    H238508   3.072   5.151   1.191
 5625TIP3   OH238509   2.580   5.101   1.555
 5625TIP3    H138510   2.521   5.161   1.601
 5625TIP3    H238511   2.532   5.074   1.477
 5626TIP3   OH238512   3.148   4.652   0.278
 5626TIP3    H138513   3.197   4.680   0.356
 5626TIP3    H238514   3.199   4.688   0.205
 5627TIP3   OH238515   2.248   4.697   1.492
 5627TIP3    H138516   2.265   4.779   1.539
 5627TIP3    H238517   2.153   4.693   1.485
 5628TIP3   OH238518   2.938   5.302   0.624
 5628TIP3    H138519   3.020   5.332   0.663
 5628TIP3    H238520   2.900   5.381   0.585
 5629TIP3   OH238521   2.388   5.287   1.630
 5629TIP3    H138522   2.384   5.320   1.540
 5629TIP3    H238523   2.297   5.279   1.656
 5630TIP3   OH238524   3.524   3.814   0.263
 5630TIP3    H138525   3.442   3.841   0.304
 5630TIP3    H238526   3.567   3.896   0.239
 5631TIP3   OH238527   2.357   4.689   0.445
 5631TIP3    H138528   2.293   4.752   0.413
 5631TIP3    H238529   2.305   4.612   0.468
 5632TIP3   OH238530   3.655   5.294   0.091
 5632TIP3    H138531   3.668   5.384   0.121
 5632TIP3    H238532   3.659   5.241   0.171
 5633TIP3   OH238533   1.942   4.940   1.381
 5633TIP3    H138534   1.891   4.946   1.300
 5633TIP3    H238535   1.955   4.846   1.395
 5634TIP3   OH238536   1.920   5.235   1.057
 5634TIP3    H138537   2.003   5.234   1.104
 5634TIP3    H238538   1.875   5.313   1.090
 5635TIP3   OH238539   3.729   5.279   1.635
 5635TIP3    H138540   3.719   5.184   1.634
 5635TIP3    H238541   3.642   5.312   1.658
 5636TIP3   OH238542   2.820   5.226   1.498
 5636TIP3    H138543   2.825   5.304   1.554
 5636TIP3    H238544   2.734   5.187   1.519
 5637TIP3   OH238545   2.911   5.578   0.494
 5637TIP3    H138546   2.894   5.598   0.402
 5637TIP3    H238547   2.884   5.656   0.541
 5638TIP3   OH238548   2.250   5.469   0.676
 5638TIP3    H138549   2.273   5.440   0.765
 5638TIP3    H238550   2.195   5.399   0.641
 5639TIP3   OH238551   3.192   5.521   0.155
 5639TIP3    H138552   3.265   5.465   0.130
 5639TIP3    H238553   3.195   5.524   0.250
 5640TIP3   OH238554   3.175   5.520   0.438
 5640TIP3    H138555   3.083   5.530   0.459
 5640TIP3    H238556   3.213   5.474   0.513
 5641TIP3   OH238557   3.450   4.397   1.670
 5641TIP3    H138558   3.375   4.440   1.629
 5641TIP3    H238559   3.454   4.311   1.628
 5642TIP3   OH238560   2.167   5.095   1.425
 5642TIP3    H138561   2.199   5.060   1.508
 5642TIP3    H238562   2.086   5.047   1.408
 5643TIP3   OH238563   2.429   3.912   1.072
 5643TIP3    H138564   2.354   3.905   1.012
 5643TIP3    H238565   2.407   3.985   1.130
 5644TIP3   OH238566   2.910   3.878   1.406
 5644TIP3    H138567   2.960   3.830   1.471
 5644TIP3    H238568   2.819   3.873   1.436
 5645TIP3   OH238569   3.199   4.246   1.503
 5645TIP3    H138570   3.140   4.229   1.576
 5645TIP3    H238571   3.198   4.341   1.493
 5646TIP3   OH238572   3.315   4.772   0.094
 5646TIP3    H138573   3.394   4.770   0.040
 5646TIP3    H238574   3.337   4.829   0.167
 5647TIP3   OH238575   2.905   4.107   0.144
 5647TIP3    H138576   2.835   4.105   0.210
 5647TIP3    H238577   2.874   4.049   0.075
 5648TIP3   OH238578   2.437   4.433   1.188
 5648TIP3    H138579   2.372   4.434   1.258
 5648TIP3    H238580   2.438   4.522   1.154
 5649TIP3   OH238581   2.446   4.425   0.673
 5649TIP3    H138582   2.351   4.412   0.674
 5649TIP3    H238583   2.473   4.404   0.584
 5650TIP3   OH238584   2.987   4.451   0.547
 5650TIP3    H138585   2.963   4.539   0.517
 5650TIP3    H238586   3.056   4.423   0.488
 5651TIP3   OH238587   2.912   4.464   1.681
 5651TIP3    H138588   2.855   4.393   1.710
 5651TIP3    H238589   2.990   4.455   1.736
 5652TIP3   OH238590   3.083   4.395   0.806
 5652TIP3    H138591   3.037   4.441   0.736
 5652TIP3    H238592   3.128   4.322   0.762
 5653TIP3   OH238593   2.215   4.425   1.356
 5653TIP3    H138594   2.220   4.480   1.434
 5653TIP3    H238595   2.176   4.343   1.387
 5654TIP3   OH238596   2.582   4.178   0.071
 5654TIP3    H138597   2.557   4.132   0.151
 5654TIP3    H238598   2.561   4.270   0.089
 5655TIP3   OH238599   1.895   4.136   0.738
 5655TIP3    H138600   1.946   4.145   0.818
 5655TIP3    H238601   1.959   4.110   0.672
 5656TIP3   OH238602   1.954   4.232   0.262
 5656TIP3    H138603   2.032   4.275   0.228
 5656TIP3    H238604   1.899   4.304   0.294
 5657TIP3   OH238605   3.035   4.552   1.274
 5657TIP3    H138606   3.068   4.493   1.206
 5657TIP3    H238607   2.972   4.499   1.322
 5658TIP3   OH238608   2.738   4.149   0.759
 5658TIP3    H138609   2.650   4.154   0.796
 5658TIP3    H238610   2.791   4.112   0.829
 5659TIP3   OH238611   2.188   4.338   0.650
 5659TIP3    H138612   2.113   4.366   0.598
 5659TIP3    H238613   2.204   4.248   0.623
 5660TIP3   OH238614   2.508   4.344   0.417
 5660TIP3    H138615   2.602   4.340   0.437
 5660TIP3    H238616   2.504   4.383   0.330
 5661TIP3   OH238617   3.138   4.102   1.085
 5661TIP3    H138618   3.098   4.104   1.173
 5661TIP3    H238619   3.072   4.059   1.031
 5662TIP3   OH238620   2.461   4.424   0.155
 5662TIP3    H138621   2.370   4.432   0.127
 5662TIP3    H238622   2.510   4.481   0.096
 5663TIP3   OH238623   3.477   5.658   1.733
 5663TIP3    H138624   3.500   5.691   1.646
 5663TIP3    H238625   3.553   5.679   1.788
 5664TIP3   OH238626   2.263   4.936   1.642
 5664TIP3    H138627   2.325   4.940   1.715
 5664TIP3    H238628   2.177   4.936   1.683
 5665TIP3   OH238629   2.814   4.465   0.964
 5665TIP3    H138630   2.886   4.412   0.930
 5665TIP3    H238631   2.781   4.415   1.039
 5666TIP3   OH238632   2.290   4.075   0.610
 5666TIP3    H138633   2.241   3.996   0.633
 5666TIP3    H238634   2.340   4.049   0.532
 5667TIP3   OH238635   2.701   4.337   1.189
 5667TIP3    H138636   2.616   4.381   1.198
 5667TIP3    H238637   2.750   4.364   1.267
 5668TIP3   OH238638   2.751   4.898   0.361
 5668TIP3    H138639   2.678   4.857   0.315
 5668TIP3    H238640   2.713   4.932   0.442
 5669TIP3   OH238641   3.464   4.847   1.209
 5669TIP3    H138642   3.524   4.904   1.160
 5669TIP3    H238643   3.390   4.833   1.150
 5670TIP3   OH238644   3.166   4.145   0.227
 5670TIP3    H138645   3.081   4.137   0.183
 5670TIP3    H238646   3.172   4.237   0.250
 5671TIP3   OH238647   2.891   4.939   1.499
 5671TIP3    H138648   2.918   4.903   1.584
 5671TIP3    H238649   2.861   5.028   1.520
 5672TIP3   OH238650   3.196   4.387   0.367
 5672TIP3    H138651   3.284   4.376   0.403
 5672TIP3    H238652   3.199   4.473   0.324
 5673TIP3   OH238653   2.260   4.821   0.910
 5673TIP3    H138654   2.324   4.820   0.839
 5673TIP3    H238655   2.300   4.769   0.980
 5674TIP3   OH238656   2.977   5.044   0.282
 5674TIP3    H138657   2.934   5.129   0.293
 5674TIP3    H238658   2.908   4.980   0.301
 5675TIP3   OH238659   1.969   4.671   1.469
 5675TIP3    H138660   1.937   4.632   1.550
 5675TIP3    H238661   1.902   4.648   1.404
 5676TIP3   OH238662   2.696   4.651   1.685
 5676TIP3    H138663   2.632   4.610   1.627
 5676TIP3    H238664   2.776   4.600   1.672
 5677TIP3   OH238665   3.102   5.211   1.498
 5677TIP3    H138666   3.009   5.215   1.475
 5677TIP3    H238667   3.105   5.227   1.592
 5678TIP3   OH238668   3.641   4.440   0.315
 5678TIP3    H138669   3.580   4.415   0.246
 5678TIP3    H238670   3.662   4.532   0.296
 5679TIP3   OH238671   3.700   4.997   1.606
 5679TIP3    H138672   3.613   5.010   1.568
 5679TIP3    H238673   3.758   4.986   1.530
 5680TIP3   OH238674   3.497   5.260   0.393
 5680TIP3    H138675   3.469   5.217   0.473
 5680TIP3    H238676   3.426   5.244   0.331
 5681TIP3   OH238677   3.252   4.788   1.022
 5681TIP3    H138678   3.157   4.780   1.025
 5681TIP3    H238679   3.281   4.708   0.979
 5682TIP3   OH238680   2.526   5.210   0.701
 5682TIP3    H138681   2.545   5.294   0.661
 5682TIP3    H238682   2.437   5.219   0.736
 5683TIP3   OH238683   2.025   4.721   0.135
 5683TIP3    H138684   2.084   4.755   0.202
 5683TIP3    H238685   1.946   4.694   0.183
 5684TIP3   OH238686   2.609   4.973   0.581
 5684TIP3    H138687   2.592   5.060   0.618
 5684TIP3    H238688   2.557   4.913   0.635
 5685TIP3   OH238689   2.713   5.381   1.281
 5685TIP3    H138690   2.769   5.457   1.265
 5685TIP3    H238691   2.763   5.326   1.341
 5686TIP3   OH238692   2.512   5.475   0.588
 5686TIP3    H138693   2.421   5.487   0.613
 5686TIP3    H238694   2.557   5.551   0.625
 5687TIP3   OH238695   3.012   4.987   1.258
 5687TIP3    H138696   2.967   4.969   1.341
 5687TIP3    H238697   3.090   4.932   1.260
 5688TIP3   OH238698   3.252   5.099   0.158
 5688TIP3    H138699   3.301   5.039   0.214
 5688TIP3    H238700   3.162   5.092   0.188
 5689TIP3   OH238701   3.308   5.408   1.469
 5689TIP3    H138702   3.228   5.357   1.455
 5689TIP3    H238703   3.302   5.479   1.405
 5690TIP3   OH238704   3.728   5.537   0.184
 5690TIP3    H138705   3.798   5.602   0.190
 5690TIP3    H238706   3.648   5.587   0.199
 5691TIP3   OH238707   2.104   4.167   1.438
 5691TIP3    H138708   2.012   4.177   1.414
 5691TIP3    H238709   2.107   4.087   1.490
 5692TIP3   OH238710   3.393   4.914   0.318
 5692TIP3    H138711   3.348   4.864   0.387
 5692TIP3    H238712   3.483   4.923   0.350
 5693TIP3   OH238713   2.108   5.348   1.265
 5693TIP3    H138714   2.133   5.271   1.315
 5693TIP3    H238715   2.119   5.421   1.326
 5694TIP3   OH238716   2.539   5.163   0.241
 5694TIP3    H138717   2.611   5.115   0.281
 5694TIP3    H238718   2.552   5.253   0.268
 5695TIP3   OH238719   2.175   4.866   0.320
 5695TIP3    H138720   2.112   4.914   0.375
 5695TIP3    H238721   2.227   4.935   0.278
 5696TIP3   OH238722   3.021   4.119   1.332
 5696TIP3    H138723   3.085   4.143   1.399
 5696TIP3    H238724   2.982   4.038   1.364
 5697TIP3   OH238725   3.092   4.054   0.480
 5697TIP3    H138726   3.109   4.092   0.394
 5697TIP3    H238727   3.134   4.114   0.542
 5698TIP3   OH238728   2.823   5.265   0.313
 5698TIP3    H138729   2.750   5.319   0.342
 5698TIP3    H238730   2.869   5.319   0.249
 5699TIP3   OH238731   2.761   4.295   0.524
 5699TIP3    H138732   2.838   4.351   0.531
 5699TIP3    H238733   2.752   4.255   0.610
 5700TIP3   OH238734   2.875   4.372   1.409
 5700TIP3    H138735   2.882   4.395   1.502
 5700TIP3    H238736   2.908   4.283   1.404
 5701TIP3   OH238737   2.853   3.958   0.582
 5701TIP3    H138738   2.828   4.026   0.645
 5701TIP3    H238739   2.940   3.985   0.551
 5702TIP3   OH238740   2.589   5.417   0.331
 5702TIP3    H138741   2.595   5.501   0.286
 5702TIP3    H238742   2.562   5.439   0.420
 5703TIP3   OH238743   2.451   4.091   0.312
 5703TIP3    H138744   2.445   4.177   0.352
 5703TIP3    H238745   2.539   4.060   0.333
 5704TIP3   OH238746   3.452   4.153   1.519
 5704TIP3    H138747   3.359   4.174   1.516
 5704TIP3    H238748   3.471   4.115   1.433
 5705TIP3   OH238749   3.324   4.536   0.901
 5705TIP3    H138750   3.239   4.496   0.885
 5705TIP3    H238751   3.369   4.476   0.960
 5706TIP3   OH238752   2.273   5.091   0.181
 5706TIP3    H138753   2.334   5.148   0.228
 5706TIP3    H238754   2.329   5.038   0.124
 5707TIP3   OH238755   2.118   4.435   0.113
 5707TIP3    H138756   2.094   4.527   0.111
 5707TIP3    H238757   2.089   4.400   0.028
 5708TIP3   OH238758   3.453   5.486   1.065
 5708TIP3    H138759   3.441   5.556   1.001
 5708TIP3    H238760   3.548   5.484   1.080
 5709TIP3   OH238761   2.186   3.887   0.939
 5709TIP3    H138762   2.179   3.876   0.844
 5709TIP3    H238763   2.151   3.805   0.975
 5710TIP3   OH238764   2.057   5.281   0.578
 5710TIP3    H138765   2.009   5.313   0.655
 5710TIP3    H238766   2.037   5.345   0.510
 5711TIP3   OH238767   2.040   5.540   1.702
 5711TIP3    H138768   2.104   5.480   1.741
 5711TIP3    H238769   1.963   5.485   1.686
 5712TIP3   OH238770   2.434   5.335   1.910
 5712TIP3    H138771   2.465   5.424   1.929
 5712TIP3    H238772   2.434   5.330   1.814
 5713TIP3   OH238773   2.952   5.395   0.115
 5713TIP3    H138774   2.928   5.359   0.030
 5713TIP3    H238775   3.043   5.425   0.104
 5714TIP3   OH238776   3.103   5.247   1.770
 5714TIP3    H138777   3.088   5.168   1.822
 5714TIP3    H238778   3.175   5.291   1.815
 5715TIP3   OH238779   3.365   5.336   0.054
 5715TIP3    H138780   3.329   5.250   0.079
 5715TIP3    H238781   3.458   5.320   0.041
 5716TIP3   OH238782   2.018   4.919   1.749
 5716TIP3    H138783   2.016   4.824   1.763
 5716TIP3    H238784   1.927   4.941   1.728
 5717TIP3   OH238785   2.429   4.911   0.050
 5717TIP3    H138786   2.472   4.872   0.126
 5717TIP3    H238787   2.475   4.873  -0.025
 5718TIP3   OH238788   2.666   4.925   1.754
 5718TIP3    H138789   2.643   4.972   1.674
 5718TIP3    H238790   2.684   4.835   1.725
 5719TIP3   OH238791   3.225   4.955   1.506
 5719TIP3    H138792   3.315   4.981   1.489
 5719TIP3    H238793   3.175   5.037   1.499
 5720TIP3   OH238794   2.072   4.648   1.775
 5720TIP3    H138795   2.160   4.614   1.760
 5720TIP3    H238796   2.043   4.607   1.857
 5721TIP3   OH238797   2.544   4.753   0.245
 5721TIP3    H138798   2.490   4.724   0.319
 5721TIP3    H238799   2.581   4.673   0.209
 5722TIP3   OH238800   2.489   4.547   1.497
 5722TIP3    H138801   2.414   4.607   1.493
 5722TIP3    H238802   2.551   4.583   1.434
 5723TIP3   OH238803   2.668   4.572   0.037
 5723TIP3    H138804   2.683   4.529  -0.047
 5723TIP3    H238805   2.753   4.568   0.081
 5724TIP3   OH238806   3.015   4.805   1.811
 5724TIP3    H138807   3.106   4.779   1.819
 5724TIP3    H238808   2.966   4.738   1.857
 5725TIP3   OH238809   3.570   4.850   8.489
 5725TIP3    H138810   3.556   4.848   8.394
 5725TIP3    H238811   3.580   4.943   8.509
 5726TIP3   OH238812   2.519   4.291   1.589
 5726TIP3    H138813   2.536   4.230   1.518
 5726TIP3    H238814   2.510   4.376   1.546
 5727TIP3   OH238815   2.566   4.131   1.351
 5727TIP3    H138816   2.619   4.179   1.288
 5727TIP3    H238817   2.479   4.127   1.312
 5728TIP3   OH238818   2.684   4.656   1.343
 5728TIP3    H138819   2.775   4.676   1.367
 5728TIP3    H238820   2.652   4.736   1.301
 5729TIP3   OH238821   3.116   4.385   1.896
 5729TIP3    H138822   3.117   4.295   1.931
 5729TIP3    H238823   3.207   4.413   1.901
 5730TIP3   OH238824   3.298   4.722   1.631
 5730TIP3    H138825   3.259   4.801   1.593
 5730TIP3    H238826   3.392   4.741   1.632
 5731TIP3   OH238827   2.358   4.344   1.811
 5731TIP3    H138828   2.277   4.319   1.767
 5731TIP3    H238829   2.427   4.327   1.747
 5732TIP3   OH238830   2.626   3.861   1.407
 5732TIP3    H138831   2.607   3.954   1.397
 5732TIP3    H238832   2.550   3.816   1.370
 5733TIP3   OH238833   2.755   4.250   1.728
 5733TIP3    H138834   2.749   4.161   1.764
 5733TIP3    H238835   2.669   4.267   1.690
 5734TIP3   OH238836   3.020   4.162   1.686
 5734TIP3    H138837   2.927   4.183   1.701
 5734TIP3    H238838   3.043   4.105   1.760
 5735TIP3   OH238839   2.616   3.758   1.664
 5735TIP3    H138840   2.682   3.689   1.661
 5735TIP3    H238841   2.617   3.797   1.577
 5736TIP3   OH238842   2.724   3.988   1.785
 5736TIP3    H138843   2.696   3.900   1.759
 5736TIP3    H238844   2.655   4.018   1.844
 5737TIP3   OH238845   2.636   5.629   0.157
 5737TIP3    H138846   2.725   5.645   0.186
 5737TIP3    H238847   2.627   5.679   0.075
 5738TIP3   OH238848   2.013   5.112   0.092
 5738TIP3    H138849   2.099   5.110   0.135
 5738TIP3    H238850   2.024   5.173   0.019
 5739TIP3   OH238851   1.895   5.615   0.663
 5739TIP3    H138852   1.838   5.586   0.592
 5739TIP3    H238853   1.910   5.537   0.716
 5740TIP3   OH238854   1.961   5.394   0.819
 5740TIP3    H138855   1.924   5.321   0.870
 5740TIP3    H238856   2.011   5.444   0.883
 5741TIP3   OH238857   3.721   5.486   1.135
 5741TIP3    H138858   3.722   5.492   1.231
 5741TIP3    H238859   3.799   5.533   1.108
 5742TIP3   OH238860   3.666   5.460   1.412
 5742TIP3    H138861   3.611   5.389   1.377
 5742TIP3    H238862   3.719   5.418   1.479
 5743TIP3   OH238863   3.508   5.040   1.912
 5743TIP3    H138864   3.422   5.060   1.949
 5743TIP3    H238865   3.560   5.119   1.929
 5744TIP3   OH238866   3.653   4.881   0.421
 5744TIP3    H138867   3.725   4.942   0.433
 5744TIP3    H238868   3.662   4.819   0.493
 5745TIP3   OH238869   3.704   4.688   0.614
 5745TIP3    H138870   3.620   4.651   0.643
 5745TIP3    H238871   3.751   4.708   0.695
 5746TIP3   OH238872   3.698   4.976   1.129
 5746TIP3    H138873   3.751   4.910   1.086
 5746TIP3    H238874   3.727   5.059   1.091
 5747TIP3   OH238875   3.496   5.258   1.324
 5747TIP3    H138876   3.423   5.303   1.368
 5747TIP3    H238877   3.464   5.242   1.235
 5748TIP3   OH238878   3.676   4.701   0.215
 5748TIP3    H138879   3.627   4.741   0.144
 5748TIP3    H238880   3.666   4.763   0.288
 5749TIP3   OH238881   3.477   4.393   0.096
 5749TIP3    H138882   3.548   4.411   0.034
 5749TIP3    H238883   3.456   4.301   0.082
 5750TIP3   OH238884   3.457   4.566   0.660
 5750TIP3    H138885   3.453   4.475   0.628
 5750TIP3    H238886   3.415   4.563   0.746
 5751TIP3   OH238887   1.949   4.758   1.069
 5751TIP3    H138888   1.963   4.742   0.975
 5751TIP3    H238889   2.030   4.728   1.110
 5752TIP3   OH238890   3.569   4.753   1.651
 5752TIP3    H138891   3.627   4.679   1.635
 5752TIP3    H238892   3.622   4.830   1.630
 5753TIP3   OH238893   3.697   4.513   1.628
 5753TIP3    H138894   3.608   4.481   1.643
 5753TIP3    H238895   3.753   4.439   1.650
 5754TIP3   OH238896   3.421   4.132   0.064
 5754TIP3    H138897   3.498   4.085   0.095
 5754TIP3    H238898   3.350   4.101   0.121
 5755TIP3   OH238899   3.450   4.321   0.495
 5755TIP3    H138900   3.476   4.229   0.497
 5755TIP3    H238901   3.520   4.364   0.445
 5756TIP3   OH238902   3.475   4.353   1.054
 5756TIP3    H138903   3.567   4.364   1.034
 5756TIP3    H238904   3.469   4.370   1.148
 5757TIP3   OH238905   3.503   4.435   1.323
 5757TIP3    H138906   3.422   4.462   1.366
 5757TIP3    H238907   3.552   4.516   1.310
 5758TIP3   OH238908   1.993   4.286   1.701
 5758TIP3    H138909   2.041   4.252   1.625
 5758TIP3    H238910   1.922   4.224   1.714
 5759TIP3   OH238911   3.509   4.049   0.503
 5759TIP3    H138912   3.531   4.011   0.588
 5759TIP3    H238913   3.439   3.993   0.469
 5760TIP3   OH238914   2.053   4.128   0.964
 5760TIP3    H138915   2.092   4.041   0.968
 5760TIP3    H238916   2.124   4.187   0.989
 5761TIP3   OH238917   1.863   4.399   1.039
 5761TIP3    H138918   1.936   4.407   0.978
 5761TIP3    H238919   1.885   4.459   1.111
 5762TIP3   OH238920   3.643   4.034   1.674
 5762TIP3    H138921   3.569   4.080   1.634
 5762TIP3    H238922   3.656   3.957   1.618
 5763TIP3   OH238923   3.664   4.029   0.157
 5763TIP3    H138924   3.728   3.975   0.110
 5763TIP3    H238925   3.715   4.104   0.189
 5764TIP3   OH238926   1.908   4.020   0.438
 5764TIP3    H138927   1.815   4.026   0.461
 5764TIP3    H238928   1.926   4.099   0.387
 5765TIP3   OH238929   3.387   5.544   0.668
 5765TIP3    H138930   3.464   5.544   0.612
 5765TIP3    H238931   3.412   5.596   0.744
 5766TIP3   OH238932   1.885   3.867   1.266
 5766TIP3    H138933   1.820   3.866   1.336
 5766TIP3    H238934   1.865   3.946   1.216
 5767TIP3   OH238935   2.128   5.265   1.734
 5767TIP3    H138936   2.036   5.261   1.707
 5767TIP3    H238937   2.130   5.217   1.817
 5768TIP3   OH238938   2.447   5.353   1.351
 5768TIP3    H138939   2.414   5.438   1.322
 5768TIP3    H238940   2.542   5.358   1.336
 5769TIP3   OH238941   2.847   5.453   1.650
 5769TIP3    H138942   2.851   5.439   1.744
 5769TIP3    H238943   2.924   5.507   1.631
 5770TIP3   OH238944   3.076   5.604   1.594
 5770TIP3    H138945   3.146   5.549   1.559
 5770TIP3    H238946   3.111   5.640   1.675
 5771TIP3   OH238947   3.582   3.831   1.475
 5771TIP3    H138948   3.507   3.849   1.418
 5771TIP3    H238949   3.606   3.741   1.456
 5772TIP3   OH238950   2.139   5.639   1.374
 5772TIP3    H138951   2.062   5.682   1.336
 5772TIP3    H238952   2.147   5.677   1.462
 5773TIP3   OH238953   2.392   5.610   1.270
 5773TIP3    H138954   2.302   5.625   1.302
 5773TIP3    H238955   2.398   5.662   1.191
 5774TIP3   OH238956   2.859   5.605   1.198
 5774TIP3    H138957   2.805   5.644   1.129
 5774TIP3    H238958   2.866   5.673   1.265
 5775TIP3   OH238959   3.088   5.470   1.273
 5775TIP3    H138960   3.008   5.517   1.249
 5775TIP3    H238961   3.157   5.535   1.266
 5776TIP3   OH238962   3.328   5.612   1.277
 5776TIP3    H138963   3.351   5.704   1.263
 5776TIP3    H238964   3.370   5.566   1.204
 5777TIP3   OH238965   2.117   5.505   1.029
 5777TIP3    H138966   2.105   5.461   1.113
 5777TIP3    H238967   2.197   5.466   0.994
 5778TIP3   OH238968   2.332   5.375   0.921
 5778TIP3    H138969   2.317   5.284   0.946
 5778TIP3    H238970   2.417   5.397   0.960
 5779TIP3   OH238971   2.588   5.406   1.031
 5779TIP3    H138972   2.600   5.315   1.003
 5779TIP3    H238973   2.621   5.408   1.121
 5780TIP3   OH238974   2.902   3.986   0.914
 5780TIP3    H138975   2.844   3.915   0.941
 5780TIP3    H238976   2.979   3.942   0.877
 5781TIP3   OH238977   3.413   3.819   0.904
 5781TIP3    H138978   3.477   3.876   0.859
 5781TIP3    H238979   3.332   3.870   0.903
 5782TIP3   OH238980   3.599   3.930   0.735
 5782TIP3    H138981   3.663   3.862   0.714
 5782TIP3    H238982   3.652   4.008   0.752
 5783TIP3   OH238983   2.154   3.840   0.668
 5783TIP3    H138984   2.061   3.822   0.653
 5783TIP3    H238985   2.196   3.754   0.663
 5784TIP3   OH238986   2.006   3.851   0.240
 5784TIP3    H138987   2.086   3.898   0.216
 5784TIP3    H238988   1.975   3.897   0.318
 5785TIP3   OH238989   2.632   3.815   0.694
 5785TIP3    H138990   2.704   3.865   0.656
 5785TIP3    H238991   2.649   3.817   0.789
 5786TIP3   OH238992   3.133   3.861   0.825
 5786TIP3    H138993   3.171   3.841   0.740
 5786TIP3    H238994   3.112   3.776   0.864
 5787TIP3   OH238995   3.304   3.881   0.414
 5787TIP3    H138996   3.228   3.937   0.430
 5787TIP3    H238997   3.270   3.792   0.427
 5788TIP3   OH238998   2.012   5.458   0.375
 5788TIP3    H138999   1.935   5.457   0.318
 5788TIP3    H239000   2.047   5.546   0.366
 5789TIP3   OH239001   2.242   3.970   0.164
 5789TIP3    H139002   2.288   3.909   0.107
 5789TIP3    H239003   2.311   4.013   0.215
 5790TIP3   OH239004   2.723   4.078   0.360
 5790TIP3    H139005   2.761   4.010   0.416
 5790TIP3    H239006   2.739   4.160   0.408
 5791TIP3   OH239007   2.902   5.641   0.224
 5791TIP3    H139008   2.974   5.698   0.194
 5791TIP3    H239009   2.921   5.556   0.184
 5792TIP3   OH239010   3.589   5.516   0.476
 5792TIP3    H139011   3.568   5.429   0.443
 5792TIP3    H239012   3.570   5.574   0.403
 5793TIP3   OH239013   2.123   3.936   1.604
 5793TIP3    H139014   2.061   3.924   1.677
 5793TIP3    H239015   2.207   3.905   1.639
 5794TIP3   OH239016   2.341   3.818   1.719
 5794TIP3    H139017   2.435   3.804   1.719
 5794TIP3    H239018   2.309   3.771   1.796
 5795TIP3   OH239019   2.210   5.498   0.022
 5795TIP3    H139020   2.162   5.577   0.047
 5795TIP3    H239021   2.282   5.493   0.086
 5796TIP3   OH239022   3.194   3.786   1.802
 5796TIP3    H139023   3.166   3.818   1.888
 5796TIP3    H239024   3.283   3.754   1.816
 5797TIP3   OH239025   3.481   5.386   1.689
 5797TIP3    H139026   3.420   5.378   1.615
 5797TIP3    H239027   3.478   5.479   1.711
 5798TIP3   OH239028   4.940   4.792   0.653
 5798TIP3    H139029   4.935   4.888   0.644
 5798TIP3    H239030   4.850   4.762   0.639
 5799TIP3   OH239031   4.855   4.706   1.060
 5799TIP3    H139032   4.874   4.657   1.140
 5799TIP3    H239033   4.801   4.647   1.007
 5800TIP3   OH239034   4.062   4.672   1.206
 5800TIP3    H139035   4.066   4.587   1.249
 5800TIP3    H239036   4.113   4.730   1.263
 5801TIP3   OH239037   5.223   5.009   0.873
 5801TIP3    H139038   5.185   4.938   0.925
 5801TIP3    H239039   5.245   5.077   0.938
 5802TIP3   OH239040   4.178   5.120   0.973
 5802TIP3    H139041   4.153   5.037   1.014
 5802TIP3    H239042   4.273   5.124   0.983
 5803TIP3   OH239043   3.840   4.456   0.524
 5803TIP3    H139044   3.809   4.539   0.559
 5803TIP3    H239045   3.774   4.431   0.460
 5804TIP3   OH239046   3.949   4.721   0.791
 5804TIP3    H139047   3.955   4.627   0.804
 5804TIP3    H239048   4.016   4.758   0.849
 5805TIP3   OH239049   4.961   5.510   0.900
 5805TIP3    H139050   4.984   5.436   0.844
 5805TIP3    H239051   4.902   5.474   0.965
 5806TIP3   OH239052   4.687   4.942   1.059
 5806TIP3    H139053   4.745   4.867   1.045
 5806TIP3    H239054   4.734   4.998   1.121
 5807TIP3   OH239055   5.570   4.102   1.163
 5807TIP3    H139056   5.586   4.170   1.228
 5807TIP3    H239057   5.624   4.127   1.088
 5808TIP3   OH239058   4.998   4.379   1.077
 5808TIP3    H139059   5.011   4.286   1.095
 5808TIP3    H239060   4.982   4.384   0.983
 5809TIP3   OH239061   4.342   4.191   0.809
 5809TIP3    H139062   4.346   4.276   0.765
 5809TIP3    H239063   4.288   4.136   0.751
 5810TIP3   OH239064   5.137   4.227   0.642
 5810TIP3    H139065   5.165   4.193   0.727
 5810TIP3    H239066   5.217   4.226   0.590
 5811TIP3   OH239067   3.979   4.456   0.881
 5811TIP3    H139068   4.040   4.416   0.942
 5811TIP3    H239069   3.996   4.413   0.797
 5812TIP3   OH239070   4.483   4.589   0.835
 5812TIP3    H139071   4.562   4.547   0.870
 5812TIP3    H239072   4.441   4.521   0.783
 5813TIP3   OH239073   5.613   4.276   1.375
 5813TIP3    H139074   5.530   4.321   1.362
 5813TIP3    H239075   5.631   4.285   1.469
 5814TIP3   OH239076   4.207   4.107   1.225
 5814TIP3    H139077   4.181   4.168   1.156
 5814TIP3    H239078   4.137   4.114   1.290
 5815TIP3   OH239079   4.928   5.053   0.567
 5815TIP3    H139080   4.902   5.054   0.475
 5815TIP3    H239081   4.881   5.127   0.606
 5816TIP3   OH239082   4.460   4.847   1.234
 5816TIP3    H139083   4.379   4.891   1.259
 5816TIP3    H239084   4.522   4.919   1.215
 5817TIP3   OH239085   5.217   4.172   0.895
 5817TIP3    H139086   5.153   4.137   0.958
 5817TIP3    H239087   5.276   4.225   0.948
 5818TIP3   OH239088   4.168   4.281   1.009
 5818TIP3    H139089   4.223   4.337   1.065
 5818TIP3    H239090   4.229   4.245   0.945
 5819TIP3   OH239091   4.239   5.007   1.271
 5819TIP3    H139092   4.312   5.069   1.278
 5819TIP3    H239093   4.173   5.041   1.331
 5820TIP3   OH239094   3.887   5.032   0.436
 5820TIP3    H139095   3.912   5.073   0.353
 5820TIP3    H239096   3.899   5.100   0.501
 5821TIP3   OH239097   5.263   5.212   1.066
 5821TIP3    H139098   5.171   5.212   1.092
 5821TIP3    H239099   5.282   5.304   1.048
 5822TIP3   OH239100   5.318   3.999   1.247
 5822TIP3    H139101   5.249   4.046   1.199
 5822TIP3    H239102   5.400   4.027   1.205
 5823TIP3   OH239103   4.561   3.794   0.978
 5823TIP3    H139104   4.536   3.702   0.982
 5823TIP3    H239105   4.483   3.841   1.009
 5824TIP3   OH239106   5.099   5.370   0.674
 5824TIP3    H139107   5.144   5.286   0.666
 5824TIP3    H239108   5.168   5.433   0.695
 5825TIP3   OH239109   5.198   5.082   0.606
 5825TIP3    H139110   5.102   5.074   0.599
 5825TIP3    H239111   5.216   5.060   0.698
 5826TIP3   OH239112   5.366   5.008   1.437
 5826TIP3    H139113   5.362   4.947   1.363
 5826TIP3    H239114   5.377   5.094   1.397
 5827TIP3   OH239115   4.782   4.691   0.424
 5827TIP3    H139116   4.716   4.758   0.406
 5827TIP3    H239117   4.853   4.709   0.362
 5828TIP3   OH239118   4.820   4.536   0.120
 5828TIP3    H139119   4.878   4.592   0.173
 5828TIP3    H239120   4.878   4.469   0.085
 5829TIP3   OH239121   5.538   4.660   1.270
 5829TIP3    H139122   5.466   4.723   1.262
 5829TIP3    H239123   5.599   4.686   1.201
 5830TIP3   OH239124   5.173   4.707   0.549
 5830TIP3    H139125   5.087   4.729   0.586
 5830TIP3    H239126   5.233   4.771   0.588
 5831TIP3   OH239127   5.146   4.519   1.449
 5831TIP3    H139128   5.152   4.589   1.515
 5831TIP3    H239129   5.075   4.547   1.391
 5832TIP3   OH239130   4.320   4.781   0.723
 5832TIP3    H139131   4.297   4.732   0.645
 5832TIP3    H239132   4.384   4.726   0.768
 5833TIP3   OH239133   4.454   5.145   0.993
 5833TIP3    H139134   4.521   5.093   0.949
 5833TIP3    H239135   4.479   5.142   1.085
 5834TIP3   OH239136   4.351   4.667   1.064
 5834TIP3    H139137   4.409   4.651   0.990
 5834TIP3    H239138   4.397   4.731   1.118
 5835TIP3   OH239139   5.012   5.217   1.161
 5835TIP3    H139140   4.980   5.292   1.212
 5835TIP3    H239141   4.966   5.142   1.198
 5836TIP3   OH239142   4.432   5.067   1.585
 5836TIP3    H139143   4.369   5.136   1.607
 5836TIP3    H239144   4.458   5.087   1.495
 5837TIP3   OH239145   5.024   4.681   0.274
 5837TIP3    H139146   5.066   4.720   0.351
 5837TIP3    H239147   5.073   4.716   0.200
 5838TIP3   OH239148   4.137   4.704   1.501
 5838TIP3    H139149   4.150   4.782   1.554
 5838TIP3    H239150   4.042   4.696   1.492
 5839TIP3   OH239151   4.831   5.295   0.647
 5839TIP3    H139152   4.914   5.341   0.654
 5839TIP3    H239153   4.786   5.336   0.573
 5840TIP3   OH239154   4.252   5.276   1.629
 5840TIP3    H139155   4.254   5.309   1.540
 5840TIP3    H239156   4.160   5.277   1.654
 5841TIP3   OH239157   5.426   3.815   0.275
 5841TIP3    H139158   5.337   3.842   0.299
 5841TIP3    H239159   5.464   3.893   0.235
 5842TIP3   OH239160   4.181   4.722   0.493
 5842TIP3    H139161   4.224   4.780   0.430
 5842TIP3    H239162   4.158   4.644   0.442
 5843TIP3   OH239163   5.535   5.264   0.127
 5843TIP3    H139164   5.561   5.356   0.128
 5843TIP3    H239165   5.617   5.216   0.118
 5844TIP3   OH239166   3.833   4.940   1.376
 5844TIP3    H139167   3.784   4.948   1.295
 5844TIP3    H239168   3.847   4.845   1.387
 5845TIP3   OH239169   3.822   5.218   1.046
 5845TIP3    H139170   3.914   5.215   1.071
 5845TIP3    H239171   3.786   5.291   1.096
 5846TIP3   OH239172   5.610   5.287   1.631
 5846TIP3    H139173   5.596   5.193   1.630
 5846TIP3    H239174   5.530   5.323   1.669
 5847TIP3   OH239175   4.735   5.226   1.509
 5847TIP3    H139176   4.706   5.307   1.551
 5847TIP3    H239177   4.668   5.208   1.443
 5848TIP3   OH239178   4.803   5.601   0.479
 5848TIP3    H139179   4.781   5.623   0.388
 5848TIP3    H239180   4.768   5.673   0.530
 5849TIP3   OH239181   4.128   5.472   0.665
 5849TIP3    H139182   4.153   5.446   0.754
 5849TIP3    H239183   4.080   5.396   0.630
 5850TIP3   OH239184   5.084   5.514   0.154
 5850TIP3    H139185   5.160   5.463   0.127
 5850TIP3    H239186   5.092   5.519   0.250
 5851TIP3   OH239187   5.062   5.527   0.438
 5851TIP3    H139188   4.970   5.548   0.454
 5851TIP3    H239189   5.087   5.469   0.509
 5852TIP3   OH239190   5.315   4.392   1.651
 5852TIP3    H139191   5.259   4.424   1.580
 5852TIP3    H239192   5.332   4.300   1.628
 5853TIP3   OH239193   4.048   5.095   1.448
 5853TIP3    H139194   4.081   5.056   1.529
 5853TIP3    H239195   3.970   5.044   1.428
 5854TIP3   OH239196   4.315   3.905   1.065
 5854TIP3    H139197   4.238   3.895   1.010
 5854TIP3    H239198   4.294   3.978   1.124
 5855TIP3   OH239199   4.797   3.869   1.413
 5855TIP3    H139200   4.846   3.824   1.482
 5855TIP3    H239201   4.705   3.861   1.439
 5856TIP3   OH239202   5.087   4.249   1.478
 5856TIP3    H139203   5.022   4.236   1.547
 5856TIP3    H239204   5.092   4.344   1.467
 5857TIP3   OH239205   5.192   4.780   0.083
 5857TIP3    H139206   5.259   4.779   0.015
 5857TIP3    H239207   5.228   4.835   0.152
 5858TIP3   OH239208   4.777   4.086   0.144
 5858TIP3    H139209   4.706   4.084   0.207
 5858TIP3    H239210   4.738   4.055   0.062
 5859TIP3   OH239211   4.324   4.425   1.184
 5859TIP3    H139212   4.261   4.431   1.255
 5859TIP3    H239213   4.330   4.513   1.148
 5860TIP3   OH239214   4.324   4.427   0.670
 5860TIP3    H139215   4.229   4.416   0.668
 5860TIP3    H239216   4.353   4.405   0.581
 5861TIP3   OH239217   4.872   4.465   0.552
 5861TIP3    H139218   4.834   4.545   0.516
 5861TIP3    H239219   4.943   4.443   0.491
 5862TIP3   OH239220   4.797   4.468   1.690
 5862TIP3    H139221   4.746   4.394   1.723
 5862TIP3    H239222   4.879   4.464   1.739
 5863TIP3   OH239223   4.971   4.396   0.804
 5863TIP3    H139224   4.923   4.440   0.735
 5863TIP3    H239225   5.018   4.326   0.760
 5864TIP3   OH239226   4.100   4.430   1.349
 5864TIP3    H139227   4.126   4.468   1.433
 5864TIP3    H239228   4.064   4.344   1.372
 5865TIP3   OH239229   4.474   4.182   0.069
 5865TIP3    H139230   4.440   4.138   0.147
 5865TIP3    H239231   4.447   4.274   0.080
 5866TIP3   OH239232   3.779   4.130   0.746
 5866TIP3    H139233   3.830   4.140   0.827
 5866TIP3    H239234   3.844   4.116   0.678
 5867TIP3   OH239235   3.830   4.233   0.259
 5867TIP3    H139236   3.911   4.263   0.217
 5867TIP3    H239237   3.780   4.313   0.274
 5868TIP3   OH239238   4.921   4.547   1.277
 5868TIP3    H139239   4.954   4.488   1.210
 5868TIP3    H239240   4.859   4.494   1.327
 5869TIP3   OH239241   4.627   4.150   0.759
 5869TIP3    H139242   4.538   4.155   0.794
 5869TIP3    H239243   4.678   4.112   0.831
 5870TIP3   OH239244   4.063   4.340   0.645
 5870TIP3    H139245   3.988   4.366   0.591
 5870TIP3    H239246   4.082   4.250   0.618
 5871TIP3   OH239247   4.397   4.346   0.419
 5871TIP3    H139248   4.492   4.343   0.433
 5871TIP3    H239249   4.387   4.381   0.330
 5872TIP3   OH239250   5.017   4.100   1.075
 5872TIP3    H139251   4.980   4.098   1.163
 5872TIP3    H239252   4.951   4.059   1.020
 5873TIP3   OH239253   4.330   4.409   0.158
 5873TIP3    H139254   4.237   4.407   0.136
 5873TIP3    H239255   4.367   4.479   0.104
 5874TIP3   OH239256   5.321   5.690   1.705
 5874TIP3    H139257   5.305   5.776   1.666
 5874TIP3    H239258   5.409   5.696   1.742
 5875TIP3   OH239259   4.131   4.929   1.673
 5875TIP3    H139260   4.202   4.941   1.736
 5875TIP3    H239261   4.052   4.926   1.727
 5876TIP3   OH239262   4.700   4.466   0.963
 5876TIP3    H139263   4.769   4.409   0.929
 5876TIP3    H239264   4.666   4.418   1.039
 5877TIP3   OH239265   4.172   4.075   0.613
 5877TIP3    H139266   4.122   3.997   0.638
 5877TIP3    H239267   4.218   4.049   0.534
 5878TIP3   OH239268   4.591   4.339   1.191
 5878TIP3    H139269   4.504   4.378   1.199
 5878TIP3    H239270   4.637   4.366   1.271
 5879TIP3   OH239271   4.609   4.904   0.367
 5879TIP3    H139272   4.567   4.978   0.324
 5879TIP3    H239273   4.589   4.915   0.460
 5880TIP3   OH239274   5.345   4.852   1.211
 5880TIP3    H139275   5.405   4.908   1.161
 5880TIP3    H239276   5.272   4.838   1.151
 5881TIP3   OH239277   5.006   4.202   0.230
 5881TIP3    H139278   4.926   4.158   0.200
 5881TIP3    H239279   5.047   4.234   0.150
 5882TIP3   OH239280   4.796   4.953   1.510
 5882TIP3    H139281   4.790   4.914   1.597
 5882TIP3    H239282   4.761   5.041   1.521
 5883TIP3   OH239283   5.085   4.425   0.370
 5883TIP3    H139284   5.066   4.342   0.326
 5883TIP3    H239285   5.059   4.492   0.307
 5884TIP3   OH239286   4.149   4.823   0.939
 5884TIP3    H139287   4.229   4.820   0.887
 5884TIP3    H239288   4.170   4.775   1.019
 5885TIP3   OH239289   4.848   5.043   0.294
 5885TIP3    H139290   4.814   5.130   0.311
 5885TIP3    H239291   4.773   4.985   0.307
 5886TIP3   OH239292   3.857   4.673   1.465
 5886TIP3    H139293   3.828   4.624   1.542
 5886TIP3    H239294   3.795   4.648   1.396
 5887TIP3   OH239295   4.593   4.661   1.705
 5887TIP3    H139296   4.538   4.633   1.632
 5887TIP3    H239297   4.673   4.609   1.696
 5888TIP3   OH239298   5.008   5.228   1.552
 5888TIP3    H139299   4.916   5.233   1.529
 5888TIP3    H239300   5.025   5.134   1.563
 5889TIP3   OH239301   5.546   4.444   0.315
 5889TIP3    H139302   5.480   4.421   0.250
 5889TIP3    H239303   5.573   4.532   0.291
 5890TIP3   OH239304   5.584   5.004   1.603
 5890TIP3    H139305   5.497   5.011   1.565
 5890TIP3    H239306   5.642   4.991   1.527
 5891TIP3   OH239307   5.413   5.287   0.379
 5891TIP3    H139308   5.365   5.209   0.407
 5891TIP3    H239309   5.446   5.264   0.292
 5892TIP3   OH239310   5.134   4.786   1.028
 5892TIP3    H139311   5.039   4.776   1.031
 5892TIP3    H239312   5.166   4.705   0.989
 5893TIP3   OH239313   4.415   5.192   0.636
 5893TIP3    H139314   4.416   5.287   0.626
 5893TIP3    H239315   4.351   5.162   0.571
 5894TIP3   OH239316   3.937   4.631   0.149
 5894TIP3    H139317   3.984   4.712   0.168
 5894TIP3    H239318   3.846   4.650   0.171
 5895TIP3   OH239319   4.539   4.946   0.627
 5895TIP3    H139320   4.517   5.039   0.638
 5895TIP3    H239321   4.470   4.900   0.673
 5896TIP3   OH239322   4.559   5.458   1.245
 5896TIP3    H139323   4.650   5.487   1.254
 5896TIP3    H239324   4.560   5.366   1.272
 5897TIP3   OH239325   4.391   5.470   0.575
 5897TIP3    H139326   4.300   5.484   0.601
 5897TIP3    H239327   4.439   5.543   0.615
 5898TIP3   OH239328   4.913   4.978   1.266
 5898TIP3    H139329   4.859   4.968   1.344
 5898TIP3    H239330   4.928   4.888   1.236
 5899TIP3   OH239331   5.141   5.093   0.141
 5899TIP3    H139332   5.193   5.042   0.204
 5899TIP3    H239333   5.052   5.092   0.178
 5900TIP3   OH239334   5.199   5.412   1.469
 5900TIP3    H139335   5.120   5.360   1.478
 5900TIP3    H239336   5.177   5.478   1.403
 5901TIP3   OH239337   5.604   5.530   0.171
 5901TIP3    H139338   5.672   5.596   0.175
 5901TIP3    H239339   5.522   5.578   0.186
 5902TIP3   OH239340   3.997   4.166   1.400
 5902TIP3    H139341   3.905   4.190   1.387
 5902TIP3    H239342   3.994   4.094   1.464
 5903TIP3   OH239343   5.273   4.940   0.336
 5903TIP3    H139344   5.238   4.975   0.418
 5903TIP3    H239345   5.364   4.918   0.356
 5904TIP3   OH239346   3.995   5.355   1.269
 5904TIP3    H139347   4.020   5.274   1.314
 5904TIP3    H239348   4.038   5.424   1.319
 5905TIP3   OH239349   4.478   5.122   0.265
 5905TIP3    H139350   4.402   5.096   0.317
 5905TIP3    H239351   4.485   5.216   0.277
 5906TIP3   OH239352   4.049   4.872   0.234
 5906TIP3    H139353   3.986   4.890   0.304
 5906TIP3    H239354   4.130   4.915   0.262
 5907TIP3   OH239355   4.906   4.107   1.322
 5907TIP3    H139356   4.969   4.138   1.387
 5907TIP3    H239357   4.867   4.028   1.361
 5908TIP3   OH239358   4.977   4.064   0.475
 5908TIP3    H139359   4.983   4.109   0.391
 5908TIP3    H239360   5.023   4.121   0.537
 5909TIP3   OH239361   4.743   5.285   0.363
 5909TIP3    H139362   4.653   5.318   0.367
 5909TIP3    H239363   4.781   5.329   0.287
 5910TIP3   OH239364   4.654   4.295   0.523
 5910TIP3    H139365   4.728   4.354   0.533
 5910TIP3    H239366   4.643   4.255   0.609
 5911TIP3   OH239367   4.764   4.372   1.419
 5911TIP3    H139368   4.770   4.400   1.511
 5911TIP3    H239369   4.793   4.281   1.421
 5912TIP3   OH239370   4.738   3.959   0.579
 5912TIP3    H139371   4.712   4.026   0.642
 5912TIP3    H239372   4.824   3.987   0.548
 5913TIP3   OH239373   4.490   5.393   0.331
 5913TIP3    H139374   4.494   5.476   0.283
 5913TIP3    H239375   4.452   5.417   0.416
 5914TIP3   OH239376   4.333   4.094   0.303
 5914TIP3    H139377   4.325   4.182   0.342
 5914TIP3    H239378   4.420   4.065   0.329
 5915TIP3   OH239379   5.339   4.148   1.494
 5915TIP3    H139380   5.247   4.173   1.493
 5915TIP3    H239381   5.349   4.093   1.416
 5916TIP3   OH239382   5.205   4.539   0.914
 5916TIP3    H139383   5.119   4.500   0.896
 5916TIP3    H239384   5.247   4.477   0.974
 5917TIP3   OH239385   4.171   5.162   0.153
 5917TIP3    H139386   4.188   5.153   0.247
 5917TIP3    H239387   4.232   5.101   0.111
 5918TIP3   OH239388   4.039   4.382   0.106
 5918TIP3    H139389   4.004   4.470   0.121
 5918TIP3    H239390   4.010   4.360   0.017
 5919TIP3   OH239391   5.338   5.481   1.065
 5919TIP3    H139392   5.322   5.550   1.000
 5919TIP3    H239393   5.431   5.488   1.086
 5920TIP3   OH239394   4.064   3.880   0.949
 5920TIP3    H139395   4.054   3.868   0.854
 5920TIP3    H239396   4.031   3.798   0.986
 5921TIP3   OH239397   3.926   5.263   0.582
 5921TIP3    H139398   3.888   5.305   0.660
 5921TIP3    H239399   3.916   5.329   0.513
 5922TIP3   OH239400   3.916   5.571   1.759
 5922TIP3    H139401   3.977   5.562   1.833
 5922TIP3    H239402   3.920   5.486   1.715
 5923TIP3   OH239403   4.322   5.412   1.859
 5923TIP3    H139404   4.404   5.380   1.895
 5923TIP3    H239405   4.310   5.361   1.778
 5924TIP3   OH239406   4.844   5.385   0.133
 5924TIP3    H139407   4.814   5.353   0.048
 5924TIP3    H239408   4.934   5.415   0.118
 5925TIP3   OH239409   5.264   5.331   0.056
 5925TIP3    H139410   5.223   5.249   0.082
 5925TIP3    H239411   5.358   5.314   0.063
 5926TIP3   OH239412   3.887   4.915   1.807
 5926TIP3    H139413   3.897   4.820   1.811
 5926TIP3    H239414   3.812   4.928   1.749
 5927TIP3   OH239415   4.322   4.950   0.043
 5927TIP3    H139416   4.352   4.898   0.118
 5927TIP3    H239417   4.346   4.897  -0.033
 5928TIP3   OH239418   4.555   4.934   1.784
 5928TIP3    H139419   4.518   4.972   1.704
 5928TIP3    H239420   4.576   4.844   1.760
 5929TIP3   OH239421   5.107   4.959   1.522
 5929TIP3    H139422   5.196   4.981   1.493
 5929TIP3    H239423   5.054   4.966   1.442
 5930TIP3   OH239424   3.974   4.649   1.807
 5930TIP3    H139425   4.055   4.616   1.767
 5930TIP3    H239426   3.978   4.617   1.897
 5931TIP3   OH239427   4.419   4.753   0.215
 5931TIP3    H139428   4.482   4.791   0.276
 5931TIP3    H239429   4.469   4.688   0.167
 5932TIP3   OH239430   4.357   4.528   1.481
 5932TIP3    H139431   4.293   4.598   1.493
 5932TIP3    H239432   4.430   4.570   1.436
 5933TIP3   OH239433   4.552   4.569   0.050
 5933TIP3    H139434   4.557   4.537  -0.040
 5933TIP3    H239435   4.641   4.559   0.084
 5934TIP3   OH239436   4.901   4.795   1.897
 5934TIP3    H139437   4.984   4.747   1.898
 5934TIP3    H239438   4.859   4.773   1.980
 5935TIP3   OH239439   5.460   4.851   0.035
 5935TIP3    H139440   5.513   4.804  -0.029
 5935TIP3    H239441   5.472   4.943   0.013
 5936TIP3   OH239442   4.431   4.277   1.563
 5936TIP3    H139443   4.442   4.219   1.488
 5936TIP3    H239444   4.413   4.363   1.524
 5937TIP3   OH239445   4.460   4.118   1.334
 5937TIP3    H139446   4.513   4.169   1.272
 5937TIP3    H239447   4.373   4.117   1.295
 5938TIP3   OH239448   4.577   4.644   1.371
 5938TIP3    H139449   4.670   4.663   1.375
 5938TIP3    H239450   4.539   4.718   1.323
 5939TIP3   OH239451   5.057   4.416   1.853
 5939TIP3    H139452   5.131   4.387   1.800
 5939TIP3    H239453   5.084   4.501   1.887
 5940TIP3   OH239454   5.183   4.717   1.633
 5940TIP3    H139455   5.144   4.801   1.608
 5940TIP3    H239456   5.277   4.736   1.640
 5941TIP3   OH239457   4.236   4.345   1.750
 5941TIP3    H139458   4.157   4.293   1.732
 5941TIP3    H239459   4.291   4.333   1.673
 5942TIP3   OH239460   4.513   3.853   1.418
 5942TIP3    H139461   4.497   3.944   1.393
 5942TIP3    H239462   4.444   3.803   1.374
 5943TIP3   OH239463   4.636   4.250   1.748
 5943TIP3    H139464   4.590   4.214   1.824
 5943TIP3    H239465   4.568   4.260   1.681
 5944TIP3   OH239466   4.889   4.180   1.647
 5944TIP3    H139467   4.803   4.187   1.689
 5944TIP3    H239468   4.942   4.131   1.710
 5945TIP3   OH239469   5.046   4.050   1.830
 5945TIP3    H139470   5.063   3.956   1.833
 5945TIP3    H239471   5.026   4.074   1.921
 5946TIP3   OH239472   4.033   4.155   1.740
 5946TIP3    H139473   4.031   4.072   1.693
 5946TIP3    H239474   4.058   4.131   1.830
 5947TIP3   OH239475   4.502   3.772   1.685
 5947TIP3    H139476   4.569   3.704   1.692
 5947TIP3    H239477   4.504   3.798   1.593
 5948TIP3   OH239478   4.553   3.957   1.892
 5948TIP3    H139479   4.539   3.904   1.814
 5948TIP3    H239480   4.488   4.028   1.885
 5949TIP3   OH239481   4.527   5.622   0.179
 5949TIP3    H139482   4.621   5.639   0.183
 5949TIP3    H239483   4.487   5.709   0.178
 5950TIP3   OH239484   3.917   5.123   0.065
 5950TIP3    H139485   4.001   5.145   0.104
 5950TIP3    H239486   3.929   5.036   0.028
 5951TIP3   OH239487   3.778   5.611   0.656
 5951TIP3    H139488   3.723   5.578   0.584
 5951TIP3    H239489   3.796   5.534   0.710
 5952TIP3   OH239490   3.844   5.393   0.818
 5952TIP3    H139491   3.809   5.320   0.870
 5952TIP3    H239492   3.893   5.446   0.881
 5953TIP3   OH239493   5.589   5.570   1.145
 5953TIP3    H139494   5.592   5.533   1.233
 5953TIP3    H239495   5.677   5.557   1.111
 5954TIP3   OH239496   5.563   5.445   1.393
 5954TIP3    H139497   5.504   5.375   1.365
 5954TIP3    H239498   5.603   5.412   1.473
 5955TIP3   OH239499   5.422   5.057   1.929
 5955TIP3    H139500   5.406   5.097   2.014
 5955TIP3    H239501   5.491   5.111   1.889
 5956TIP3   OH239502   5.533   4.882   0.433
 5956TIP3    H139503   5.603   4.947   0.431
 5956TIP3    H239504   5.555   4.826   0.508
 5957TIP3   OH239505   5.595   4.690   0.626
 5957TIP3    H139506   5.522   4.644   0.670
 5957TIP3    H239507   5.658   4.705   0.696
 5958TIP3   OH239508   5.579   4.981   1.129
 5958TIP3    H139509   5.630   4.910   1.091
 5958TIP3    H239510   5.619   5.061   1.093
 5959TIP3   OH239511   5.375   5.255   1.321
 5959TIP3    H139512   5.306   5.306   1.363
 5959TIP3    H239513   5.342   5.239   1.232
 5960TIP3   OH239514   5.589   4.703   0.233
 5960TIP3    H139515   5.539   4.740   0.160
 5960TIP3    H239516   5.575   4.763   0.306
 5961TIP3   OH239517   5.356   4.396   0.120
 5961TIP3    H139518   5.423   4.419   0.055
 5961TIP3    H239519   5.344   4.302   0.108
 5962TIP3   OH239520   5.378   4.519   0.705
 5962TIP3    H139521   5.426   4.441   0.733
 5962TIP3    H239522   5.324   4.542   0.780
 5963TIP3   OH239523   3.841   4.747   1.063
 5963TIP3    H139524   3.863   4.736   0.970
 5963TIP3    H239525   3.922   4.727   1.110
 5964TIP3   OH239526   5.453   4.757   1.662
 5964TIP3    H139527   5.502   4.677   1.643
 5964TIP3    H239528   5.509   4.828   1.629
 5965TIP3   OH239529   5.563   4.511   1.626
 5965TIP3    H139530   5.477   4.474   1.645
 5965TIP3    H239531   5.625   4.440   1.643
 5966TIP3   OH239532   5.319   4.133   0.076
 5966TIP3    H139533   5.404   4.095   0.098
 5966TIP3    H239534   5.273   4.062   0.031
 5967TIP3   OH239535   5.376   4.301   0.489
 5967TIP3    H139536   5.387   4.206   0.493
 5967TIP3    H239537   5.452   4.332   0.439
 5968TIP3   OH239538   5.362   4.351   1.051
 5968TIP3    H139539   5.455   4.363   1.032
 5968TIP3    H239540   5.355   4.367   1.145
 5969TIP3   OH239541   5.385   4.434   1.314
 5969TIP3    H139542   5.305   4.463   1.359
 5969TIP3    H239543   5.438   4.513   1.307
 5970TIP3   OH239544   3.799   4.260   1.649
 5970TIP3    H139545   3.885   4.242   1.687
 5970TIP3    H239546   3.745   4.185   1.675
 5971TIP3   OH239547   5.601   3.852   1.865
 5971TIP3    H139548   5.665   3.783   1.846
 5971TIP3    H239549   5.609   3.913   1.793
 5972TIP3   OH239550   5.394   4.033   0.507
 5972TIP3    H139551   5.417   3.992   0.591
 5972TIP3    H239552   5.326   3.977   0.470
 5973TIP3   OH239553   3.933   4.126   0.976
 5973TIP3    H139554   3.973   4.039   0.979
 5973TIP3    H239555   4.005   4.186   0.994
 5974TIP3   OH239556   3.745   4.410   1.040
 5974TIP3    H139557   3.816   4.419   0.976
 5974TIP3    H239558   3.774   4.459   1.116
 5975TIP3   OH239559   5.564   4.040   1.666
 5975TIP3    H139560   5.495   4.073   1.723
 5975TIP3    H239561   5.518   4.006   1.589
 5976TIP3   OH239562   5.564   4.029   0.145
 5976TIP3    H139563   5.609   3.993   0.069
 5976TIP3    H239564   5.622   4.097   0.178
 5977TIP3   OH239565   3.797   4.026   0.442
 5977TIP3    H139566   3.704   4.034   0.465
 5977TIP3    H239567   3.815   4.103   0.388
 5978TIP3   OH239568   5.300   5.553   0.692
 5978TIP3    H139569   5.356   5.543   0.615
 5978TIP3    H239570   5.338   5.627   0.740
 5979TIP3   OH239571   3.797   3.887   1.297
 5979TIP3    H139572   3.730   3.876   1.364
 5979TIP3    H239573   3.763   3.956   1.240
 5980TIP3   OH239574   3.990   5.292   1.724
 5980TIP3    H139575   3.907   5.276   1.678
 5980TIP3    H239576   3.980   5.246   1.808
 5981TIP3   OH239577   4.281   5.362   1.370
 5981TIP3    H139578   4.303   5.449   1.337
 5981TIP3    H239579   4.352   5.306   1.341
 5982TIP3   OH239580   4.716   5.474   1.650
 5982TIP3    H139581   4.741   5.429   1.731
 5982TIP3    H239582   4.794   5.524   1.626
 5983TIP3   OH239583   4.953   5.612   1.607
 5983TIP3    H139584   5.027   5.574   1.559
 5983TIP3    H239585   4.992   5.642   1.689
 5984TIP3   OH239586   5.462   3.838   1.473
 5984TIP3    H139587   5.385   3.852   1.417
 5984TIP3    H239588   5.485   3.746   1.458
 5985TIP3   OH239589   4.036   5.654   1.367
 5985TIP3    H139590   3.956   5.693   1.332
 5985TIP3    H239591   4.046   5.692   1.454
 5986TIP3   OH239592   4.295   5.625   1.280
 5986TIP3    H139593   4.204   5.637   1.306
 5986TIP3    H239594   4.303   5.671   1.196
 5987TIP3   OH239595   4.776   5.623   1.165
 5987TIP3    H139596   4.701   5.651   1.112
 5987TIP3    H239597   4.781   5.689   1.235
 5988TIP3   OH239598   4.966   5.464   1.278
 5988TIP3    H139599   4.892   5.511   1.239
 5988TIP3    H239600   5.040   5.523   1.268
 5989TIP3   OH239601   5.196   5.611   1.267
 5989TIP3    H139602   5.215   5.704   1.255
 5989TIP3    H239603   5.241   5.567   1.196
 5990TIP3   OH239604   3.990   5.510   1.036
 5990TIP3    H139605   3.989   5.466   1.122
 5990TIP3    H239606   4.068   5.476   0.993
 5991TIP3   OH239607   4.198   5.389   0.915
 5991TIP3    H139608   4.189   5.295   0.933
 5991TIP3    H239609   4.288   5.409   0.940
 5992TIP3   OH239610   4.459   5.429   0.995
 5992TIP3    H139611   4.471   5.336   0.978
 5992TIP3    H239612   4.482   5.441   1.087
 5993TIP3   OH239613   4.795   3.984   0.912
 5993TIP3    H139614   4.736   3.913   0.938
 5993TIP3    H239615   4.870   3.940   0.872
 5994TIP3   OH239616   5.299   3.821   0.914
 5994TIP3    H139617   5.362   3.877   0.867
 5994TIP3    H239618   5.214   3.864   0.900
 5995TIP3   OH239619   5.485   3.927   0.743
 5995TIP3    H139620   5.550   3.860   0.721
 5995TIP3    H239621   5.536   4.007   0.756
 5996TIP3   OH239622   4.034   3.840   0.676
 5996TIP3    H139623   3.942   3.822   0.658
 5996TIP3    H239624   4.078   3.756   0.665
 5997TIP3   OH239625   3.896   3.842   0.254
 5997TIP3    H139626   3.973   3.891   0.224
 5997TIP3    H239627   3.860   3.896   0.324
 5998TIP3   OH239628   4.517   3.814   0.693
 5998TIP3    H139629   4.591   3.861   0.655
 5998TIP3    H239630   4.535   3.814   0.787
 5999TIP3   OH239631   5.026   3.860   0.818
 5999TIP3    H139632   5.062   3.835   0.732
 5999TIP3    H239633   5.003   3.777   0.859
 6000TIP3   OH239634   5.185   3.880   0.412
 6000TIP3    H139635   5.107   3.935   0.425
 6000TIP3    H239636   5.154   3.790   0.423
 6001TIP3   OH239637   3.906   5.454   0.387
 6001TIP3    H139638   3.833   5.465   0.326
 6001TIP3    H239639   3.952   5.538   0.384
 6002TIP3   OH239640   4.122   3.968   0.165
 6002TIP3    H139641   4.170   3.920   0.098
 6002TIP3    H239642   4.189   4.017   0.213
 6003TIP3   OH239643   4.601   4.076   0.363
 6003TIP3    H139644   4.638   4.009   0.421
 6003TIP3    H239645   4.620   4.159   0.407
 6004TIP3   OH239646   4.804   5.649   0.200
 6004TIP3    H139647   4.893   5.681   0.189
 6004TIP3    H239648   4.809   5.556   0.177
 6005TIP3   OH239649   5.471   5.534   0.477
 6005TIP3    H139650   5.453   5.446   0.443
 6005TIP3    H239651   5.454   5.592   0.403
 6006TIP3   OH239652   4.035   3.907   1.615
 6006TIP3    H139653   3.974   3.838   1.640
 6006TIP3    H239654   4.115   3.888   1.664
 6007TIP3   OH239655   4.236   3.834   1.796
 6007TIP3    H139656   4.323   3.806   1.767
 6007TIP3    H239657   4.197   3.756   1.836
 6008TIP3   OH239658   4.022   5.431   0.034
 6008TIP3    H139659   4.024   5.524   0.057
 6008TIP3    H239660   4.096   5.392   0.082
 6009TIP3   OH239661   5.107   3.781   1.832
 6009TIP3    H139662   5.108   3.750   1.923
 6009TIP3    H239663   5.197   3.769   1.802
 6010TIP3   OH239664   5.353   5.400   1.698
 6010TIP3    H139665   5.304   5.394   1.615
 6010TIP3    H239666   5.362   5.494   1.713
 6011TIP3   OH239667   6.845   4.797   0.660
 6011TIP3    H139668   6.831   4.892   0.655
 6011TIP3    H239669   6.778   4.760   0.601
 6012TIP3   OH239670   6.712   4.709   1.050
 6012TIP3    H139671   6.738   4.668   1.133
 6012TIP3    H239672   6.666   4.640   1.003
 6013TIP3   OH239673   5.944   4.649   1.187
 6013TIP3    H139674   5.951   4.576   1.249
 6013TIP3    H239675   6.035   4.672   1.168
 6014TIP3   OH239676   7.099   5.022   0.885
 6014TIP3    H139677   7.063   4.947   0.933
 6014TIP3    H239678   7.124   5.084   0.953
 6015TIP3   OH239679   6.060   5.111   0.987
 6015TIP3    H139680   6.038   5.022   0.963
 6015TIP3    H239681   6.154   5.108   1.005
 6016TIP3   OH239682   5.732   4.457   0.531
 6016TIP3    H139683   5.702   4.540   0.566
 6016TIP3    H239684   5.674   4.439   0.456
 6017TIP3   OH239685   5.797   4.698   0.817
 6017TIP3    H139686   5.826   4.609   0.839
 6017TIP3    H239687   5.874   4.753   0.832
 6018TIP3   OH239688   6.823   5.492   0.919
 6018TIP3    H139689   6.853   5.426   0.858
 6018TIP3    H239690   6.792   5.443   0.995
 6019TIP3   OH239691   6.565   4.959   1.069
 6019TIP3    H139692   6.603   4.878   1.034
 6019TIP3    H239693   6.633   4.994   1.127
 6020TIP3   OH239694   6.891   4.373   1.080
 6020TIP3    H139695   6.896   4.279   1.094
 6020TIP3    H239696   6.869   4.382   0.987
 6021TIP3   OH239697   6.229   4.185   0.808
 6021TIP3    H139698   6.234   4.270   0.766
 6021TIP3    H239699   6.176   4.132   0.748
 6022TIP3   OH239700   6.992   4.220   0.656
 6022TIP3    H139701   7.030   4.167   0.726
 6022TIP3    H239702   7.065   4.241   0.598
 6023TIP3   OH239703   5.870   4.441   0.890
 6023TIP3    H139704   5.934   4.400   0.948
 6023TIP3    H239705   5.889   4.404   0.804
 6024TIP3   OH239706   6.347   4.586   0.860
 6024TIP3    H139707   6.432   4.550   0.886
 6024TIP3    H239708   6.311   4.521   0.801
 6025TIP3   OH239709   6.092   4.105   1.231
 6025TIP3    H139710   6.068   4.163   1.159
 6025TIP3    H239711   6.020   4.114   1.294
 6026TIP3   OH239712   6.814   5.056   0.564
 6026TIP3    H139713   6.798   5.052   0.470
 6026TIP3    H239714   6.756   5.126   0.595
 6027TIP3   OH239715   6.347   4.875   1.217
 6027TIP3    H139716   6.296   4.947   1.255
 6027TIP3    H239717   6.418   4.918   1.170
 6028TIP3   OH239718   7.087   4.109   0.889
 6028TIP3    H139719   7.014   4.092   0.948
 6028TIP3    H239720   7.148   4.162   0.940
 6029TIP3   OH239721   6.061   4.273   1.013
 6029TIP3    H139722   6.117   4.330   1.065
 6029TIP3    H239723   6.119   4.236   0.946
 6030TIP3   OH239724   6.195   5.079   1.327
 6030TIP3    H139725   6.204   5.174   1.317
 6030TIP3    H239726   6.103   5.066   1.352
 6031TIP3   OH239727   5.754   5.052   0.405
 6031TIP3    H139728   5.752   5.092   0.318
 6031TIP3    H239729   5.782   5.123   0.463
 6032TIP3   OH239730   7.143   5.227   1.083
 6032TIP3    H139731   7.049   5.226   1.098
 6032TIP3    H239732   7.165   5.318   1.066
 6033TIP3   OH239733   7.153   4.023   1.203
 6033TIP3    H139734   7.060   4.035   1.183
 6033TIP3    H239735   7.196   4.097   1.159
 6034TIP3   OH239736   6.447   3.796   0.981
 6034TIP3    H139737   6.423   3.704   0.983
 6034TIP3    H239738   6.369   3.842   1.012
 6035TIP3   OH239739   6.940   5.351   0.705
 6035TIP3    H139740   6.980   5.266   0.688
 6035TIP3    H239741   7.014   5.411   0.714
 6036TIP3   OH239742   7.077   5.123   0.628
 6036TIP3    H139743   6.994   5.082   0.602
 6036TIP3    H239744   7.100   5.080   0.711
 6037TIP3   OH239745   7.230   4.980   1.464
 6037TIP3    H139746   7.229   4.919   1.390
 6037TIP3    H239747   7.255   5.064   1.427
 6038TIP3   OH239748   6.707   4.704   0.435
 6038TIP3    H139749   6.638   4.766   0.413
 6038TIP3    H239750   6.766   4.705   0.360
 6039TIP3   OH239751   6.717   4.529   0.129
 6039TIP3    H139752   6.785   4.571   0.181
 6039TIP3    H239753   6.762   4.459   0.082
 6040TIP3   OH239754   7.059   4.742   0.498
 6040TIP3    H139755   6.992   4.769   0.561
 6040TIP3    H239756   7.115   4.682   0.548
 6041TIP3   OH239757   7.007   4.535   1.449
 6041TIP3    H139758   6.993   4.595   1.522
 6041TIP3    H239759   6.939   4.558   1.385
 6042TIP3   OH239760   6.215   4.781   0.707
 6042TIP3    H139761   6.194   4.743   0.622
 6042TIP3    H239762   6.269   4.715   0.750
 6043TIP3   OH239763   6.349   5.133   0.971
 6043TIP3    H139764   6.353   5.142   0.876
 6043TIP3    H239765   6.425   5.079   0.993
 6044TIP3   OH239766   6.206   4.685   1.079
 6044TIP3    H139767   6.261   4.659   1.005
 6044TIP3    H239768   6.259   4.750   1.126
 6045TIP3   OH239769   6.877   5.233   1.147
 6045TIP3    H139770   6.861   5.301   1.213
 6045TIP3    H239771   6.837   5.154   1.184
 6046TIP3   OH239772   6.352   5.104   1.556
 6046TIP3    H139773   6.288   5.160   1.600
 6046TIP3    H239774   6.307   5.074   1.477
 6047TIP3   OH239775   6.940   4.653   0.269
 6047TIP3    H139776   6.978   4.687   0.350
 6047TIP3    H239777   6.989   4.696   0.199
 6048TIP3   OH239778   6.032   4.691   1.512
 6048TIP3    H139779   6.043   4.775   1.556
 6048TIP3    H239780   5.942   4.692   1.479
 6049TIP3   OH239781   6.681   5.291   0.635
 6049TIP3    H139782   6.765   5.322   0.670
 6049TIP3    H239783   6.647   5.365   0.584
 6050TIP3   OH239784   6.151   5.287   1.621
 6050TIP3    H139785   6.156   5.318   1.530
 6050TIP3    H239786   6.058   5.287   1.641
 6051TIP3   OH239787   7.275   3.809   0.339
 6051TIP3    H139788   7.183   3.820   0.365
 6051TIP3    H239789   7.272   3.797   0.244
 6052TIP3   OH239790   6.132   4.693   0.448
 6052TIP3    H139791   6.073   4.760   0.414
 6052TIP3    H239792   6.082   4.611   0.440
 6053TIP3   OH239793   5.717   4.938   1.374
 6053TIP3    H139794   5.666   4.945   1.293
 6053TIP3    H239795   5.733   4.844   1.384
 6054TIP3   OH239796   5.756   5.195   1.051
 6054TIP3    H139797   5.843   5.165   1.026
 6054TIP3    H239798   5.770   5.247   1.130
 6055TIP3   OH239799   6.589   5.230   1.499
 6055TIP3    H139800   6.599   5.302   1.562
 6055TIP3    H239801   6.504   5.192   1.520
 6056TIP3   OH239802   6.673   5.579   0.496
 6056TIP3    H139803   6.658   5.597   0.403
 6056TIP3    H239804   6.644   5.659   0.541
 6057TIP3   OH239805   6.020   5.465   0.674
 6057TIP3    H139806   6.036   5.436   0.764
 6057TIP3    H239807   5.964   5.396   0.637
 6058TIP3   OH239808   6.950   5.528   0.164
 6058TIP3    H139809   7.027   5.480   0.132
 6058TIP3    H239810   6.954   5.519   0.259
 6059TIP3   OH239811   6.930   5.499   0.444
 6059TIP3    H139812   6.839   5.517   0.464
 6059TIP3    H239813   6.957   5.435   0.509
 6060TIP3   OH239814   7.147   4.450   1.695
 6060TIP3    H139815   7.143   4.470   1.602
 6060TIP3    H239816   7.229   4.400   1.705
 6061TIP3   OH239817   5.938   5.092   1.429
 6061TIP3    H139818   5.964   5.056   1.514
 6061TIP3    H239819   5.860   5.042   1.405
 6062TIP3   OH239820   6.200   3.906   1.066
 6062TIP3    H139821   6.123   3.899   1.009
 6062TIP3    H239822   6.179   3.978   1.126
 6063TIP3   OH239823   6.683   3.877   1.415
 6063TIP3    H139824   6.734   3.828   1.480
 6063TIP3    H239825   6.593   3.869   1.445
 6064TIP3   OH239826   7.004   4.255   1.485
 6064TIP3    H139827   6.939   4.241   1.554
 6064TIP3    H239828   7.002   4.349   1.469
 6065TIP3   OH239829   7.099   4.792   0.088
 6065TIP3    H139830   7.135   4.837   0.011
 6065TIP3    H239831   7.130   4.844   0.162
 6066TIP3   OH239832   6.679   4.117   0.146
 6066TIP3    H139833   6.607   4.106   0.209
 6066TIP3    H239834   6.640   4.093   0.062
 6067TIP3   OH239835   6.211   4.428   1.185
 6067TIP3    H139836   6.146   4.428   1.255
 6067TIP3    H239837   6.214   4.519   1.155
 6068TIP3   OH239838   6.212   4.426   0.678
 6068TIP3    H139839   6.117   4.414   0.674
 6068TIP3    H239840   6.242   4.408   0.589
 6069TIP3   OH239841   6.757   4.457   0.548
 6069TIP3    H139842   6.735   4.544   0.514
 6069TIP3    H239843   6.827   4.426   0.490
 6070TIP3   OH239844   6.686   4.481   1.654
 6070TIP3    H139845   6.640   4.408   1.696
 6070TIP3    H239846   6.771   4.484   1.699
 6071TIP3   OH239847   6.850   4.403   0.810
 6071TIP3    H139848   6.807   4.454   0.742
 6071TIP3    H239849   6.893   4.331   0.763
 6072TIP3   OH239850   5.995   4.428   1.357
 6072TIP3    H139851   6.001   4.472   1.441
 6072TIP3    H239852   5.954   4.344   1.376
 6073TIP3   OH239853   6.350   4.192   0.059
 6073TIP3    H139854   6.315   4.155   0.140
 6073TIP3    H239855   6.330   4.286   0.065
 6074TIP3   OH239856   5.658   4.135   0.746
 6074TIP3    H139857   5.713   4.143   0.824
 6074TIP3    H239858   5.719   4.119   0.674
 6075TIP3   OH239859   5.726   4.232   0.257
 6075TIP3    H139860   5.802   4.264   0.209
 6075TIP3    H239861   5.672   4.310   0.271
 6076TIP3   OH239862   6.793   4.550   1.265
 6076TIP3    H139863   6.834   4.491   1.201
 6076TIP3    H239864   6.731   4.494   1.312
 6077TIP3   OH239865   6.512   4.152   0.766
 6077TIP3    H139866   6.422   4.155   0.799
 6077TIP3    H239867   6.562   4.114   0.839
 6078TIP3   OH239868   5.953   4.337   0.650
 6078TIP3    H139869   5.878   4.364   0.596
 6078TIP3    H239870   5.973   4.249   0.620
 6079TIP3   OH239871   6.281   4.351   0.424
 6079TIP3    H139872   6.375   4.346   0.437
 6079TIP3    H239873   6.270   4.390   0.337
 6080TIP3   OH239874   6.884   4.092   1.088
 6080TIP3    H139875   6.846   4.101   1.176
 6080TIP3    H239876   6.813   4.057   1.035
 6081TIP3   OH239877   6.219   4.432   0.170
 6081TIP3    H139878   6.132   4.430   0.131
 6081TIP3    H239879   6.270   4.489   0.112
 6082TIP3   OH239880   7.244   5.703   1.741
 6082TIP3    H139881   7.246   5.799   1.730
 6082TIP3    H239882   7.333   5.680   1.766
 6083TIP3   OH239883   6.009   4.935   1.658
 6083TIP3    H139884   6.079   4.938   1.723
 6083TIP3    H239885   5.928   4.937   1.709
 6084TIP3   OH239886   6.581   4.466   0.960
 6084TIP3    H139887   6.651   4.415   0.919
 6084TIP3    H239888   6.550   4.412   1.033
 6085TIP3   OH239889   6.060   4.076   0.607
 6085TIP3    H139890   6.010   3.998   0.631
 6085TIP3    H239891   6.100   4.054   0.523
 6086TIP3   OH239892   6.472   4.328   1.183
 6086TIP3    H139893   6.388   4.372   1.192
 6086TIP3    H239894   6.522   4.354   1.260
 6087TIP3   OH239895   6.523   4.898   0.364
 6087TIP3    H139896   6.450   4.861   0.315
 6087TIP3    H239897   6.485   4.928   0.446
 6088TIP3   OH239898   7.204   4.844   1.224
 6088TIP3    H139899   7.273   4.819   1.162
 6088TIP3    H239900   7.123   4.835   1.173
 6089TIP3   OH239901   6.940   4.160   0.215
 6089TIP3    H139902   6.853   4.145   0.179
 6089TIP3    H239903   6.934   4.247   0.256
 6090TIP3   OH239904   6.650   4.941   1.491
 6090TIP3    H139905   6.678   4.905   1.575
 6090TIP3    H239906   6.624   5.031   1.510
 6091TIP3   OH239907   6.965   4.390   0.368
 6091TIP3    H139908   7.052   4.373   0.404
 6091TIP3    H239909   6.972   4.479   0.332
 6092TIP3   OH239910   6.032   4.834   0.907
 6092TIP3    H139911   6.092   4.829   0.832
 6092TIP3    H239912   6.074   4.783   0.976
 6093TIP3   OH239913   6.748   5.044   0.288
 6093TIP3    H139914   6.706   5.129   0.299
 6093TIP3    H239915   6.678   4.981   0.305
 6094TIP3   OH239916   5.753   4.676   1.468
 6094TIP3    H139917   5.748   4.646   1.558
 6094TIP3    H239918   5.677   4.636   1.425
 6095TIP3   OH239919   6.467   4.654   1.667
 6095TIP3    H139920   6.404   4.611   1.610
 6095TIP3    H239921   6.549   4.607   1.652
 6096TIP3   OH239922   6.872   5.203   1.501
 6096TIP3    H139923   6.779   5.215   1.480
 6096TIP3    H239924   6.880   5.231   1.592
 6097TIP3   OH239925   7.268   5.287   0.308
 6097TIP3    H139926   7.228   5.242   0.382
 6097TIP3    H239927   7.327   5.222   0.269
 6098TIP3   OH239928   6.996   4.793   1.038
 6098TIP3    H139929   6.901   4.782   1.029
 6098TIP3    H239930   7.033   4.719   0.989
 6099TIP3   OH239931   6.298   5.208   0.703
 6099TIP3    H139932   6.326   5.292   0.669
 6099TIP3    H239933   6.203   5.206   0.687
 6100TIP3   OH239934   5.859   4.683   0.156
 6100TIP3    H139935   5.898   4.744   0.219
 6100TIP3    H239936   5.765   4.687   0.175
 6101TIP3   OH239937   6.388   4.969   0.589
 6101TIP3    H139938   6.373   5.055   0.628
 6101TIP3    H239939   6.330   4.911   0.637
 6102TIP3   OH239940   6.484   5.379   1.276
 6102TIP3    H139941   6.542   5.452   1.253
 6102TIP3    H239942   6.536   5.324   1.335
 6103TIP3   OH239943   6.285   5.473   0.593
 6103TIP3    H139944   6.193   5.485   0.615
 6103TIP3    H239945   6.328   5.550   0.630
 6104TIP3   OH239946   6.777   4.990   1.250
 6104TIP3    H139947   6.735   4.969   1.334
 6104TIP3    H239948   6.852   4.931   1.246
 6105TIP3   OH239949   7.012   5.095   0.147
 6105TIP3    H139950   7.070   5.052   0.210
 6105TIP3    H239951   6.924   5.085   0.184
 6106TIP3   OH239952   7.096   5.410   1.449
 6106TIP3    H139953   7.011   5.370   1.433
 6106TIP3    H239954   7.096   5.488   1.392
 6107TIP3   OH239955   5.878   4.170   1.398
 6107TIP3    H139956   5.789   4.199   1.381
 6107TIP3    H239957   5.868   4.098   1.460
 6108TIP3   OH239958   7.177   4.929   0.322
 6108TIP3    H139959   7.134   4.877   0.390
 6108TIP3    H239960   7.258   4.959   0.362
 6109TIP3   OH239961   5.864   5.345   1.272
 6109TIP3    H139962   5.893   5.271   1.326
 6109TIP3    H239963   5.877   5.422   1.328
 6110TIP3   OH239964   6.304   5.168   0.274
 6110TIP3    H139965   6.381   5.120   0.305
 6110TIP3    H239966   6.324   5.259   0.292
 6111TIP3   OH239967   5.959   4.877   0.328
 6111TIP3    H139968   5.886   4.922   0.372
 6111TIP3    H239969   6.006   4.947   0.283
 6112TIP3   OH239970   6.789   4.122   1.342
 6112TIP3    H139971   6.858   4.142   1.405
 6112TIP3    H239972   6.751   4.040   1.374
 6113TIP3   OH239973   6.845   4.066   0.471
 6113TIP3    H139974   6.872   4.097   0.384
 6113TIP3    H239975   6.888   4.126   0.532
 6114TIP3   OH239976   6.600   5.268   0.324
 6114TIP3    H139977   6.525   5.323   0.346
 6114TIP3    H239978   6.644   5.315   0.253
 6115TIP3   OH239979   6.536   4.295   0.526
 6115TIP3    H139980   6.612   4.352   0.532
 6115TIP3    H239981   6.527   4.257   0.614
 6116TIP3   OH239982   6.642   4.365   1.401
 6116TIP3    H139983   6.657   4.396   1.490
 6116TIP3    H239984   6.684   4.279   1.398
 6117TIP3   OH239985   6.613   3.969   0.582
 6117TIP3    H139986   6.586   4.037   0.644
 6117TIP3    H239987   6.696   4.001   0.547
 6118TIP3   OH239988   6.373   5.425   0.338
 6118TIP3    H139989   6.370   5.508   0.290
 6118TIP3    H239990   6.341   5.447   0.425
 6119TIP3   OH239991   6.217   4.103   0.306
 6119TIP3    H139992   6.213   4.189   0.347
 6119TIP3    H239993   6.306   4.073   0.323
 6120TIP3   OH239994   7.266   4.155   1.482
 6120TIP3    H139995   7.180   4.190   1.503
 6120TIP3    H239996   7.256   4.116   1.395
 6121TIP3   OH239997   7.079   4.550   0.915
 6121TIP3    H139998   6.996   4.508   0.891
 6121TIP3    H239999   7.112   4.496   0.987
 6122TIP3   OH240000   6.055   5.097   0.181
 6122TIP3    H140001   6.124   5.141   0.231
 6122TIP3    H240002   6.102   5.045   0.116
 6123TIP3   OH240003   5.907   4.412   0.110
 6123TIP3    H140004   5.891   4.506   0.125
 6123TIP3    H240005   5.893   4.400   0.016
 6124TIP3   OH240006   7.235   5.493   1.065
 6124TIP3    H140007   7.217   5.562   1.002
 6124TIP3    H240008   7.331   5.485   1.066
 6125TIP3   OH240009   5.949   3.882   0.947
 6125TIP3    H140010   5.941   3.871   0.852
 6125TIP3    H240011   5.917   3.800   0.983
 6126TIP3   OH240012   5.827   5.279   0.566
 6126TIP3    H140013   5.774   5.309   0.640
 6126TIP3    H240014   5.813   5.344   0.498
 6127TIP3   OH240015   5.817   5.569   1.741
 6127TIP3    H140016   5.874   5.571   1.818
 6127TIP3    H240017   5.821   5.479   1.710
 6128TIP3   OH240018   6.284   5.352   1.854
 6128TIP3    H140019   6.243   5.281   1.904
 6128TIP3    H240020   6.243   5.348   1.767
 6129TIP3   OH240021   6.720   5.390   0.117
 6129TIP3    H140022   6.695   5.356   0.031
 6129TIP3    H240023   6.809   5.423   0.105
 6130TIP3   OH240024   6.875   5.270   1.773
 6130TIP3    H140025   6.843   5.190   1.815
 6130TIP3    H240026   6.950   5.297   1.827
 6131TIP3   OH240027   7.115   5.343   0.045
 6131TIP3    H140028   7.080   5.259   0.074
 6131TIP3    H240029   7.200   5.350   0.090
 6132TIP3   OH240030   5.768   4.909   1.799
 6132TIP3    H140031   5.774   4.815   1.779
 6132TIP3    H240032   5.695   4.940   1.746
 6133TIP3   OH240033   6.215   4.932   0.037
 6133TIP3    H140034   6.252   4.885   0.112
 6133TIP3    H240035   6.237   4.877  -0.038
 6134TIP3   OH240036   6.436   4.918   1.750
 6134TIP3    H140037   6.419   4.972   1.673
 6134TIP3    H240038   6.456   4.831   1.716
 6135TIP3   OH240039   6.965   4.941   1.512
 6135TIP3    H140040   7.057   4.956   1.491
 6135TIP3    H240041   6.923   5.026   1.501
 6136TIP3   OH240042   5.837   4.641   1.741
 6136TIP3    H140043   5.929   4.624   1.718
 6136TIP3    H240044   5.831   4.617   1.834
 6137TIP3   OH240045   6.314   4.767   0.238
 6137TIP3    H140046   6.264   4.727   0.309
 6137TIP3    H240047   6.356   4.693   0.194
 6138TIP3   OH240048   6.267   4.534   1.500
 6138TIP3    H140049   6.191   4.593   1.503
 6138TIP3    H240050   6.324   4.571   1.433
 6139TIP3   OH240051   6.447   4.579   0.080
 6139TIP3    H140052   6.448   4.574  -0.015
 6139TIP3    H240053   6.537   4.561   0.106
 6140TIP3   OH240054   6.771   4.791   1.816
 6140TIP3    H140055   6.841   4.753   1.763
 6140TIP3    H240056   6.734   4.717   1.864
 6141TIP3   OH240057   6.316   4.278   1.592
 6141TIP3    H140058   6.327   4.219   1.517
 6141TIP3    H240059   6.304   4.365   1.552
 6142TIP3   OH240060   6.340   4.126   1.351
 6142TIP3    H140061   6.394   4.172   1.287
 6142TIP3    H240062   6.253   4.122   1.310
 6143TIP3   OH240063   6.453   4.653   1.341
 6143TIP3    H140064   6.545   4.671   1.359
 6143TIP3    H240065   6.419   4.733   1.302
 6144TIP3   OH240066   6.906   4.426   1.831
 6144TIP3    H140067   6.911   4.330   1.835
 6144TIP3    H240068   6.990   4.453   1.794
 6145TIP3   OH240069   6.996   4.720   1.666
 6145TIP3    H140070   6.981   4.799   1.615
 6145TIP3    H240071   7.090   4.719   1.684
 6146TIP3   OH240072   6.111   4.327   1.772
 6146TIP3    H140073   6.041   4.267   1.748
 6146TIP3    H240074   6.180   4.311   1.707
 6147TIP3   OH240075   6.393   3.849   1.389
 6147TIP3    H140076   6.372   3.941   1.378
 6147TIP3    H240077   6.318   3.802   1.352
 6148TIP3   OH240078   6.547   4.264   1.749
 6148TIP3    H140079   6.527   4.272   1.842
 6148TIP3    H240080   6.462   4.270   1.706
 6149TIP3   OH240081   6.797   4.190   1.650
 6149TIP3    H140082   6.708   4.202   1.682
 6149TIP3    H240083   6.840   4.138   1.718
 6150TIP3   OH240084   6.910   4.065   1.862
 6150TIP3    H140085   6.934   3.973   1.855
 6150TIP3    H240086   6.843   4.067   1.931
 6151TIP3   OH240087   5.914   4.130   1.756
 6151TIP3    H140088   5.924   4.048   1.709
 6151TIP3    H240089   5.854   4.110   1.828
 6152TIP3   OH240090   6.493   3.783   1.637
 6152TIP3    H140091   6.490   3.690   1.659
 6152TIP3    H240092   6.438   3.791   1.558
 6153TIP3   OH240093   6.508   3.953   1.847
 6153TIP3    H140094   6.509   3.876   1.790
 6153TIP3    H240095   6.488   4.026   1.788
 6154TIP3   OH240096   6.406   5.633   0.155
 6154TIP3    H140097   6.496   5.648   0.183
 6154TIP3    H240098   6.400   5.675   0.069
 6155TIP3   OH240099   5.782   5.116   0.125
 6155TIP3    H140100   5.873   5.133   0.146
 6155TIP3    H240101   5.784   5.059   0.048
 6156TIP3   OH240102   5.668   5.606   0.656
 6156TIP3    H140103   5.612   5.579   0.582
 6156TIP3    H240104   5.681   5.526   0.706
 6157TIP3   OH240105   5.726   5.385   0.819
 6157TIP3    H140106   5.694   5.308   0.866
 6157TIP3    H240107   5.769   5.439   0.885
 6158TIP3   OH240108   7.260   5.095   1.717
 6158TIP3    H140109   7.240   5.054   1.633
 6158TIP3    H240110   7.228   5.185   1.708
 6159TIP3   OH240111   7.262   5.216   1.337
 6159TIP3    H140112   7.217   5.290   1.377
 6159TIP3    H240113   7.226   5.212   1.248
 6160TIP3   OH240114   7.351   4.359   0.030
 6160TIP3    H140115   7.319   4.418  -0.038
 6160TIP3    H240116   7.279   4.297   0.042
 6161TIP3   OH240117   7.180   4.551   0.656
 6161TIP3    H140118   7.173   4.456   0.648
 6161TIP3    H240119   7.160   4.570   0.747
 6162TIP3   OH240120   5.716   4.749   1.077
 6162TIP3    H140121   5.730   4.734   0.984
 6162TIP3    H240122   5.799   4.722   1.118
 6163TIP3   OH240123   7.276   4.744   1.701
 6163TIP3    H140124   7.348   4.682   1.714
 6163TIP3    H240125   7.296   4.788   1.619
 6164TIP3   OH240126   7.168   4.160   0.054
 6164TIP3    H140127   7.197   4.071   0.033
 6164TIP3    H240128   7.091   4.147   0.110
 6165TIP3   OH240129   7.208   4.287   0.478
 6165TIP3    H140130   7.220   4.198   0.511
 6165TIP3    H240131   7.281   4.301   0.417
 6166TIP3   OH240132   7.262   4.234   1.060
 6166TIP3    H140133   7.346   4.200   1.026
 6166TIP3    H240134   7.280   4.326   1.079
 6167TIP3   OH240135   7.277   4.487   1.366
 6167TIP3    H140136   7.182   4.502   1.371
 6167TIP3    H240137   7.294   4.480   1.272
 6168TIP3   OH240138   5.703   4.274   1.641
 6168TIP3    H140139   5.788   4.253   1.679
 6168TIP3    H240140   5.649   4.197   1.657
 6169TIP3   OH240141   7.206   4.021   0.558
 6169TIP3    H140142   7.248   3.962   0.620
 6169TIP3    H240143   7.138   3.968   0.517
 6170TIP3   OH240144   5.816   4.125   0.976
 6170TIP3    H140145   5.855   4.038   0.976
 6170TIP3    H240146   5.889   4.184   0.993
 6171TIP3   OH240147   5.629   4.413   1.034
 6171TIP3    H140148   5.706   4.415   0.977
 6171TIP3    H240149   5.656   4.462   1.113
 6172TIP3   OH240150   5.696   4.028   0.446
 6172TIP3    H140151   5.601   4.023   0.456
 6172TIP3    H240152   5.710   4.102   0.386
 6173TIP3   OH240153   7.157   5.507   0.716
 6173TIP3    H140154   7.235   5.456   0.739
 6173TIP3    H240155   7.161   5.583   0.774
 6174TIP3   OH240156   5.682   3.887   1.300
 6174TIP3    H140157   5.614   3.877   1.368
 6174TIP3    H240158   5.648   3.956   1.243
 6175TIP3   OH240159   5.881   5.291   1.702
 6175TIP3    H140160   5.792   5.281   1.668
 6175TIP3    H240161   5.881   5.245   1.785
 6176TIP3   OH240162   6.221   5.354   1.353
 6176TIP3    H140163   6.191   5.442   1.329
 6176TIP3    H240164   6.315   5.355   1.333
 6177TIP3   OH240165   6.660   5.428   1.678
 6177TIP3    H140166   6.731   5.375   1.715
 6177TIP3    H240167   6.705   5.506   1.644
 6178TIP3   OH240168   6.828   5.628   1.591
 6178TIP3    H140169   6.900   5.597   1.537
 6178TIP3    H240170   6.870   5.664   1.669
 6179TIP3   OH240171   5.918   5.618   1.370
 6179TIP3    H140172   5.849   5.672   1.330
 6179TIP3    H240173   5.934   5.658   1.455
 6180TIP3   OH240174   6.182   5.618   1.284
 6180TIP3    H140175   6.089   5.625   1.308
 6180TIP3    H240176   6.190   5.669   1.203
 6181TIP3   OH240177   6.632   5.597   1.188
 6181TIP3    H140178   6.582   5.635   1.116
 6181TIP3    H240179   6.644   5.670   1.249
 6182TIP3   OH240180   6.854   5.469   1.290
 6182TIP3    H140181   6.777   5.514   1.255
 6182TIP3    H240182   6.927   5.529   1.273
 6183TIP3   OH240183   7.086   5.617   1.264
 6183TIP3    H140184   7.110   5.709   1.255
 6183TIP3    H240185   7.140   5.572   1.198
 6184TIP3   OH240186   5.863   5.503   1.041
 6184TIP3    H140187   5.862   5.459   1.125
 6184TIP3    H240188   5.943   5.473   0.998
 6185TIP3   OH240189   6.083   5.383   0.931
 6185TIP3    H140190   6.073   5.290   0.952
 6185TIP3    H240191   6.171   5.405   0.963
 6186TIP3   OH240192   6.349   5.410   1.030
 6186TIP3    H140193   6.358   5.319   1.000
 6186TIP3    H240194   6.384   5.409   1.119
 6187TIP3   OH240195   6.674   3.983   0.927
 6187TIP3    H140196   6.611   3.914   0.947
 6187TIP3    H240197   6.746   3.937   0.884
 6188TIP3   OH240198   7.168   3.827   0.904
 6188TIP3    H140199   7.211   3.912   0.903
 6188TIP3    H240200   7.075   3.846   0.893
 6189TIP3   OH240201   5.920   3.844   0.674
 6189TIP3    H140202   5.828   3.828   0.654
 6189TIP3    H240203   5.963   3.760   0.660
 6190TIP3   OH240204   5.819   3.836   0.268
 6190TIP3    H140205   5.889   3.888   0.229
 6190TIP3    H240206   5.778   3.896   0.331
 6191TIP3   OH240207   6.403   3.813   0.697
 6191TIP3    H140208   6.473   3.864   0.656
 6191TIP3    H240209   6.423   3.816   0.790
 6192TIP3   OH240210   6.896   3.849   0.824
 6192TIP3    H140211   6.909   3.833   0.730
 6192TIP3    H240212   6.872   3.763   0.860
 6193TIP3   OH240213   7.024   3.849   0.453
 6193TIP3    H140214   6.947   3.904   0.439
 6193TIP3    H240215   6.992   3.759   0.441
 6194TIP3   OH240216   5.788   5.463   0.371
 6194TIP3    H140217   5.715   5.454   0.310
 6194TIP3    H240218   5.818   5.553   0.358
 6195TIP3   OH240219   6.024   3.971   0.145
 6195TIP3    H140220   6.067   3.978   0.060
 6195TIP3    H240221   6.082   4.015   0.206
 6196TIP3   OH240222   6.489   4.084   0.355
 6196TIP3    H140223   6.522   4.014   0.412
 6196TIP3    H240224   6.508   4.165   0.403
 6197TIP3   OH240225   6.671   5.638   0.225
 6197TIP3    H140226   6.744   5.691   0.193
 6197TIP3    H240227   6.687   5.551   0.188
 6198TIP3   OH240228   5.924   3.880   1.630
 6198TIP3    H140229   5.860   3.816   1.661
 6198TIP3    H240230   6.001   3.864   1.685
 6199TIP3   OH240231   6.091   3.820   1.840
 6199TIP3    H140232   6.163   3.762   1.815
 6199TIP3    H240233   6.042   3.771   1.906
 6200TIP3   OH240234   5.971   5.550   0.026
 6200TIP3    H140235   5.967   5.607   0.102
 6200TIP3    H240236   6.030   5.480   0.052
 6201TIP3   OH240237   6.960   3.790   1.834
 6201TIP3    H140238   6.950   3.749   1.921
 6201TIP3    H240239   7.053   3.784   1.815
 6202TIP3   OH240240   7.229   5.423   1.687
 6202TIP3    H140241   7.189   5.413   1.601
 6202TIP3    H240242   7.237   5.518   1.699
 6203TIP3   OH240243   1.184   6.672   0.668
 6203TIP3    H140244   1.178   6.767   0.657
 6203TIP3    H240245   1.117   6.637   0.609
 6204TIP3   OH240246   1.077   6.586   1.041
 6204TIP3    H140247   1.085   6.536   1.122
 6204TIP3    H240248   1.034   6.526   0.980
 6205TIP3   OH240249   0.324   6.559   1.171
 6205TIP3    H140250   0.310   6.470   1.205
 6205TIP3    H240251   0.346   6.611   1.248
 6206TIP3   OH240252   1.451   6.899   0.876
 6206TIP3    H140253   1.413   6.826   0.926
 6206TIP3    H240254   1.472   6.965   0.942
 6207TIP3   OH240255   0.393   6.990   0.982
 6207TIP3    H140256   0.360   6.902   0.963
 6207TIP3    H240257   0.485   6.976   1.005
 6208TIP3   OH240258   0.103   6.353   0.571
 6208TIP3    H140259   0.055   6.429   0.603
 6208TIP3    H240260   0.046   6.278   0.590
 6209TIP3   OH240261   0.144   6.574   0.798
 6209TIP3    H140262   0.172   6.487   0.826
 6209TIP3    H240263   0.224   6.626   0.798
 6210TIP3   OH240264   0.918   6.824   1.081
 6210TIP3    H140265   0.958   6.746   1.043
 6210TIP3    H240266   0.988   6.864   1.133
 6211TIP3   OH240267   1.794   5.987   1.168
 6211TIP3    H140268   1.815   6.044   1.242
 6211TIP3    H240269   1.847   6.020   1.096
 6212TIP3   OH240270   1.213   6.283   1.107
 6212TIP3    H140271   1.222   6.189   1.120
 6212TIP3    H240272   1.206   6.294   1.012
 6213TIP3   OH240273   0.582   6.075   0.808
 6213TIP3    H140274   0.590   6.162   0.768
 6213TIP3    H240275   0.531   6.024   0.744
 6214TIP3   OH240276   1.349   6.108   0.658
 6214TIP3    H140277   1.394   6.077   0.736
 6214TIP3    H240278   1.417   6.148   0.604
 6215TIP3   OH240279   0.224   6.324   0.895
 6215TIP3    H140280   0.289   6.276   0.947
 6215TIP3    H240281   0.233   6.289   0.807
 6216TIP3   OH240282   0.714   6.477   0.851
 6216TIP3    H140283   0.796   6.436   0.879
 6216TIP3    H240284   0.674   6.413   0.791
 6217TIP3   OH240285   1.854   6.134   1.398
 6217TIP3    H140286   1.780   6.192   1.380
 6217TIP3    H240287   1.871   6.146   1.491
 6218TIP3   OH240288   0.425   5.985   1.240
 6218TIP3    H140289   0.395   6.041   1.168
 6218TIP3    H240290   0.359   5.996   1.308
 6219TIP3   OH240291   1.168   6.928   0.560
 6219TIP3    H140292   1.148   6.931   0.467
 6219TIP3    H240293   1.125   7.005   0.597
 6220TIP3   OH240294   0.717   6.753   1.258
 6220TIP3    H140295   0.652   6.821   1.276
 6220TIP3    H240296   0.778   6.794   1.197
 6221TIP3   OH240297   1.471   6.050   0.893
 6221TIP3    H140298   1.445   5.983   0.957
 6221TIP3    H240299   1.521   6.113   0.945
 6222TIP3   OH240300   0.407   6.149   1.014
 6222TIP3    H140301   0.465   6.199   1.072
 6222TIP3    H240302   0.466   6.115   0.946
 6223TIP3   OH240303   0.543   6.965   1.320
 6223TIP3    H140304   0.552   7.060   1.307
 6223TIP3    H240305   0.452   6.953   1.346
 6224TIP3   OH240306   0.089   6.891   0.400
 6224TIP3    H140307   0.100   6.943   0.321
 6224TIP3    H240308   0.122   6.948   0.471
 6225TIP3   OH240309   1.488   7.117   1.056
 6225TIP3    H140310   1.397   7.125   1.085
 6225TIP3    H240311   1.502   7.194   1.001
 6226TIP3   OH240312   1.540   5.873   1.227
 6226TIP3    H140313   1.481   5.948   1.221
 6226TIP3    H240314   1.625   5.907   1.200
 6227TIP3   OH240315   0.788   5.681   0.981
 6227TIP3    H140316   0.758   5.590   0.982
 6227TIP3    H240317   0.712   5.731   1.013
 6228TIP3   OH240318   1.342   7.240   0.708
 6228TIP3    H140319   1.375   7.161   0.666
 6228TIP3    H240320   1.408   7.262   0.773
 6229TIP3   OH240321   1.433   6.996   0.616
 6229TIP3    H140322   1.348   6.959   0.591
 6229TIP3    H240323   1.453   6.955   0.700
 6230TIP3   OH240324   1.566   6.880   1.441
 6230TIP3    H140325   1.578   6.820   1.367
 6230TIP3    H240326   1.583   6.967   1.405
 6231TIP3   OH240327   1.044   6.589   0.442
 6231TIP3    H140328   0.980   6.657   0.418
 6231TIP3    H240329   1.105   6.587   0.369
 6232TIP3   OH240330   1.054   6.409   0.132
 6232TIP3    H140331   1.118   6.457   0.184
 6232TIP3    H240332   1.103   6.339   0.090
 6233TIP3   OH240333   1.776   6.540   1.272
 6233TIP3    H140334   1.701   6.599   1.267
 6233TIP3    H240335   1.835   6.570   1.203
 6234TIP3   OH240336   1.399   6.610   0.509
 6234TIP3    H140337   1.332   6.633   0.574
 6234TIP3    H240338   1.467   6.566   0.561
 6235TIP3   OH240339   1.416   6.367   1.460
 6235TIP3    H140340   1.419   6.441   1.520
 6235TIP3    H240341   1.333   6.377   1.413
 6236TIP3   OH240342   0.553   6.659   0.716
 6236TIP3    H140343   0.530   6.621   0.631
 6236TIP3    H240344   0.613   6.595   0.755
 6237TIP3   OH240345   0.686   6.955   0.966
 6237TIP3    H140346   0.692   6.965   0.871
 6237TIP3    H240347   0.767   6.909   0.990
 6238TIP3   OH240348   0.642   6.525   1.118
 6238TIP3    H140349   0.663   6.528   1.025
 6238TIP3    H240350   0.659   6.614   1.150
 6239TIP3   OH240351   1.233   7.125   1.154
 6239TIP3    H140352   1.177   7.183   1.206
 6239TIP3    H240353   1.202   7.037   1.175
 6240TIP3   OH240354   0.685   6.976   1.555
 6240TIP3    H140355   0.623   7.039   1.593
 6240TIP3    H240356   0.643   6.948   1.474
 6241TIP3   OH240357   1.269   6.536   0.278
 6241TIP3    H140358   1.315   6.565   0.357
 6241TIP3    H240359   1.317   6.577   0.206
 6242TIP3   OH240360   0.392   6.610   1.469
 6242TIP3    H140361   0.387   6.687   1.526
 6242TIP3    H240362   0.303   6.574   1.472
 6243TIP3   OH240363   1.079   7.175   0.641
 6243TIP3    H140364   1.165   7.204   0.671
 6243TIP3    H240365   1.029   7.256   0.631
 6244TIP3   OH240366   0.487   7.154   1.614
 6244TIP3    H140367   0.483   7.208   1.535
 6244TIP3    H240368   0.397   7.155   1.648
 6245TIP3   OH240369   1.639   5.695   0.263
 6245TIP3    H140370   1.557   5.722   0.304
 6245TIP3    H240371   1.680   5.777   0.236
 6246TIP3   OH240372   0.476   6.573   0.450
 6246TIP3    H140373   0.419   6.638   0.409
 6246TIP3    H240374   0.422   6.494   0.455
 6247TIP3   OH240375   1.744   7.113   0.162
 6247TIP3    H140376   1.731   7.206   0.143
 6247TIP3    H240377   1.838   7.099   0.149
 6248TIP3   OH240378   0.140   6.753   1.342
 6248TIP3    H140379   0.057   6.772   1.298
 6248TIP3    H240380   0.128   6.667   1.382
 6249TIP3   OH240381   0.129   7.154   1.017
 6249TIP3    H140382   0.200   7.091   1.030
 6249TIP3    H240383   0.069   7.137   1.090
 6250TIP3   OH240384   1.862   7.136   1.642
 6250TIP3    H140385   1.839   7.044   1.648
 6250TIP3    H240386   1.780   7.183   1.657
 6251TIP3   OH240387   0.925   7.100   1.492
 6251TIP3    H140388   0.940   7.149   1.572
 6251TIP3    H240389   0.838   7.061   1.503
 6252TIP3   OH240390   0.286   6.973   1.423
 6252TIP3    H140391   0.302   6.947   1.514
 6252TIP3    H240392   0.228   6.905   1.388
 6253TIP3   OH240393   0.546   5.796   1.072
 6253TIP3    H140394   0.471   5.788   1.014
 6253TIP3    H240395   0.521   5.866   1.134
 6254TIP3   OH240396   1.034   5.759   1.386
 6254TIP3    H140397   1.081   5.727   1.463
 6254TIP3    H240398   0.942   5.762   1.414
 6255TIP3   OH240399   1.423   6.666   0.088
 6255TIP3    H140400   1.482   6.689   0.017
 6255TIP3    H240401   1.455   6.715   0.163
 6256TIP3   OH240402   1.023   5.989   0.139
 6256TIP3    H140403   0.954   5.982   0.205
 6256TIP3    H240404   0.976   5.992   0.055
 6257TIP3   OH240405   0.558   6.284   1.200
 6257TIP3    H140406   0.485   6.294   1.262
 6257TIP3    H240407   0.577   6.372   1.169
 6258TIP3   OH240408   0.583   6.316   0.673
 6258TIP3    H140409   0.488   6.303   0.674
 6258TIP3    H240410   0.610   6.296   0.583
 6259TIP3   OH240411   1.109   6.344   0.557
 6259TIP3    H140412   1.081   6.428   0.521
 6259TIP3    H240413   1.176   6.313   0.496
 6260TIP3   OH240414   0.960   6.350   1.691
 6260TIP3    H140415   0.963   6.255   1.703
 6260TIP3    H240416   1.008   6.385   1.766
 6261TIP3   OH240417   1.201   6.287   0.822
 6261TIP3    H140418   1.160   6.337   0.751
 6261TIP3    H240419   1.243   6.213   0.778
 6262TIP3   OH240420   0.324   6.304   1.345
 6262TIP3    H140421   0.267   6.363   1.395
 6262TIP3    H240422   0.303   6.217   1.378
 6263TIP3   OH240423   0.710   6.069   0.062
 6263TIP3    H140424   0.691   6.018   0.141
 6263TIP3    H240425   0.683   6.158   0.084
 6264TIP3   OH240426   0.063   6.090   0.711
 6264TIP3    H140427   0.087   6.069   0.801
 6264TIP3    H240428   0.099   6.018   0.659
 6265TIP3   OH240429   0.075   6.174   0.294
 6265TIP3    H140430   0.166   6.197   0.272
 6265TIP3    H240431   0.023   6.215   0.225
 6266TIP3   OH240432   1.171   6.434   1.337
 6266TIP3    H140433   1.198   6.393   1.254
 6266TIP3    H240434   1.097   6.380   1.366
 6267TIP3   OH240435   0.860   6.035   0.762
 6267TIP3    H140436   0.770   6.041   0.792
 6267TIP3    H240437   0.908   5.997   0.836
 6268TIP3   OH240438   0.330   6.229   0.651
 6268TIP3    H140439   0.253   6.263   0.607
 6268TIP3    H240440   0.338   6.138   0.622
 6269TIP3   OH240441   0.637   6.234   0.417
 6269TIP3    H140442   0.732   6.230   0.429
 6269TIP3    H240443   0.626   6.268   0.328
 6270TIP3   OH240444   1.218   6.000   1.117
 6270TIP3    H140445   1.179   5.942   1.183
 6270TIP3    H240446   1.174   5.976   1.035
 6271TIP3   OH240447   0.572   6.292   0.157
 6271TIP3    H140448   0.478   6.297   0.143
 6271TIP3    H240449   0.608   6.362   0.104
 6272TIP3   OH240450   0.355   6.818   1.654
 6272TIP3    H140451   0.424   6.841   1.717
 6272TIP3    H240452   0.277   6.806   1.708
 6273TIP3   OH240453   0.934   6.346   0.956
 6273TIP3    H140454   1.001   6.291   0.915
 6273TIP3    H240455   0.901   6.294   1.029
 6274TIP3   OH240456   0.427   5.964   0.602
 6274TIP3    H140457   0.381   5.885   0.629
 6274TIP3    H240458   0.453   5.947   0.511
 6275TIP3   OH240459   0.828   6.213   1.181
 6275TIP3    H140460   0.737   6.242   1.192
 6275TIP3    H240461   0.869   6.229   1.266
 6276TIP3   OH240462   0.868   6.796   0.366
 6276TIP3    H140463   0.799   6.750   0.318
 6276TIP3    H240464   0.828   6.817   0.451
 6277TIP3   OH240465   1.578   6.727   1.211
 6277TIP3    H140466   1.639   6.785   1.165
 6277TIP3    H240467   1.506   6.715   1.149
 6278TIP3   OH240468   1.283   6.026   0.226
 6278TIP3    H140469   1.199   6.014   0.182
 6278TIP3    H240470   1.287   6.119   0.246
 6279TIP3   OH240471   1.006   6.835   1.528
 6279TIP3    H140472   0.951   6.825   1.606
 6279TIP3    H240473   0.986   6.924   1.496
 6280TIP3   OH240474   1.310   6.272   0.369
 6280TIP3    H140475   1.399   6.262   0.403
 6280TIP3    H240476   1.310   6.357   0.325
 6281TIP3   OH240477   0.370   6.714   0.928
 6281TIP3    H140478   0.441   6.694   0.866
 6281TIP3    H240479   0.383   6.652   1.000
 6282TIP3   OH240480   1.091   6.948   0.290
 6282TIP3    H140481   1.055   7.036   0.285
 6282TIP3    H240482   1.015   6.892   0.307
 6283TIP3   OH240483   0.140   6.486   1.465
 6283TIP3    H140484   0.134   6.490   1.560
 6283TIP3    H240485   0.062   6.438   1.438
 6284TIP3   OH240486   0.763   6.541   1.689
 6284TIP3    H140487   0.702   6.517   1.618
 6284TIP3    H240488   0.833   6.477   1.683
 6285TIP3   OH240489   1.210   7.113   1.479
 6285TIP3    H140490   1.115   7.114   1.478
 6285TIP3    H240491   1.234   7.106   1.571
 6286TIP3   OH240492   1.755   6.328   0.316
 6286TIP3    H140493   1.694   6.304   0.247
 6286TIP3    H240494   1.781   6.418   0.296
 6287TIP3   OH240495   1.798   6.861   1.602
 6287TIP3    H140496   1.710   6.882   1.570
 6287TIP3    H240497   1.852   6.860   1.523
 6288TIP3   OH240498   1.569   7.180   0.382
 6288TIP3    H140499   1.554   7.110   0.446
 6288TIP3    H240500   1.627   7.141   0.317
 6289TIP3   OH240501   1.352   6.672   1.031
 6289TIP3    H140502   1.259   6.656   1.018
 6289TIP3    H240503   1.395   6.597   0.989
 6290TIP3   OH240504   0.612   7.071   0.697
 6290TIP3    H140505   0.619   7.151   0.644
 6290TIP3    H240506   0.518   7.065   0.718
 6291TIP3   OH240507   0.188   6.549   0.156
 6291TIP3    H140508   0.234   6.613   0.210
 6291TIP3    H240509   0.097   6.553   0.186
 6292TIP3   OH240510   0.727   6.844   0.595
 6292TIP3    H140511   0.697   6.929   0.625
 6292TIP3    H240512   0.669   6.781   0.639
 6293TIP3   OH240513   0.860   7.231   1.251
 6293TIP3    H140514   0.835   7.311   1.296
 6293TIP3    H240515   0.893   7.174   1.319
 6294TIP3   OH240516   0.580  -0.025   0.553
 6294TIP3    H140517   0.492   0.002   0.580
 6294TIP3    H240518   0.638   0.024   0.611
 6295TIP3   OH240519   1.160   6.864   1.228
 6295TIP3    H140520   1.191   6.862   1.319
 6295TIP3    H240521   1.219   6.805   1.181
 6296TIP3   OH240522   1.354   6.970   0.154
 6296TIP3    H140523   1.413   6.925   0.215
 6296TIP3    H240524   1.268   6.965   0.195
 6297TIP3   OH240525   1.426   7.291   1.457
 6297TIP3    H140526   1.355   7.226   1.463
 6297TIP3    H240527   1.381   7.373   1.436
 6298TIP3   OH240528   0.242   6.041   1.446
 6298TIP3    H140529   0.170   6.081   1.495
 6298TIP3    H240530   0.258   5.958   1.490
 6299TIP3   OH240531   1.506   6.791   0.322
 6299TIP3    H140532   1.460   6.745   0.393
 6299TIP3    H240533   1.596   6.798   0.352
 6300TIP3   OH240534   0.266   7.243   1.309
 6300TIP3    H140535   0.242   7.158   1.345
 6300TIP3    H240536   0.185   7.295   1.314
 6301TIP3   OH240537   0.648   7.072   0.253
 6301TIP3    H140538   0.714   7.014   0.293
 6301TIP3    H240539   0.680   7.160   0.271
 6302TIP3   OH240540   0.307   6.747   0.312
 6302TIP3    H140541   0.232   6.783   0.359
 6302TIP3    H240542   0.349   6.823   0.272
 6303TIP3   OH240543   1.210   5.942   0.483
 6303TIP3    H140544   1.224   5.979   0.396
 6303TIP3    H240545   1.249   6.005   0.543
 6304TIP3   OH240546   0.978   7.198   0.273
 6304TIP3    H140547   0.897   7.242   0.296
 6304TIP3    H240548   1.027   7.263   0.223
 6305TIP3   OH240549   0.891   6.177   0.523
 6305TIP3    H140550   0.965   6.236   0.534
 6305TIP3    H240551   0.877   6.140   0.611
 6306TIP3   OH240552   0.963   6.269   1.423
 6306TIP3    H140553   0.932   6.306   1.506
 6306TIP3    H240554   1.023   6.200   1.449
 6307TIP3   OH240555   0.969   5.846   0.584
 6307TIP3    H140556   0.941   5.916   0.643
 6307TIP3    H240557   1.054   5.875   0.551
 6308TIP3   OH240558   0.735  -0.013   0.327
 6308TIP3    H140559   0.743   0.082   0.319
 6308TIP3    H240560   0.678  -0.026   0.403
 6309TIP3   OH240561   0.569   5.983   0.308
 6309TIP3    H140562   0.566   6.071   0.345
 6309TIP3    H240563   0.657   5.952   0.330
 6310TIP3   OH240564   1.438   6.425   0.912
 6310TIP3    H140565   1.356   6.381   0.889
 6310TIP3    H240566   1.485   6.363   0.967
 6311TIP3   OH240567   0.405   6.968   0.168
 6311TIP3    H140568   0.466   7.024   0.215
 6311TIP3    H240569   0.459   6.917   0.109
 6312TIP3   OH240570   0.297   6.296   0.126
 6312TIP3    H140571   0.256   6.383   0.124
 6312TIP3    H240572   0.249   6.246   0.060
 6313TIP3   OH240573   0.300   5.771   0.949
 6313TIP3    H140574   0.302   5.760   0.854
 6313TIP3    H240575   0.262   5.689   0.981
 6314TIP3   OH240576   0.189   7.082   0.576
 6314TIP3    H140577   0.139   7.096   0.656
 6314TIP3    H240578   0.185   7.166   0.531
 6315TIP3   OH240579   0.562   7.166   1.887
 6315TIP3    H140580   0.621   7.235   1.918
 6315TIP3    H240581   0.568   7.172   1.791
 6316TIP3   OH240582   1.141   7.357   0.061
 6316TIP3    H140583   1.083   7.297   0.015
 6316TIP3    H240584   1.226   7.314   0.060
 6317TIP3   OH240585   1.282   7.068   1.732
 6317TIP3    H140586   1.231   7.006   1.783
 6317TIP3    H240587   1.344   7.106   1.795
 6318TIP3   OH240588   1.381   7.231   0.043
 6318TIP3    H140589   1.390   7.144   0.083
 6318TIP3    H240590   1.469   7.251   0.011
 6319TIP3   OH240591   0.146   6.793   1.831
 6319TIP3    H140592   0.137   6.718   1.890
 6319TIP3    H240593   0.058   6.832   1.829
 6320TIP3   OH240594   0.586   6.810   0.039
 6320TIP3    H140595   0.618   6.762   0.115
 6320TIP3    H240596   0.592   6.747  -0.033
 6321TIP3   OH240597   0.817   6.813   1.731
 6321TIP3    H140598   0.757   6.858   1.671
 6321TIP3    H240599   0.793   6.721   1.724
 6322TIP3   OH240600   1.297   6.821   1.478
 6322TIP3    H140601   1.390   6.837   1.465
 6322TIP3    H240602   1.263   6.902   1.516
 6323TIP3   OH240603   0.180   6.487   1.745
 6323TIP3    H140604   0.240   6.413   1.749
 6323TIP3    H240605   0.175   6.520   1.834
 6324TIP3   OH240606   0.668   6.647   0.247
 6324TIP3    H140607   0.613   6.608   0.315
 6324TIP3    H240608   0.703   6.572   0.198
 6325TIP3   OH240609   0.620   6.460   1.456
 6325TIP3    H140610   0.536   6.501   1.476
 6325TIP3    H240611   0.640   6.489   1.367
 6326TIP3   OH240612   0.785   6.461   0.073
 6326TIP3    H140613   0.792   6.462  -0.023
 6326TIP3    H240614   0.874   6.442   0.102
 6327TIP3   OH240615   1.106   6.628   1.730
 6327TIP3    H140616   1.111   6.717   1.765
 6327TIP3    H240617   1.099   6.572   1.807
 6328TIP3   OH240618   1.706   6.772   0.015
 6328TIP3    H140619   1.679   6.802  -0.072
 6328TIP3    H240620   1.713   6.852   0.067
 6329TIP3   OH240621   0.618   6.191   1.554
 6329TIP3    H140622   0.649   6.126   1.492
 6329TIP3    H240623   0.625   6.274   1.507
 6330TIP3   OH240624   0.682   6.007   1.338
 6330TIP3    H140625   0.731   6.050   1.268
 6330TIP3    H240626   0.591   6.006   1.307
 6331TIP3   OH240627   0.917   6.586   1.376
 6331TIP3    H140628   0.882   6.504   1.342
 6331TIP3    H240629   0.851   6.651   1.354
 6332TIP3   OH240630   1.401   6.593   1.612
 6332TIP3    H140631   1.367   6.682   1.603
 6332TIP3    H240632   1.495   6.604   1.625
 6333TIP3   OH240633   0.488   6.231   1.790
 6333TIP3    H140634   0.411   6.175   1.781
 6333TIP3    H240635   0.535   6.220   1.708
 6334TIP3   OH240636   0.748   5.744   1.397
 6334TIP3    H140637   0.725   5.835   1.382
 6334TIP3    H240638   0.675   5.694   1.359
 6335TIP3   OH240639   0.289   6.042   1.759
 6335TIP3    H140640   0.296   5.961   1.707
 6335TIP3    H240641   0.302   6.014   1.849
 6336TIP3   OH240642   0.729   5.675   1.662
 6336TIP3    H140643   0.792   5.603   1.668
 6336TIP3    H240644   0.732   5.701   1.570
 6337TIP3   OH240645   0.844   5.867   1.828
 6337TIP3    H140646   0.796   5.811   1.768
 6337TIP3    H240647   0.780   5.932   1.857
 6338TIP3   OH240648   0.127   7.019   0.163
 6338TIP3    H140649   0.223   7.015   0.158
 6338TIP3    H240650   0.099   7.026   0.071
 6339TIP3   OH240651   0.049   7.339   0.829
 6339TIP3    H140652   0.065   7.262   0.884
 6339TIP3    H240653   0.112   7.404   0.861
 6340TIP3   OH240654   1.619   6.900   1.893
 6340TIP3    H140655   1.538   6.921   1.940
 6340TIP3    H240656   1.675   6.977   1.906
 6341TIP3   OH240657   1.765   6.760   0.424
 6341TIP3    H140658   1.838   6.822   0.423
 6341TIP3    H240659   1.783   6.702   0.498
 6342TIP3   OH240660   1.824   6.568   0.617
 6342TIP3    H140661   1.740   6.536   0.650
 6342TIP3    H240662   1.877   6.582   0.696
 6343TIP3   OH240663   1.801   6.865   1.121
 6343TIP3    H140664   1.858   6.797   1.084
 6343TIP3    H240665   1.831   6.946   1.080
 6344TIP3   OH240666   1.597   7.120   1.317
 6344TIP3    H140667   1.540   7.186   1.356
 6344TIP3    H240668   1.573   7.120   1.224
 6345TIP3   OH240669   1.805   6.587   0.217
 6345TIP3    H140670   1.760   6.630   0.145
 6345TIP3    H240671   1.791   6.644   0.293
 6346TIP3   OH240672   1.600   6.275   0.093
 6346TIP3    H140673   1.672   6.294   0.033
 6346TIP3    H240674   1.577   6.184   0.075
 6347TIP3   OH240675   1.571   6.454   0.668
 6347TIP3    H140676   1.567   6.363   0.637
 6347TIP3    H240677   1.531   6.451   0.755
 6348TIP3   OH240678   0.075   6.650   1.054
 6348TIP3    H140679   0.083   6.647   0.959
 6348TIP3    H240680   0.165   6.649   1.087
 6349TIP3   OH240681   1.670   6.616   1.630
 6349TIP3    H140682   1.740   6.551   1.624
 6349TIP3    H240683   1.715   6.700   1.630
 6350TIP3   OH240684   1.822   6.388   1.644
 6350TIP3    H140685   1.738   6.341   1.647
 6350TIP3    H240686   1.887   6.322   1.668
 6351TIP3   OH240687   1.534   6.015   0.058
 6351TIP3    H140688   1.610   5.966   0.091
 6351TIP3    H240689   1.462   5.989   0.115
 6352TIP3   OH240690   1.563   6.208   0.497
 6352TIP3    H140691   1.591   6.116   0.498
 6352TIP3    H240692   1.632   6.252   0.448
 6353TIP3   OH240693   1.593   6.239   1.056
 6353TIP3    H140694   1.685   6.252   1.031
 6353TIP3    H240695   1.593   6.249   1.151
 6354TIP3   OH240696   1.646   6.304   1.327
 6354TIP3    H140697   1.566   6.331   1.372
 6354TIP3    H240698   1.693   6.385   1.309
 6355TIP3   OH240699   0.060   6.142   1.647
 6355TIP3    H140700   0.142   6.130   1.693
 6355TIP3    H240701  -0.003   6.089   1.695
 6356TIP3   OH240702   1.627   5.934   0.502
 6356TIP3    H140703   1.648   5.897   0.587
 6356TIP3    H240704   1.557   5.879   0.468
 6357TIP3   OH240705   0.164   6.012   0.957
 6357TIP3    H140706   0.201   5.924   0.966
 6357TIP3    H240707   0.235   6.070   0.985
 6358TIP3   OH240708   0.030   6.380   1.090
 6358TIP3    H140709   0.096   6.355   1.025
 6358TIP3    H240710   0.028   6.475   1.087
 6359TIP3   OH240711   1.778   5.930   1.664
 6359TIP3    H140712   1.700   5.935   1.721
 6359TIP3    H240713   1.752   5.871   1.594
 6360TIP3   OH240714   1.778   5.911   0.157
 6360TIP3    H140715   1.848   5.851   0.134
 6360TIP3    H240716   1.822   5.990   0.187
 6361TIP3   OH240717   0.117   5.939   0.444
 6361TIP3    H140718   0.030   5.925   0.481
 6361TIP3    H240719   0.107   6.016   0.388
 6362TIP3   OH240720   7.366   5.795   1.328
 6362TIP3    H140721   7.331   5.858   1.390
 6362TIP3    H240722   7.314   5.808   1.249
 6363TIP3   OH240723   0.232   7.171   1.719
 6363TIP3    H140724   0.154   7.208   1.678
 6363TIP3    H240725   0.203   7.146   1.807
 6364TIP3   OH240726   0.537   7.260   1.316
 6364TIP3    H140727   0.441   7.263   1.314
 6364TIP3    H240728   0.563   7.263   1.223
 6365TIP3   OH240729   1.696   5.731   1.474
 6365TIP3    H140730   1.626   5.753   1.413
 6365TIP3    H240731   1.716   5.639   1.455
 6366TIP3   OH240732   0.424   7.251   0.897
 6366TIP3    H140733   0.394   7.164   0.922
 6366TIP3    H240734   0.511   7.259   0.936
 6367TIP3   OH240735   0.662   7.208   1.064
 6367TIP3    H140736   0.666   7.119   1.027
 6367TIP3    H240737   0.733   7.211   1.128
 6368TIP3   OH240738   1.018   5.873   0.928
 6368TIP3    H140739   0.957   5.802   0.948
 6368TIP3    H240740   1.095   5.830   0.892
 6369TIP3   OH240741   1.528   5.695   0.899
 6369TIP3    H140742   1.589   5.754   0.854
 6369TIP3    H240743   1.443   5.737   0.889
 6370TIP3   OH240744   1.713   5.813   0.734
 6370TIP3    H140745   1.777   5.745   0.714
 6370TIP3    H240746   1.766   5.891   0.754
 6371TIP3   OH240747   0.300   5.731   0.676
 6371TIP3    H140748   0.211   5.724   0.643
 6371TIP3    H240749   0.337   5.643   0.663
 6372TIP3   OH240750   0.171   5.724   0.281
 6372TIP3    H140751   0.238   5.760   0.223
 6372TIP3    H240752   0.160   5.790   0.349
 6373TIP3   OH240753   0.754   5.694   0.695
 6373TIP3    H140754   0.822   5.749   0.656
 6373TIP3    H240755   0.768   5.701   0.789
 6374TIP3   OH240756   1.257   5.759   0.834
 6374TIP3    H140757   1.265   5.751   0.739
 6374TIP3    H240758   1.233   5.671   0.864
 6375TIP3   OH240759   1.420   5.766   0.415
 6375TIP3    H140760   1.345   5.824   0.427
 6375TIP3    H240761   1.384   5.678   0.425
 6376TIP3   OH240762   0.142  -0.012   0.466
 6376TIP3    H140763   0.065  -0.053   0.429
 6376TIP3    H240764   0.134   0.080   0.442
 6377TIP3   OH240765   0.373   5.859   0.149
 6377TIP3    H140766   0.397   5.885   0.060
 6377TIP3    H240767   0.438   5.900   0.205
 6378TIP3   OH240768   0.842   5.964   0.356
 6378TIP3    H140769   0.875   5.894   0.413
 6378TIP3    H240770   0.861   6.044   0.405
 6379TIP3   OH240771   0.291   5.790   1.624
 6379TIP3    H140772   0.225   5.729   1.656
 6379TIP3    H240773   0.369   5.770   1.675
 6380TIP3   OH240774   0.486   5.702   1.800
 6380TIP3    H140775   0.571   5.707   1.755
 6380TIP3    H240776   0.489   5.619   1.847
 6381TIP3   OH240777   1.624   7.275   1.659
 6381TIP3    H140778   1.546   7.272   1.604
 6381TIP3    H240779   1.623   7.363   1.697
 6382TIP3   OH240780   3.071   6.662   0.662
 6382TIP3    H140781   3.058   6.756   0.661
 6382TIP3    H240782   3.003   6.627   0.606
 6383TIP3   OH240783   2.951   6.590   1.045
 6383TIP3    H140784   2.976   6.551   1.129
 6383TIP3    H240785   2.905   6.520   0.999
 6384TIP3   OH240786   2.165   6.526   1.204
 6384TIP3    H140787   2.172   6.448   1.260
 6384TIP3    H240788   2.239   6.580   1.229
 6385TIP3   OH240789   3.333   6.900   0.872
 6385TIP3    H140790   3.299   6.824   0.920
 6385TIP3    H240791   3.355   6.963   0.941
 6386TIP3   OH240792   2.274   6.978   0.965
 6386TIP3    H140793   2.246   6.888   0.945
 6386TIP3    H240794   2.364   6.969   0.996
 6387TIP3   OH240795   1.955   6.335   0.524
 6387TIP3    H140796   1.927   6.418   0.562
 6387TIP3    H240797   1.889   6.316   0.457
 6388TIP3   OH240798   2.018   6.579   0.821
 6388TIP3    H140799   2.045   6.489   0.840
 6388TIP3    H240800   2.097   6.631   0.834
 6389TIP3   OH240801   2.803   6.830   1.073
 6389TIP3    H140802   2.841   6.750   1.038
 6389TIP3    H240803   2.871   6.866   1.130
 6390TIP3   OH240804   3.681   5.988   1.165
 6390TIP3    H140805   3.694   6.055   1.232
 6390TIP3    H240806   3.735   6.016   1.092
 6391TIP3   OH240807   3.112   6.270   1.077
 6391TIP3    H140808   3.126   6.176   1.093
 6391TIP3    H240809   3.097   6.275   0.983
 6392TIP3   OH240810   2.457   6.073   0.809
 6392TIP3    H140811   2.463   6.159   0.768
 6392TIP3    H240812   2.402   6.021   0.750
 6393TIP3   OH240813   3.236   6.103   0.655
 6393TIP3    H140814   3.277   6.070   0.735
 6393TIP3    H240815   3.308   6.142   0.606
 6394TIP3   OH240816   2.095   6.323   0.888
 6394TIP3    H140817   2.160   6.284   0.947
 6394TIP3    H240818   2.117   6.288   0.801
 6395TIP3   OH240819   2.585   6.470   0.851
 6395TIP3    H140820   2.668   6.433   0.881
 6395TIP3    H240821   2.547   6.403   0.796
 6396TIP3   OH240822   3.717   6.149   1.392
 6396TIP3    H140823   3.651   6.215   1.370
 6396TIP3    H240824   3.741   6.169   1.482
 6397TIP3   OH240825   2.322   5.987   1.229
 6397TIP3    H140826   2.296   6.049   1.160
 6397TIP3    H240827   2.253   5.995   1.295
 6398TIP3   OH240828   3.008   6.915   0.580
 6398TIP3    H140829   3.014   6.931   0.486
 6398TIP3    H240830   2.979   6.998   0.617
 6399TIP3   OH240831   2.583   6.753   1.223
 6399TIP3    H140832   2.529   6.823   1.258
 6399TIP3    H240833   2.652   6.798   1.175
 6400TIP3   OH240834   3.337   6.045   0.903
 6400TIP3    H140835   3.270   6.020   0.966
 6400TIP3    H240836   3.395   6.104   0.951
 6401TIP3   OH240837   2.287   6.160   1.014
 6401TIP3    H140838   2.341   6.219   1.067
 6401TIP3    H240839   2.348   6.124   0.949
 6402TIP3   OH240840   2.423   6.947   1.334
 6402TIP3    H140841   2.430   7.042   1.335
 6402TIP3    H240842   2.331   6.930   1.356
 6403TIP3   OH240843   1.987   6.921   0.395
 6403TIP3    H140844   1.983   6.973   0.314
 6403TIP3    H240845   2.013   6.984   0.462
 6404TIP3   OH240846   3.372   7.113   1.062
 6404TIP3    H140847   3.284   7.120   1.099
 6404TIP3    H240848   3.379   7.187   1.003
 6405TIP3   OH240849   3.432   5.868   1.239
 6405TIP3    H140850   3.363   5.925   1.205
 6405TIP3    H240851   3.513   5.906   1.204
 6406TIP3   OH240852   2.675   5.680   0.980
 6406TIP3    H140853   2.650   5.587   0.985
 6406TIP3    H240854   2.597   5.727   1.012
 6407TIP3   OH240855   3.213   7.247   0.711
 6407TIP3    H140856   3.240   7.166   0.668
 6407TIP3    H240857   3.286   7.269   0.769
 6408TIP3   OH240858   3.325   7.013   0.615
 6408TIP3    H140859   3.324   6.943   0.550
 6408TIP3    H240860   3.329   6.968   0.699
 6409TIP3   OH240861   3.466   6.910   1.428
 6409TIP3    H140862   3.463   6.848   1.356
 6409TIP3    H240863   3.484   6.994   1.386
 6410TIP3   OH240864   2.927   6.587   0.433
 6410TIP3    H140865   2.868   6.660   0.413
 6410TIP3    H240866   2.995   6.592   0.366
 6411TIP3   OH240867   2.942   6.407   0.132
 6411TIP3    H140868   3.004   6.460   0.183
 6411TIP3    H240869   2.997   6.341   0.090
 6412TIP3   OH240870   3.649   6.543   1.272
 6412TIP3    H140871   3.576   6.605   1.265
 6412TIP3    H240872   3.711   6.571   1.205
 6413TIP3   OH240873   3.288   6.601   0.508
 6413TIP3    H140874   3.219   6.623   0.571
 6413TIP3    H240875   3.354   6.556   0.560
 6414TIP3   OH240876   3.255   6.398   1.440
 6414TIP3    H140877   3.267   6.460   1.512
 6414TIP3    H240878   3.185   6.437   1.387
 6415TIP3   OH240879   2.444   6.660   0.705
 6415TIP3    H140880   2.423   6.620   0.620
 6415TIP3    H240881   2.499   6.595   0.749
 6416TIP3   OH240882   2.573   6.952   0.958
 6416TIP3    H140883   2.583   6.963   0.864
 6416TIP3    H240884   2.654   6.910   0.987
 6417TIP3   OH240885   2.445   6.571   1.070
 6417TIP3    H140886   2.502   6.545   0.998
 6417TIP3    H240887   2.497   6.633   1.121
 6418TIP3   OH240888   3.135   7.105   1.206
 6418TIP3    H140889   3.119   7.129   1.298
 6418TIP3    H240890   3.091   7.021   1.195
 6419TIP3   OH240891   2.576   6.965   1.572
 6419TIP3    H140892   2.510   7.027   1.603
 6419TIP3    H240893   2.537   6.926   1.493
 6420TIP3   OH240894   3.159   6.548   0.270
 6420TIP3    H140895   3.206   6.571   0.350
 6420TIP3    H240896   3.203   6.597   0.201
 6421TIP3   OH240897   2.265   6.605   1.483
 6421TIP3    H140898   2.270   6.681   1.542
 6421TIP3    H240899   2.171   6.587   1.475
 6422TIP3   OH240900   2.949   7.182   0.630
 6422TIP3    H140901   3.034   7.216   0.657
 6422TIP3    H240902   2.935   7.217   0.542
 6423TIP3   OH240903   2.362   7.128   1.602
 6423TIP3    H140904   2.358   7.177   1.520
 6423TIP3    H240905   2.280   7.149   1.647
 6424TIP3   OH240906   3.525   5.698   0.269
 6424TIP3    H140907   3.443   5.726   0.311
 6424TIP3    H240908   3.567   5.779   0.242
 6425TIP3   OH240909   2.363   6.576   0.442
 6425TIP3    H140910   2.308   6.646   0.407
 6425TIP3    H240911   2.305   6.500   0.446
 6426TIP3   OH240912   3.637   7.114   0.161
 6426TIP3    H140913   3.631   7.207   0.139
 6426TIP3    H240914   3.729   7.092   0.150
 6427TIP3   OH240915   1.938   6.824   1.370
 6427TIP3    H140916   1.889   6.827   1.288
 6427TIP3    H240917   1.957   6.731   1.384
 6428TIP3   OH240918   1.983   7.104   1.026
 6428TIP3    H140919   2.064   7.056   1.012
 6428TIP3    H240920   1.997   7.148   1.111
 6429TIP3   OH240921   3.733   7.141   1.717
 6429TIP3    H140922   3.707   7.055   1.686
 6429TIP3    H240923   3.655   7.195   1.706
 6430TIP3   OH240924   2.796   7.122   1.526
 6430TIP3    H140925   2.778   7.193   1.589
 6430TIP3    H240926   2.722   7.063   1.535
 6431TIP3   OH240927   2.158   6.981   1.418
 6431TIP3    H140928   2.185   6.955   1.506
 6431TIP3    H240929   2.078   6.931   1.402
 6432TIP3   OH240930   2.429   5.791   1.064
 6432TIP3    H140931   2.351   5.785   1.008
 6432TIP3    H240932   2.410   5.863   1.124
 6433TIP3   OH240933   2.926   5.765   1.420
 6433TIP3    H140934   2.980   5.710   1.477
 6433TIP3    H240935   2.841   5.768   1.463
 6434TIP3   OH240936   3.209   6.132   1.509
 6434TIP3    H140937   3.142   6.127   1.577
 6434TIP3    H240938   3.213   6.225   1.487
 6435TIP3   OH240939   3.299   6.686   0.068
 6435TIP3    H140940   3.287   6.762   0.011
 6435TIP3    H240941   3.392   6.689   0.093
 6436TIP3   OH240942   2.907   5.986   0.141
 6436TIP3    H140943   2.835   5.981   0.203
 6436TIP3    H240944   2.865   5.982   0.055
 6437TIP3   OH240945   2.435   6.318   1.183
 6437TIP3    H140946   2.375   6.319   1.257
 6437TIP3    H240947   2.436   6.408   1.151
 6438TIP3   OH240948   2.440   6.311   0.674
 6438TIP3    H140949   2.345   6.301   0.672
 6438TIP3    H240950   2.469   6.291   0.585
 6439TIP3   OH240951   2.986   6.339   0.541
 6439TIP3    H140952   2.961   6.425   0.508
 6439TIP3    H240953   3.058   6.311   0.484
 6440TIP3   OH240954   2.892   6.399   1.652
 6440TIP3    H140955   2.862   6.331   1.711
 6440TIP3    H240956   2.947   6.455   1.706
 6441TIP3   OH240957   3.081   6.283   0.805
 6441TIP3    H140958   3.039   6.333   0.735
 6441TIP3    H240959   3.125   6.212   0.759
 6442TIP3   OH240960   2.227   6.305   1.369
 6442TIP3    H140961   2.259   6.334   1.454
 6442TIP3    H240962   2.189   6.219   1.385
 6443TIP3   OH240963   2.583   6.057   0.063
 6443TIP3    H140964   2.558   6.013   0.144
 6443TIP3    H240965   2.571   6.150   0.082
 6444TIP3   OH240966   1.893   6.012   0.755
 6444TIP3    H140967   1.940   6.023   0.838
 6444TIP3    H240968   1.960   6.025   0.688
 6445TIP3   OH240969   1.937   6.120   0.257
 6445TIP3    H140970   2.011   6.158   0.211
 6445TIP3    H240971   1.882   6.196   0.279
 6446TIP3   OH240972   3.027   6.443   1.268
 6446TIP3    H140973   3.066   6.384   1.203
 6446TIP3    H240974   2.967   6.387   1.318
 6447TIP3   OH240975   2.739   6.032   0.759
 6447TIP3    H140976   2.651   6.039   0.795
 6447TIP3    H240977   2.792   5.998   0.832
 6448TIP3   OH240978   2.179   6.226   0.645
 6448TIP3    H140979   2.105   6.252   0.591
 6448TIP3    H240980   2.200   6.137   0.615
 6449TIP3   OH240981   2.508   6.227   0.421
 6449TIP3    H140982   2.602   6.224   0.440
 6449TIP3    H240983   2.502   6.264   0.333
 6450TIP3   OH240984   3.131   5.991   1.084
 6450TIP3    H140985   3.094   5.993   1.172
 6450TIP3    H240986   3.063   5.951   1.030
 6451TIP3   OH240987   2.465   6.297   0.157
 6451TIP3    H140988   2.380   6.317   0.119
 6451TIP3    H240989   2.525   6.361   0.117
 6452TIP3   OH240990   2.237   6.830   1.652
 6452TIP3    H140991   2.304   6.866   1.710
 6452TIP3    H240992   2.160   6.821   1.707
 6453TIP3   OH240993   2.813   6.349   0.959
 6453TIP3    H140994   2.885   6.298   0.923
 6453TIP3    H240995   2.781   6.297   1.032
 6454TIP3   OH240996   2.286   5.963   0.609
 6454TIP3    H140997   2.236   5.885   0.635
 6454TIP3    H240998   2.333   5.937   0.531
 6455TIP3   OH240999   2.698   6.218   1.182
 6455TIP3    H141000   2.614   6.263   1.191
 6455TIP3    H241001   2.748   6.246   1.259
 6456TIP3   OH241002   2.754   6.801   0.358
 6456TIP3    H141003   2.685   6.753   0.312
 6456TIP3    H241004   2.716   6.820   0.444
 6457TIP3   OH241005   3.461   6.738   1.209
 6457TIP3    H141006   3.522   6.792   1.159
 6457TIP3    H241007   3.388   6.721   1.149
 6458TIP3   OH241008   3.167   6.028   0.227
 6458TIP3    H141009   3.083   6.018   0.183
 6458TIP3    H241010   3.173   6.122   0.245
 6459TIP3   OH241011   2.929   6.839   1.515
 6459TIP3    H141012   2.940   6.777   1.587
 6459TIP3    H241013   2.870   6.906   1.550
 6460TIP3   OH241014   3.199   6.278   0.364
 6460TIP3    H141015   3.286   6.265   0.402
 6460TIP3    H241016   3.203   6.363   0.320
 6461TIP3   OH241017   2.256   6.702   0.905
 6461TIP3    H141018   2.318   6.699   0.832
 6461TIP3    H241019   2.299   6.654   0.975
 6462TIP3   OH241020   2.975   6.958   0.299
 6462TIP3    H141021   2.939   7.045   0.313
 6462TIP3    H241022   2.901   6.899   0.311
 6463TIP3   OH241023   1.983   6.564   1.476
 6463TIP3    H141024   1.971   6.521   1.561
 6463TIP3    H241025   1.915   6.526   1.421
 6464TIP3   OH241026   2.656   6.552   1.693
 6464TIP3    H141027   2.590   6.511   1.638
 6464TIP3    H241028   2.739   6.513   1.664
 6465TIP3   OH241029   3.075   7.125   1.491
 6465TIP3    H141030   2.980   7.109   1.488
 6465TIP3    H241031   3.098   7.118   1.583
 6466TIP3   OH241032   3.639   6.328   0.316
 6466TIP3    H141033   3.578   6.305   0.246
 6466TIP3    H241034   3.667   6.417   0.296
 6467TIP3   OH241035   3.681   6.885   1.596
 6467TIP3    H141036   3.596   6.902   1.555
 6467TIP3    H241037   3.742   6.878   1.523
 6468TIP3   OH241038   3.450   7.188   0.367
 6468TIP3    H141039   3.433   7.123   0.435
 6468TIP3    H241040   3.509   7.144   0.306
 6469TIP3   OH241041   3.246   6.671   1.025
 6469TIP3    H141042   3.151   6.661   1.020
 6469TIP3    H241043   3.280   6.592   0.983
 6470TIP3   OH241044   2.499   7.069   0.696
 6470TIP3    H141045   2.505   7.149   0.644
 6470TIP3    H241046   2.406   7.063   0.720
 6471TIP3   OH241047   2.081   6.544   0.182
 6471TIP3    H141048   2.123   6.617   0.227
 6471TIP3    H241049   1.987   6.560   0.191
 6472TIP3   OH241050   2.613   6.846   0.585
 6472TIP3    H141051   2.586   6.931   0.621
 6472TIP3    H241052   2.559   6.782   0.632
 6473TIP3   OH241053   2.681   7.228   1.260
 6473TIP3    H141054   2.680   7.312   1.305
 6473TIP3    H241055   2.743   7.175   1.311
 6474TIP3   OH241056   2.463   7.314   0.560
 6474TIP3    H141057   2.372   7.335   0.583
 6474TIP3    H241058   2.515   7.375   0.612
 6475TIP3   OH241059   3.017   6.856   1.253
 6475TIP3    H141060   2.983   6.848   1.342
 6475TIP3    H241061   3.084   6.788   1.246
 6476TIP3   OH241062   3.241   6.981   0.194
 6476TIP3    H141063   3.294   6.934   0.258
 6476TIP3    H241064   3.151   6.972   0.226
 6477TIP3   OH241065   3.295   7.285   1.455
 6477TIP3    H141066   3.220   7.227   1.469
 6477TIP3    H241067   3.256   7.372   1.447
 6478TIP3   OH241068   2.120   6.046   1.409
 6478TIP3    H141069   2.028   6.067   1.397
 6478TIP3    H241070   2.123   5.993   1.488
 6479TIP3   OH241071   3.382   6.833   0.390
 6479TIP3    H141072   3.345   6.753   0.427
 6479TIP3    H241073   3.476   6.821   0.396
 6480TIP3   OH241074   2.114   7.220   1.250
 6480TIP3    H141075   2.129   7.151   1.314
 6480TIP3    H241076   2.057   7.283   1.295
 6481TIP3   OH241077   2.538   7.059   0.264
 6481TIP3    H141078   2.604   7.002   0.303
 6481TIP3    H241079   2.569   7.148   0.282
 6482TIP3   OH241080   2.195   6.759   0.317
 6482TIP3    H141081   2.120   6.801   0.360
 6482TIP3    H241082   2.239   6.831   0.272
 6483TIP3   OH241083   3.025   6.009   1.337
 6483TIP3    H141084   3.093   6.031   1.400
 6483TIP3    H241085   2.989   5.926   1.368
 6484TIP3   OH241086   3.093   5.941   0.481
 6484TIP3    H141087   3.109   5.979   0.395
 6484TIP3    H241088   3.134   6.002   0.543
 6485TIP3   OH241089   2.866   7.211   0.342
 6485TIP3    H141090   2.777   7.247   0.344
 6485TIP3    H241091   2.906   7.252   0.265
 6486TIP3   OH241092   2.763   6.178   0.522
 6486TIP3    H141093   2.839   6.235   0.528
 6486TIP3    H241094   2.755   6.140   0.610
 6487TIP3   OH241095   2.869   6.262   1.401
 6487TIP3    H141096   2.870   6.295   1.491
 6487TIP3    H241097   2.907   6.175   1.406
 6488TIP3   OH241098   2.852   5.845   0.581
 6488TIP3    H141099   2.825   5.913   0.642
 6488TIP3    H241100   2.938   5.873   0.550
 6489TIP3   OH241101   2.607  -0.021   0.328
 6489TIP3    H141102   2.598   0.071   0.303
 6489TIP3    H241103   2.553  -0.030   0.407
 6490TIP3   OH241104   2.447   5.976   0.308
 6490TIP3    H141105   2.440   6.063   0.346
 6490TIP3    H241106   2.536   5.947   0.332
 6491TIP3   OH241107   3.468   6.068   1.562
 6491TIP3    H141108   3.374   6.080   1.548
 6491TIP3    H241109   3.508   6.086   1.477
 6492TIP3   OH241110   3.324   6.422   0.907
 6492TIP3    H141111   3.239   6.382   0.889
 6492TIP3    H241112   3.368   6.360   0.965
 6493TIP3   OH241113   2.292   6.975   0.168
 6493TIP3    H141114   2.355   7.026   0.220
 6493TIP3    H241115   2.346   6.927   0.106
 6494TIP3   OH241116   2.111   6.284   0.105
 6494TIP3    H141117   2.108   6.374   0.136
 6494TIP3    H241118   2.070   6.287   0.018
 6495TIP3   OH241119   2.177   5.767   0.948
 6495TIP3    H141120   2.168   5.757   0.853
 6495TIP3    H241121   2.147   5.683   0.983
 6496TIP3   OH241122   2.058   7.114   0.581
 6496TIP3    H141123   2.015   7.137   0.663
 6496TIP3    H241124   2.050   7.192   0.527
 6497TIP3   OH241125   2.500   7.216   1.862
 6497TIP3    H141126   2.536   7.228   1.950
 6497TIP3    H241127   2.568   7.251   1.804
 6498TIP3   OH241128   2.966   7.313   0.107
 6498TIP3    H141129   2.924   7.279   0.028
 6498TIP3    H241130   3.059   7.312   0.087
 6499TIP3   OH241131   3.128   7.135   1.759
 6499TIP3    H141132   3.161   7.072   1.823
 6499TIP3    H241133   3.158   7.220   1.791
 6500TIP3   OH241134   3.332   7.146  -0.017
 6500TIP3    H141135   3.312   7.106   0.067
 6500TIP3    H241136   3.406   7.205   0.001
 6501TIP3   OH241137   1.996   6.796   1.793
 6501TIP3    H141138   2.016   6.703   1.789
 6501TIP3    H241139   1.922   6.808   1.734
 6502TIP3   OH241140   2.472   6.818   0.035
 6502TIP3    H141141   2.505   6.772   0.112
 6502TIP3    H241142   2.480   6.755  -0.036
 6503TIP3   OH241143   2.622   6.818   1.805
 6503TIP3    H141144   2.611   6.868   1.724
 6503TIP3    H241145   2.638   6.728   1.775
 6504TIP3   OH241146   3.223   6.797   1.510
 6504TIP3    H141147   3.301   6.850   1.491
 6504TIP3    H241148   3.151   6.860   1.512
 6505TIP3   OH241149   2.092   6.538   1.801
 6505TIP3    H141150   2.149   6.464   1.781
 6505TIP3    H241151   2.105   6.553   1.895
 6506TIP3   OH241152   2.553   6.650   0.240
 6506TIP3    H141153   2.499   6.613   0.310
 6506TIP3    H241154   2.591   6.573   0.197
 6507TIP3   OH241155   2.482   6.428   1.494
 6507TIP3    H141156   2.411   6.492   1.491
 6507TIP3    H241157   2.547   6.461   1.433
 6508TIP3   OH241158   2.674   6.455   0.073
 6508TIP3    H141159   2.686   6.476  -0.020
 6508TIP3    H241160   2.763   6.436   0.104
 6509TIP3   OH241161   2.988   6.645   1.836
 6509TIP3    H141162   3.026   6.711   1.894
 6509TIP3    H241163   2.959   6.575   1.895
 6510TIP3   OH241164   3.589   6.765   0.025
 6510TIP3    H141165   3.556   6.779  -0.064
 6510TIP3    H241166   3.602   6.853   0.060
 6511TIP3   OH241167   2.549   6.177   1.594
 6511TIP3    H141168   2.556   6.113   1.523
 6511TIP3    H241169   2.531   6.260   1.549
 6512TIP3   OH241170   2.569   6.014   1.348
 6512TIP3    H141171   2.622   6.063   1.285
 6512TIP3    H241172   2.482   6.011   1.308
 6513TIP3   OH241173   2.682   6.528   1.343
 6513TIP3    H141174   2.777   6.538   1.350
 6513TIP3    H241175   2.653   6.610   1.304
 6514TIP3   OH241176   3.307   6.576   1.646
 6514TIP3    H141177   3.264   6.653   1.609
 6514TIP3    H241178   3.399   6.602   1.653
 6515TIP3   OH241179   2.315   6.273   1.732
 6515TIP3    H141180   2.268   6.196   1.764
 6515TIP3    H241181   2.396   6.237   1.694
 6516TIP3   OH241182   2.617   5.736   1.383
 6516TIP3    H141183   2.597   5.829   1.373
 6516TIP3    H241184   2.540   5.691   1.348
 6517TIP3   OH241185   2.775   6.175   1.768
 6517TIP3    H141186   2.761   6.125   1.849
 6517TIP3    H241187   2.692   6.168   1.721
 6518TIP3   OH241188   3.016   6.065   1.691
 6518TIP3    H141189   2.936   6.109   1.720
 6518TIP3    H241190   2.997   5.972   1.703
 6519TIP3   OH241191   2.208   6.020   1.791
 6519TIP3    H141192   2.183   5.943   1.741
 6519TIP3    H241193   2.275   5.989   1.852
 6520TIP3   OH241194   2.740   5.713   1.625
 6520TIP3    H141195   2.749   5.620   1.646
 6520TIP3    H241196   2.675   5.715   1.554
 6521TIP3   OH241197   2.018   7.028   0.129
 6521TIP3    H141198   2.112   7.022   0.144
 6521TIP3    H241199   2.008   7.025   0.034
 6522TIP3   OH241200   1.946   7.308   0.829
 6522TIP3    H141201   1.935   7.233   0.887
 6522TIP3    H241202   1.989   7.374   0.883
 6523TIP3   OH241203   3.486   6.977   1.899
 6523TIP3    H141204   3.391   6.978   1.913
 6523TIP3    H241205   3.514   7.067   1.915
 6524TIP3   OH241206   3.648   6.761   0.428
 6524TIP3    H141207   3.722   6.821   0.424
 6524TIP3    H241208   3.669   6.701   0.500
 6525TIP3   OH241209   3.709   6.567   0.616
 6525TIP3    H141210   3.625   6.534   0.648
 6525TIP3    H241211   3.761   6.581   0.695
 6526TIP3   OH241212   3.694   6.870   1.126
 6526TIP3    H141213   3.745   6.799   1.086
 6526TIP3    H241214   3.726   6.949   1.082
 6527TIP3   OH241215   3.494   7.162   1.312
 6527TIP3    H141216   3.416   7.198   1.354
 6527TIP3    H241217   3.467   7.144   1.222
 6528TIP3   OH241218   3.691   6.587   0.221
 6528TIP3    H141219   3.653   6.634   0.147
 6528TIP3    H241220   3.675   6.644   0.296
 6529TIP3   OH241221   3.479   6.275   0.096
 6529TIP3    H141222   3.550   6.296   0.036
 6529TIP3    H241223   3.458   6.184   0.077
 6530TIP3   OH241224   3.459   6.449   0.667
 6530TIP3    H141225   3.455   6.359   0.635
 6530TIP3    H241226   3.418   6.446   0.753
 6531TIP3   OH241227   1.949   6.636   1.080
 6531TIP3    H141228   1.961   6.619   0.987
 6531TIP3    H241229   2.030   6.604   1.121
 6532TIP3   OH241230   3.574   6.638   1.668
 6532TIP3    H141231   3.627   6.565   1.635
 6532TIP3    H241232   3.616   6.716   1.633
 6533TIP3   OH241233   3.673   6.386   1.608
 6533TIP3    H141234   3.589   6.357   1.644
 6533TIP3    H241235   3.736   6.321   1.640
 6534TIP3   OH241236   3.416   6.015   0.057
 6534TIP3    H141237   3.492   5.969   0.091
 6534TIP3    H241238   3.344   5.990   0.115
 6535TIP3   OH241239   3.450   6.207   0.497
 6535TIP3    H141240   3.478   6.116   0.498
 6535TIP3    H241241   3.518   6.253   0.447
 6536TIP3   OH241242   3.474   6.234   1.057
 6536TIP3    H141243   3.567   6.246   1.037
 6536TIP3    H241244   3.467   6.251   1.151
 6537TIP3   OH241245   3.500   6.313   1.327
 6537TIP3    H141246   3.417   6.341   1.365
 6537TIP3    H241247   3.549   6.395   1.314
 6538TIP3   OH241248   1.950   6.144   1.672
 6538TIP3    H141249   2.027   6.133   1.728
 6538TIP3    H241250   1.901   6.062   1.683
 6539TIP3   OH241251   3.707   5.724   1.864
 6539TIP3    H141252   3.781   5.670   1.838
 6539TIP3    H241253   3.715   5.803   1.811
 6540TIP3   OH241254   3.512   5.935   0.504
 6540TIP3    H141255   3.535   5.897   0.588
 6540TIP3    H241256   3.441   5.879   0.471
 6541TIP3   OH241257   2.045   6.010   0.986
 6541TIP3    H141258   2.085   5.923   0.985
 6541TIP3    H241259   2.118   6.070   1.002
 6542TIP3   OH241260   1.862   6.295   1.041
 6542TIP3    H141261   1.934   6.296   0.979
 6542TIP3    H241262   1.891   6.351   1.113
 6543TIP3   OH241263   3.666   5.910   1.659
 6543TIP3    H141264   3.591   5.966   1.640
 6543TIP3    H241265   3.662   5.842   1.592
 6544TIP3   OH241266   3.657   5.914   0.154
 6544TIP3    H141267   3.717   5.879   0.088
 6544TIP3    H241268   3.706   5.985   0.195
 6545TIP3   OH241269   1.914   5.902   0.429
 6545TIP3    H141270   1.824   5.911   0.460
 6545TIP3    H241271   1.931   5.983   0.382
 6546TIP3   OH241272   1.909   5.761   1.285
 6546TIP3    H141273   1.849   5.761   1.360
 6546TIP3    H241274   1.879   5.834   1.231
 6547TIP3   OH241275   2.119   7.167   1.728
 6547TIP3    H141276   2.032   7.162   1.688
 6547TIP3    H241277   2.105   7.137   1.818
 6548TIP3   OH241278   2.408   7.223   1.340
 6548TIP3    H141279   2.345   7.254   1.275
 6548TIP3    H241280   2.494   7.244   1.302
 6549TIP3   OH241281   3.581   5.719   1.470
 6549TIP3    H141282   3.513   5.744   1.407
 6549TIP3    H241283   3.602   5.628   1.449
 6550TIP3   OH241284   2.301   7.242   0.888
 6550TIP3    H141285   2.274   7.152   0.908
 6550TIP3    H241286   2.389   7.249   0.926
 6551TIP3   OH241287   2.543   7.213   1.027
 6551TIP3    H141288   2.552   7.121   1.001
 6551TIP3    H241289   2.592   7.220   1.109
 6552TIP3   OH241290   2.903   5.876   0.924
 6552TIP3    H141291   2.845   5.804   0.948
 6552TIP3    H241292   2.979   5.833   0.884
 6553TIP3   OH241293   3.412   5.701   0.897
 6553TIP3    H141294   3.478   5.758   0.855
 6553TIP3    H241295   3.334   5.756   0.902
 6554TIP3   OH241296   3.603   5.811   0.732
 6554TIP3    H141297   3.666   5.743   0.710
 6554TIP3    H241298   3.656   5.888   0.752
 6555TIP3   OH241299   2.150   5.728   0.674
 6555TIP3    H141300   2.057   5.711   0.658
 6555TIP3    H241301   2.192   5.643   0.665
 6556TIP3   OH241302   2.011   5.728   0.232
 6556TIP3    H141303   2.093   5.772   0.207
 6556TIP3    H241304   1.980   5.778   0.308
 6557TIP3   OH241305   2.635   5.696   0.695
 6557TIP3    H141306   2.705   5.749   0.656
 6557TIP3    H241307   2.651   5.700   0.789
 6558TIP3   OH241308   3.129   5.753   0.826
 6558TIP3    H141309   3.165   5.738   0.739
 6558TIP3    H241310   3.110   5.666   0.861
 6559TIP3   OH241311   3.304   5.766   0.419
 6559TIP3    H141312   3.229   5.824   0.431
 6559TIP3    H241313   3.268   5.678   0.431
 6560TIP3   OH241314   2.022  -0.002   0.436
 6560TIP3    H141315   2.022  -0.012   0.341
 6560TIP3    H241316   1.977   0.080   0.452
 6561TIP3   OH241317   2.245   5.854   0.149
 6561TIP3    H141318   2.264   5.898   0.066
 6561TIP3    H241319   2.310   5.890   0.211
 6562TIP3   OH241320   2.720   5.962   0.358
 6562TIP3    H141321   2.758   5.894   0.413
 6562TIP3    H241322   2.737   6.044   0.404
 6563TIP3   OH241323   2.168   5.778   1.644
 6563TIP3    H141324   2.111   5.707   1.672
 6563TIP3    H241325   2.250   5.762   1.690
 6564TIP3   OH241326   3.216   5.681   1.820
 6564TIP3    H141327   3.209   5.652   1.911
 6564TIP3    H241328   3.307   5.664   1.796
 6565TIP3   OH241329   3.508   7.308   1.676
 6565TIP3    H141330   3.423   7.275   1.645
 6565TIP3    H241331   3.543   7.358   1.603
 6566TIP3   OH241332   4.952   6.661   0.670
 6566TIP3    H141333   4.941   6.756   0.664
 6566TIP3    H241334   4.890   6.625   0.607
 6567TIP3   OH241335   4.847   6.596   1.041
 6567TIP3    H141336   4.862   6.546   1.122
 6567TIP3    H241337   4.808   6.533   0.981
 6568TIP3   OH241338   4.056   6.539   1.199
 6568TIP3    H141339   4.060   6.465   1.259
 6568TIP3    H241340   4.146   6.571   1.193
 6569TIP3   OH241341   5.223   6.902   0.874
 6569TIP3    H141342   5.187   6.827   0.922
 6569TIP3    H241343   5.244   6.966   0.942
 6570TIP3   OH241344   4.166   6.977   0.973
 6570TIP3    H141345   4.135   6.889   0.952
 6570TIP3    H241346   4.259   6.966   0.991
 6571TIP3   OH241347   3.837   6.331   0.527
 6571TIP3    H141348   3.811   6.416   0.562
 6571TIP3    H241349   3.775   6.314   0.456
 6572TIP3   OH241350   3.900   6.578   0.821
 6572TIP3    H141351   3.928   6.488   0.839
 6572TIP3    H241352   3.979   6.631   0.832
 6573TIP3   OH241353   4.685   6.824   1.079
 6573TIP3    H141354   4.730   6.750   1.038
 6573TIP3    H241355   4.752   6.863   1.136
 6574TIP3   OH241356   5.563   5.998   1.147
 6574TIP3    H141357   5.561   6.052   1.226
 6574TIP3    H241358   5.628   6.040   1.091
 6575TIP3   OH241359   4.938   6.250   1.062
 6575TIP3    H141360   4.977   6.166   1.088
 6575TIP3    H241361   4.970   6.265   0.974
 6576TIP3   OH241362   4.351   6.075   0.810
 6576TIP3    H141363   4.355   6.159   0.765
 6576TIP3    H241364   4.299   6.020   0.751
 6577TIP3   OH241365   5.133   6.089   0.653
 6577TIP3    H141366   5.176   6.059   0.733
 6577TIP3    H241367   5.201   6.136   0.605
 6578TIP3   OH241368   3.977   6.322   0.890
 6578TIP3    H141369   4.044   6.284   0.947
 6578TIP3    H241370   3.997   6.288   0.803
 6579TIP3   OH241371   4.468   6.461   0.860
 6579TIP3    H141372   4.557   6.429   0.875
 6579TIP3    H241373   4.430   6.400   0.797
 6580TIP3   OH241374   5.546   6.126   1.393
 6580TIP3    H141375   5.487   6.200   1.375
 6580TIP3    H241376   5.600   6.156   1.466
 6581TIP3   OH241377   4.193   5.987   1.224
 6581TIP3    H141378   4.172   6.047   1.153
 6581TIP3    H241379   4.121   5.998   1.287
 6582TIP3   OH241380   4.904   6.914   0.579
 6582TIP3    H141381   4.902   6.927   0.484
 6582TIP3    H241382   4.870   6.996   0.616
 6583TIP3   OH241383   4.473   6.739   1.235
 6583TIP3    H141384   4.414   6.808   1.263
 6583TIP3    H241385   4.541   6.784   1.185
 6584TIP3   OH241386   5.234   6.039   0.901
 6584TIP3    H141387   5.166   6.012   0.963
 6584TIP3    H241388   5.288   6.100   0.951
 6585TIP3   OH241389   4.175   6.162   1.011
 6585TIP3    H141390   4.230   6.218   1.066
 6585TIP3    H241391   4.235   6.128   0.944
 6586TIP3   OH241392   4.301   6.941   1.319
 6586TIP3    H141393   4.309   7.035   1.303
 6586TIP3    H241394   4.212   6.929   1.351
 6587TIP3   OH241395   3.871   6.919   0.398
 6587TIP3    H141396   3.871   6.968   0.316
 6587TIP3    H241397   3.897   6.983   0.464
 6588TIP3   OH241398   5.263   7.121   1.065
 6588TIP3    H141399   5.173   7.123   1.099
 6588TIP3    H241400   5.267   7.196   1.005
 6589TIP3   OH241401   5.270   5.881   1.199
 6589TIP3    H141402   5.190   5.910   1.155
 6589TIP3    H241403   5.294   5.955   1.254
 6590TIP3   OH241404   4.565   5.691   0.976
 6590TIP3    H141405   4.537   5.599   0.972
 6590TIP3    H241406   4.487   5.737   1.008
 6591TIP3   OH241407   5.102   7.238   0.703
 6591TIP3    H141408   5.133   7.158   0.661
 6591TIP3    H241409   5.169   7.259   0.767
 6592TIP3   OH241410   5.221   7.008   0.612
 6592TIP3    H141411   5.206   6.938   0.549
 6592TIP3    H241412   5.224   6.965   0.697
 6593TIP3   OH241413   5.357   6.908   1.435
 6593TIP3    H141414   5.353   6.845   1.363
 6593TIP3    H241415   5.373   6.992   1.393
 6594TIP3   OH241416   4.810   6.589   0.442
 6594TIP3    H141417   4.751   6.660   0.417
 6594TIP3    H241418   4.866   6.577   0.365
 6595TIP3   OH241419   4.790   6.413   0.167
 6595TIP3    H141420   4.878   6.444   0.185
 6595TIP3    H241421   4.789   6.323   0.199
 6596TIP3   OH241422   5.544   6.551   1.264
 6596TIP3    H141423   5.471   6.613   1.260
 6596TIP3    H241424   5.601   6.578   1.192
 6597TIP3   OH241425   5.171   6.608   0.513
 6597TIP3    H141426   5.101   6.626   0.576
 6597TIP3    H241427   5.238   6.563   0.564
 6598TIP3   OH241428   5.135   6.410   1.425
 6598TIP3    H141429   5.147   6.465   1.502
 6598TIP3    H241430   5.064   6.452   1.376
 6599TIP3   OH241431   4.326   6.655   0.707
 6599TIP3    H141432   4.303   6.619   0.621
 6599TIP3    H241433   4.381   6.588   0.747
 6600TIP3   OH241434   4.453   6.943   0.962
 6600TIP3    H141435   4.462   6.959   0.869
 6600TIP3    H241436   4.536   6.902   0.987
 6601TIP3   OH241437   4.328   6.565   1.078
 6601TIP3    H141438   4.380   6.538   1.002
 6601TIP3    H241439   4.383   6.627   1.125
 6602TIP3   OH241440   5.022   7.105   1.198
 6602TIP3    H141441   5.006   7.128   1.289
 6602TIP3    H241442   4.975   7.022   1.185
 6603TIP3   OH241443   4.454   6.978   1.545
 6603TIP3    H141444   4.392   7.039   1.584
 6603TIP3    H241445   4.408   6.944   1.468
 6604TIP3   OH241446   5.039   6.524   0.283
 6604TIP3    H141447   5.081   6.557   0.363
 6604TIP3    H241448   5.091   6.562   0.212
 6605TIP3   OH241449   4.135   6.588   1.529
 6605TIP3    H141450   4.146   6.672   1.574
 6605TIP3    H241451   4.045   6.591   1.496
 6606TIP3   OH241452   4.834   7.174   0.639
 6606TIP3    H141453   4.920   7.206   0.665
 6606TIP3    H241454   4.813   7.223   0.559
 6607TIP3   OH241455   4.257   7.165   1.596
 6607TIP3    H141456   4.252   7.188   1.503
 6607TIP3    H241457   4.166   7.161   1.625
 6608TIP3   OH241458   5.409   5.704   0.265
 6608TIP3    H141459   5.327   5.734   0.303
 6608TIP3    H241460   5.452   5.784   0.234
 6609TIP3   OH241461   4.248   6.578   0.444
 6609TIP3    H141462   4.192   6.646   0.409
 6609TIP3    H241463   4.200   6.496   0.429
 6610TIP3   OH241464   5.530   7.141   0.145
 6610TIP3    H141465   5.555   7.233   0.146
 6610TIP3    H241466   5.612   7.093   0.135
 6611TIP3   OH241467   3.829   6.827   1.374
 6611TIP3    H141468   3.781   6.835   1.292
 6611TIP3    H241469   3.843   6.733   1.385
 6612TIP3   OH241470   3.862   7.103   1.032
 6612TIP3    H141471   3.946   7.060   1.015
 6612TIP3    H241472   3.876   7.152   1.112
 6613TIP3   OH241473   5.613   7.162   1.679
 6613TIP3    H141474   5.603   7.070   1.654
 6613TIP3    H241475   5.524   7.196   1.682
 6614TIP3   OH241476   4.694   7.103   1.511
 6614TIP3    H141477   4.707   7.137   1.599
 6614TIP3    H241478   4.608   7.061   1.514
 6615TIP3   OH241479   5.349   6.315   1.678
 6615TIP3    H141480   5.277   6.377   1.674
 6615TIP3    H241481   5.320   6.248   1.740
 6616TIP3   OH241482   4.056   6.969   1.440
 6616TIP3    H141483   4.078   6.938   1.527
 6616TIP3    H241484   3.974   6.924   1.418
 6617TIP3   OH241485   4.316   5.797   1.061
 6617TIP3    H141486   4.241   5.784   1.004
 6617TIP3    H241487   4.289   5.865   1.122
 6618TIP3   OH241488   4.802   5.762   1.408
 6618TIP3    H141489   4.844   5.715   1.480
 6618TIP3    H241490   4.708   5.748   1.423
 6619TIP3   OH241491   5.112   6.135   1.478
 6619TIP3    H141492   5.048   6.131   1.549
 6619TIP3    H241493   5.126   6.228   1.462
 6620TIP3   OH241494   5.199   6.643   0.093
 6620TIP3    H141495   5.276   6.614   0.044
 6620TIP3    H241496   5.223   6.728   0.129
 6621TIP3   OH241497   4.714   5.929   0.056
 6621TIP3    H141498   4.735   6.004   0.111
 6621TIP3    H241499   4.741   5.853   0.107
 6622TIP3   OH241500   4.319   6.314   1.193
 6622TIP3    H141501   4.250   6.316   1.260
 6622TIP3    H241502   4.322   6.403   1.159
 6623TIP3   OH241503   4.323   6.313   0.677
 6623TIP3    H141504   4.228   6.301   0.673
 6623TIP3    H241505   4.354   6.294   0.588
 6624TIP3   OH241506   4.900   6.347   0.546
 6624TIP3    H141507   4.857   6.426   0.513
 6624TIP3    H241508   4.904   6.288   0.470
 6625TIP3   OH241509   4.804   6.378   1.703
 6625TIP3    H141510   4.761   6.304   1.746
 6625TIP3    H241511   4.891   6.382   1.741
 6626TIP3   OH241512   4.998   6.286   0.795
 6626TIP3    H141513   4.963   6.334   0.720
 6626TIP3    H241514   5.034   6.206   0.757
 6627TIP3   OH241515   4.103   6.315   1.367
 6627TIP3    H141516   4.106   6.354   1.454
 6627TIP3    H241517   4.064   6.229   1.381
 6628TIP3   OH241518   4.404   6.087   0.091
 6628TIP3    H141519   4.470   6.065   0.156
 6628TIP3    H241520   4.381   6.178   0.111
 6629TIP3   OH241521   3.780   6.012   0.757
 6629TIP3    H141522   3.827   6.023   0.840
 6629TIP3    H241523   3.844   6.036   0.690
 6630TIP3   OH241524   3.818   6.118   0.259
 6630TIP3    H141525   3.892   6.154   0.209
 6630TIP3    H241526   3.763   6.194   0.279
 6631TIP3   OH241527   4.884   6.430   1.265
 6631TIP3    H141528   4.915   6.366   1.201
 6631TIP3    H241529   4.847   6.378   1.335
 6632TIP3   OH241530   4.637   6.036   0.767
 6632TIP3    H141531   4.546   6.040   0.798
 6632TIP3    H241532   4.685   5.998   0.840
 6633TIP3   OH241533   4.062   6.223   0.650
 6633TIP3    H141534   3.991   6.250   0.591
 6633TIP3    H241535   4.089   6.138   0.617
 6634TIP3   OH241536   4.367   6.230   0.413
 6634TIP3    H141537   4.459   6.229   0.438
 6634TIP3    H241538   4.364   6.281   0.332
 6635TIP3   OH241539   5.029   5.980   1.088
 6635TIP3    H141540   4.985   5.985   1.174
 6635TIP3    H241541   4.964   5.938   1.031
 6636TIP3   OH241542   4.329   6.346   0.165
 6636TIP3    H141543   4.245   6.352   0.118
 6636TIP3    H241544   4.392   6.390   0.107
 6637TIP3   OH241545   4.145   6.827   1.678
 6637TIP3    H141546   4.201   6.846   1.753
 6637TIP3    H241547   4.057   6.817   1.715
 6638TIP3   OH241548   4.725   6.359   0.917
 6638TIP3    H141549   4.761   6.340   0.831
 6638TIP3    H241550   4.783   6.314   0.978
 6639TIP3   OH241551   4.177   5.966   0.611
 6639TIP3    H141552   4.129   5.885   0.629
 6639TIP3    H241553   4.216   5.953   0.524
 6640TIP3   OH241554   4.581   6.181   1.217
 6640TIP3    H141555   4.532   6.224   1.147
 6640TIP3    H241556   4.669   6.171   1.182
 6641TIP3   OH241557   4.638   6.802   0.360
 6641TIP3    H141558   4.570   6.756   0.312
 6641TIP3    H241559   4.599   6.819   0.446
 6642TIP3   OH241560   5.349   6.741   1.211
 6642TIP3    H141561   5.409   6.796   1.159
 6642TIP3    H241562   5.276   6.723   1.152
 6643TIP3   OH241563   5.099   6.046   0.190
 6643TIP3    H141564   5.004   6.053   0.185
 6643TIP3    H241565   5.126   6.120   0.245
 6644TIP3   OH241566   4.822   6.843   1.517
 6644TIP3    H141567   4.801   6.783   1.588
 6644TIP3    H241568   4.767   6.920   1.534
 6645TIP3   OH241569   5.142   6.266   0.344
 6645TIP3    H141570   5.205   6.280   0.415
 6645TIP3    H241571   5.104   6.352   0.329
 6646TIP3   OH241572   4.140   6.701   0.906
 6646TIP3    H141573   4.201   6.698   0.833
 6646TIP3    H241574   4.184   6.651   0.975
 6647TIP3   OH241575   4.862   6.956   0.298
 6647TIP3    H141576   4.825   7.043   0.310
 6647TIP3    H241577   4.788   6.897   0.310
 6648TIP3   OH241578   3.861   6.564   1.473
 6648TIP3    H141579   3.856   6.526   1.561
 6648TIP3    H241580   3.788   6.525   1.426
 6649TIP3   OH241581   4.603   6.572   1.661
 6649TIP3    H141582   4.532   6.509   1.660
 6649TIP3    H241583   4.681   6.522   1.684
 6650TIP3   OH241584   4.969   7.134   1.473
 6650TIP3    H141585   4.874   7.122   1.466
 6650TIP3    H241586   4.988   7.123   1.566
 6651TIP3   OH241587   5.521   6.317   0.326
 6651TIP3    H141588   5.464   6.287   0.254
 6651TIP3    H241589   5.533   6.410   0.309
 6652TIP3   OH241590   5.583   6.895   1.593
 6652TIP3    H141591   5.493   6.904   1.563
 6652TIP3    H241592   5.634   6.883   1.513
 6653TIP3   OH241593   5.344   7.193   0.361
 6653TIP3    H141594   5.324   7.128   0.429
 6653TIP3    H241595   5.403   7.148   0.301
 6654TIP3   OH241596   5.134   6.674   1.030
 6654TIP3    H141597   5.039   6.667   1.023
 6654TIP3    H241598   5.167   6.595   0.987
 6655TIP3   OH241599   4.402   7.073   0.706
 6655TIP3    H141600   4.439   7.153   0.668
 6655TIP3    H241601   4.308   7.087   0.703
 6656TIP3   OH241602   3.967   6.539   0.187
 6656TIP3    H141603   4.011   6.616   0.223
 6656TIP3    H241604   3.873   6.558   0.196
 6657TIP3   OH241605   4.497   6.842   0.590
 6657TIP3    H141606   4.473   6.927   0.626
 6657TIP3    H241607   4.440   6.780   0.634
 6658TIP3   OH241608   4.576   7.230   1.268
 6658TIP3    H141609   4.581   7.316   1.308
 6658TIP3    H241610   4.635   7.176   1.320
 6659TIP3   OH241611   4.334  -0.007   0.541
 6659TIP3    H141612   4.246   0.012   0.575
 6659TIP3    H241613   4.393   0.035   0.604
 6660TIP3   OH241614   4.902   6.857   1.253
 6660TIP3    H141615   4.871   6.851   1.344
 6660TIP3    H241616   4.976   6.796   1.249
 6661TIP3   OH241617   5.125   6.975   0.182
 6661TIP3    H141618   5.175   6.931   0.251
 6661TIP3    H241619   5.034   6.968   0.211
 6662TIP3   OH241620   5.184   7.301   1.455
 6662TIP3    H141621   5.110   7.241   1.462
 6662TIP3    H241622   5.148   7.379   1.413
 6663TIP3   OH241623   3.989   6.053   1.402
 6663TIP3    H141624   3.897   6.073   1.387
 6663TIP3    H241625   3.987   5.979   1.463
 6664TIP3   OH241626   5.262   6.829   0.376
 6664TIP3    H141627   5.223   6.752   0.418
 6664TIP3    H241628   5.356   6.821   0.393
 6665TIP3   OH241629   3.997   7.226   1.248
 6665TIP3    H141630   4.007   7.166   1.322
 6665TIP3    H241631   3.940   7.296   1.282
 6666TIP3   OH241632   4.426   7.063   0.267
 6666TIP3    H141633   4.497   7.010   0.303
 6666TIP3    H241634   4.454   7.154   0.280
 6667TIP3   OH241635   4.081   6.760   0.318
 6667TIP3    H141636   4.005   6.799   0.361
 6667TIP3    H241637   4.124   6.833   0.274
 6668TIP3   OH241638   4.904   6.007   1.327
 6668TIP3    H141639   4.966   6.036   1.393
 6668TIP3    H241640   4.864   5.928   1.363
 6669TIP3   OH241641   4.968   5.943   0.485
 6669TIP3    H141642   4.930   6.000   0.419
 6669TIP3    H241643   5.020   6.001   0.540
 6670TIP3   OH241644   4.750   7.208   0.333
 6670TIP3    H141645   4.662   7.244   0.339
 6670TIP3    H241646   4.792   7.257   0.262
 6671TIP3   OH241647   4.609   6.208   0.535
 6671TIP3    H141648   4.679   6.193   0.471
 6671TIP3    H241649   4.637   6.158   0.612
 6672TIP3   OH241650   4.764   6.268   1.456
 6672TIP3    H141651   4.786   6.308   1.540
 6672TIP3    H241652   4.799   6.180   1.462
 6673TIP3   OH241653   4.726   5.851   0.583
 6673TIP3    H141654   4.700   5.920   0.643
 6673TIP3    H241655   4.811   5.878   0.550
 6674TIP3   OH241656   4.499  -0.015   0.327
 6674TIP3    H141657   4.510   0.078   0.308
 6674TIP3    H241658   4.435  -0.018   0.397
 6675TIP3   OH241659   4.300   5.965   0.358
 6675TIP3    H141660   4.308   6.060   0.371
 6675TIP3    H241661   4.391   5.934   0.355
 6676TIP3   OH241662   5.319   5.950   1.497
 6676TIP3    H141663   5.244   6.008   1.496
 6676TIP3    H241664   5.394   6.008   1.514
 6677TIP3   OH241665   5.209   6.427   0.913
 6677TIP3    H141666   5.133   6.381   0.877
 6677TIP3    H241667   5.255   6.360   0.963
 6678TIP3   OH241668   4.174   6.987   0.182
 6678TIP3    H141669   4.243   7.034   0.229
 6678TIP3    H241670   4.220   6.936   0.116
 6679TIP3   OH241671   3.988   6.279   0.106
 6679TIP3    H141672   3.985   6.370   0.136
 6679TIP3    H241673   3.975   6.284   0.012
 6680TIP3   OH241674   4.064   5.769   0.946
 6680TIP3    H141675   4.055   5.760   0.852
 6680TIP3    H241676   4.029   5.688   0.982
 6681TIP3   OH241677   3.936   7.114   0.584
 6681TIP3    H141678   3.890   7.142   0.663
 6681TIP3    H241679   3.930   7.189   0.525
 6682TIP3   OH241680   4.386   7.260   1.815
 6682TIP3    H141681   4.412   7.183   1.866
 6682TIP3    H241682   4.340   7.224   1.739
 6683TIP3   OH241683   4.854   7.340   0.111
 6683TIP3    H141684   4.810   7.292   0.041
 6683TIP3    H241685   4.947   7.334   0.089
 6684TIP3   OH241686   5.006   7.123   1.743
 6684TIP3    H141687   4.976   7.048   1.794
 6684TIP3    H241688   5.076   7.161   1.795
 6685TIP3   OH241689   5.258   7.165   0.026
 6685TIP3    H141690   5.206   7.114   0.089
 6685TIP3    H241691   5.348   7.157   0.057
 6686TIP3   OH241692   3.892   6.779   1.755
 6686TIP3    H141693   3.874   6.687   1.774
 6686TIP3    H241694   3.807   6.815   1.729
 6687TIP3   OH241695   4.328   6.813   0.041
 6687TIP3    H141696   4.369   6.770   0.116
 6687TIP3    H241697   4.357   6.760  -0.034
 6688TIP3   OH241698   4.600   6.840   1.734
 6688TIP3    H141699   4.543   6.875   1.665
 6688TIP3    H241700   4.602   6.746   1.719
 6689TIP3   OH241701   5.108   6.787   1.500
 6689TIP3    H141702   5.181   6.847   1.489
 6689TIP3    H241703   5.032   6.843   1.512
 6690TIP3   OH241704   3.935   6.490   1.748
 6690TIP3    H141705   4.028   6.491   1.725
 6690TIP3    H241706   3.931   6.442   1.830
 6691TIP3   OH241707   4.437   6.651   0.240
 6691TIP3    H141708   4.383   6.617   0.311
 6691TIP3    H241709   4.474   6.574   0.197
 6692TIP3   OH241710   4.381   6.473   1.486
 6692TIP3    H141711   4.292   6.497   1.509
 6692TIP3    H241712   4.423   6.555   1.459
 6693TIP3   OH241713   4.548   6.461   0.041
 6693TIP3    H141714   4.562   6.412  -0.040
 6693TIP3    H241715   4.631   6.455   0.088
 6694TIP3   OH241716   4.880   6.669   1.865
 6694TIP3    H141717   4.968   6.637   1.883
 6694TIP3    H241718   4.827   6.633   1.936
 6695TIP3   OH241719   5.462   6.749   0.022
 6695TIP3    H141720   5.449   6.757  -0.072
 6695TIP3    H241721   5.482   6.838   0.051
 6696TIP3   OH241722   4.439   6.169   1.560
 6696TIP3    H141723   4.420   6.084   1.519
 6696TIP3    H241724   4.358   6.192   1.606
 6697TIP3   OH241725   4.435   5.982   1.350
 6697TIP3    H141726   4.490   6.041   1.297
 6697TIP3    H241727   4.350   5.984   1.307
 6698TIP3   OH241728   4.609   6.507   1.304
 6698TIP3    H141729   4.703   6.522   1.294
 6698TIP3    H241730   4.569   6.591   1.282
 6699TIP3   OH241731   5.051   6.330   1.826
 6699TIP3    H141732   5.052   6.254   1.885
 6699TIP3    H241733   5.086   6.401   1.879
 6700TIP3   OH241734   5.201   6.573   1.640
 6700TIP3    H141735   5.155   6.647   1.601
 6700TIP3    H241736   5.294   6.595   1.630
 6701TIP3   OH241737   4.218   6.242   1.706
 6701TIP3    H141738   4.149   6.177   1.724
 6701TIP3    H241739   4.254   6.263   1.792
 6702TIP3   OH241740   4.527   5.729   1.404
 6702TIP3    H141741   4.493   5.817   1.386
 6702TIP3    H241742   4.467   5.670   1.358
 6703TIP3   OH241743   4.674   6.151   1.781
 6703TIP3    H141744   4.687   6.113   1.868
 6703TIP3    H241745   4.583   6.129   1.758
 6704TIP3   OH241746   4.894   6.067   1.632
 6704TIP3    H141747   4.816   6.092   1.682
 6704TIP3    H241748   4.946   6.015   1.693
 6705TIP3   OH241749   5.043   5.939   1.825
 6705TIP3    H141750   5.060   5.858   1.873
 6705TIP3    H241751   5.052   6.008   1.891
 6706TIP3   OH241752   4.040   6.035   1.756
 6706TIP3    H141753   4.040   5.956   1.702
 6706TIP3    H241754   4.065   6.005   1.843
 6707TIP3   OH241755   4.508   5.664   1.668
 6707TIP3    H141756   4.565   5.587   1.674
 6707TIP3    H241757   4.509   5.687   1.575
 6708TIP3   OH241758   4.570   5.835   1.874
 6708TIP3    H141759   4.552   5.781   1.796
 6708TIP3    H241760   4.497   5.896   1.878
 6709TIP3   OH241761   3.902   7.018   0.133
 6709TIP3    H141762   3.996   7.024   0.151
 6709TIP3    H241763   3.897   6.989   0.042
 6710TIP3   OH241764   3.828   7.299   0.824
 6710TIP3    H141765   3.816   7.228   0.887
 6710TIP3    H241766   3.878   7.365   0.872
 6711TIP3   OH241767   5.378   6.953   1.880
 6711TIP3    H141768   5.295   6.955   1.928
 6711TIP3    H241769   5.421   7.035   1.904
 6712TIP3   OH241770   5.525   6.775   0.437
 6712TIP3    H141771   5.599   6.836   0.432
 6712TIP3    H241772   5.551   6.712   0.505
 6713TIP3   OH241773   5.593   6.572   0.613
 6713TIP3    H141774   5.510   6.538   0.646
 6713TIP3    H241775   5.647   6.583   0.692
 6714TIP3   OH241776   5.583   6.872   1.123
 6714TIP3    H141777   5.634   6.802   1.083
 6714TIP3    H241778   5.614   6.952   1.080
 6715TIP3   OH241779   5.382   7.161   1.319
 6715TIP3    H141780   5.304   7.203   1.357
 6715TIP3    H241781   5.358   7.145   1.228
 6716TIP3   OH241782   5.536   6.579   0.246
 6716TIP3    H141783   5.515   6.624   0.164
 6716TIP3    H241784   5.529   6.646   0.313
 6717TIP3   OH241785   5.387   6.252   0.093
 6717TIP3    H141786   5.459   6.277   0.036
 6717TIP3    H241787   5.354   6.170   0.055
 6718TIP3   OH241788   5.345   6.456   0.671
 6718TIP3    H141789   5.347   6.365   0.642
 6718TIP3    H241790   5.304   6.452   0.758
 6719TIP3   OH241791   3.828   6.631   1.081
 6719TIP3    H141792   3.841   6.617   0.987
 6719TIP3    H241793   3.911   6.607   1.121
 6720TIP3   OH241794   5.464   6.631   1.619
 6720TIP3    H141795   5.523   6.556   1.613
 6720TIP3    H241796   5.517   6.706   1.591
 6721TIP3   OH241797   5.609   6.397   1.636
 6721TIP3    H141798   5.521   6.366   1.656
 6721TIP3    H241799   5.665   6.320   1.643
 6722TIP3   OH241800   5.311   5.991   0.020
 6722TIP3    H141801   5.381   5.965   0.080
 6722TIP3    H241802   5.234   6.001   0.077
 6723TIP3   OH241803   5.358   6.209   0.528
 6723TIP3    H141804   5.380   6.115   0.522
 6723TIP3    H241805   5.417   6.251   0.466
 6724TIP3   OH241806   5.358   6.236   1.053
 6724TIP3    H141807   5.451   6.242   1.033
 6724TIP3    H241808   5.352   6.260   1.146
 6725TIP3   OH241809   5.379   6.330   1.314
 6725TIP3    H141810   5.299   6.360   1.357
 6725TIP3    H241811   5.432   6.410   1.305
 6726TIP3   OH241812   3.807   6.150   1.661
 6726TIP3    H141813   3.893   6.137   1.699
 6726TIP3    H241814   3.763   6.065   1.672
 6727TIP3   OH241815   5.577   5.704   1.792
 6727TIP3    H141816   5.656   5.651   1.788
 6727TIP3    H241817   5.588   5.757   1.872
 6728TIP3   OH241818   5.402   5.933   0.508
 6728TIP3    H141819   5.419   5.887   0.590
 6728TIP3    H241820   5.328   5.887   0.470
 6729TIP3   OH241821   3.931   6.011   0.989
 6729TIP3    H141822   3.972   5.925   0.985
 6729TIP3    H241823   4.005   6.072   0.998
 6730TIP3   OH241824   3.744   6.294   1.048
 6730TIP3    H141825   3.816   6.293   0.985
 6730TIP3    H241826   3.763   6.367   1.106
 6731TIP3   OH241827   5.559   5.964   1.697
 6731TIP3    H141828   5.557   5.976   1.792
 6731TIP3    H241829   5.565   5.869   1.685
 6732TIP3   OH241830   5.546   5.919   0.151
 6732TIP3    H141831   5.604   5.889   0.081
 6732TIP3    H241832   5.596   5.987   0.196
 6733TIP3   OH241833   3.801   5.902   0.431
 6733TIP3    H141834   3.711   5.911   0.461
 6733TIP3    H241835   3.819   5.983   0.383
 6734TIP3   OH241836   3.802   5.781   1.304
 6734TIP3    H141837   3.730   5.764   1.365
 6734TIP3    H241838   3.768   5.846   1.243
 6735TIP3   OH241839   4.008   7.165   1.718
 6735TIP3    H141840   3.913   7.158   1.710
 6735TIP3    H241841   4.029   7.119   1.800
 6736TIP3   OH241842   4.300   7.224   1.325
 6736TIP3    H141843   4.239   7.257   1.258
 6736TIP3    H241844   4.386   7.236   1.286
 6737TIP3   OH241845   5.464   5.745   1.386
 6737TIP3    H141846   5.407   5.808   1.430
 6737TIP3    H241847   5.452   5.664   1.434
 6738TIP3   OH241848   4.195   7.241   0.889
 6738TIP3    H141849   4.169   7.152   0.913
 6738TIP3    H241850   4.282   7.251   0.926
 6739TIP3   OH241851   4.444   7.208   1.028
 6739TIP3    H141852   4.447   7.116   1.002
 6739TIP3    H241853   4.495   7.213   1.108
 6740TIP3   OH241854   4.801   5.871   0.933
 6740TIP3    H141855   4.737   5.802   0.950
 6740TIP3    H241856   4.876   5.826   0.895
 6741TIP3   OH241857   5.328   5.731   0.948
 6741TIP3    H141858   5.378   5.771   0.877
 6741TIP3    H241859   5.238   5.757   0.931
 6742TIP3   OH241860   5.487   5.797   0.737
 6742TIP3    H141861   5.552   5.733   0.707
 6742TIP3    H241862   5.537   5.877   0.753
 6743TIP3   OH241863   4.034   5.732   0.673
 6743TIP3    H141864   3.941   5.718   0.652
 6743TIP3    H241865   4.075   5.647   0.660
 6744TIP3   OH241866   3.917   5.725   0.246
 6744TIP3    H141867   3.993   5.773   0.213
 6744TIP3    H241868   3.881   5.782   0.315
 6745TIP3   OH241869   4.519   5.688   0.690
 6745TIP3    H141870   4.585   5.744   0.651
 6745TIP3    H241871   4.535   5.694   0.784
 6746TIP3   OH241872   5.049   5.760   0.848
 6746TIP3    H141873   5.063   5.760   0.753
 6746TIP3    H241874   5.023   5.670   0.868
 6747TIP3   OH241875   5.186   5.777   0.416
 6747TIP3    H141876   5.112   5.837   0.423
 6747TIP3    H241877   5.149   5.690   0.427
 6748TIP3   OH241878   3.904  -0.007   0.430
 6748TIP3    H141879   3.914  -0.015   0.335
 6748TIP3    H241880   3.863   0.078   0.443
 6749TIP3   OH241881   4.136   5.863   0.149
 6749TIP3    H141882   4.169   5.905   0.069
 6749TIP3    H241883   4.188   5.900   0.220
 6750TIP3   OH241884   4.572   5.915   0.351
 6750TIP3    H141885   4.609   5.879   0.431
 6750TIP3    H241886   4.634   5.982   0.324
 6751TIP3   OH241887   4.042   5.784   1.626
 6751TIP3    H141888   3.983   5.719   1.664
 6751TIP3    H241889   4.127   5.765   1.668
 6752TIP3   OH241890   4.260   5.709   1.785
 6752TIP3    H141891   4.345   5.696   1.743
 6752TIP3    H241892   4.243   5.628   1.832
 6753TIP3   OH241893   5.121   5.610   1.876
 6753TIP3    H141894   5.155   5.626   1.964
 6753TIP3    H241895   5.190   5.639   1.817
 6754TIP3   OH241896   5.368   7.293   1.673
 6754TIP3    H141897   5.303   7.275   1.605
 6754TIP3    H241898   5.398   7.382   1.655
 6755TIP3   OH241899   6.842   6.670   0.665
 6755TIP3    H141900   6.836   6.766   0.661
 6755TIP3    H241901   6.775   6.640   0.603
 6756TIP3   OH241902   6.720   6.587   1.046
 6756TIP3    H141903   6.743   6.550   1.131
 6756TIP3    H241904   6.669   6.518   1.003
 6757TIP3   OH241905   5.941   6.522   1.193
 6757TIP3    H141906   5.951   6.457   1.262
 6757TIP3    H241907   6.030   6.549   1.173
 6758TIP3   OH241908   7.099   6.905   0.878
 6758TIP3    H141909   7.066   6.829   0.925
 6758TIP3    H241910   7.118   6.969   0.947
 6759TIP3   OH241911   6.049   6.977   0.977
 6759TIP3    H141912   6.020   6.889   0.955
 6759TIP3    H241913   6.142   6.968   0.995
 6760TIP3   OH241914   5.717   6.326   0.534
 6760TIP3    H141915   5.699   6.415   0.564
 6760TIP3    H241916   5.655   6.312   0.462
 6761TIP3   OH241917   5.785   6.575   0.817
 6761TIP3    H141918   5.814   6.486   0.836
 6761TIP3    H241919   5.865   6.627   0.820
 6762TIP3   OH241920   6.569   6.825   1.078
 6762TIP3    H141921   6.608   6.746   1.041
 6762TIP3    H241922   6.635   6.858   1.138
 6763TIP3   OH241923   6.890   6.256   1.079
 6763TIP3    H141924   6.899   6.162   1.091
 6763TIP3    H241925   6.869   6.267   0.986
 6764TIP3   OH241926   6.226   6.071   0.806
 6764TIP3    H141927   6.231   6.158   0.766
 6764TIP3    H241928   6.172   6.019   0.746
 6765TIP3   OH241929   6.985   6.108   0.652
 6765TIP3    H141930   7.029   6.065   0.726
 6765TIP3    H241931   7.057   6.139   0.597
 6766TIP3   OH241932   5.863   6.320   0.892
 6766TIP3    H141933   5.930   6.284   0.950
 6766TIP3    H241934   5.886   6.287   0.805
 6767TIP3   OH241935   6.346   6.467   0.864
 6767TIP3    H141936   6.431   6.431   0.889
 6767TIP3    H241937   6.311   6.403   0.801
 6768TIP3   OH241938   6.087   5.985   1.236
 6768TIP3    H141939   6.061   6.048   1.169
 6768TIP3    H241940   6.017   5.989   1.301
 6769TIP3   OH241941   6.835   6.931   0.570
 6769TIP3    H141942   6.810   6.931   0.477
 6769TIP3    H241943   6.779   6.999   0.609
 6770TIP3   OH241944   6.346   6.751   1.226
 6770TIP3    H141945   6.293   6.823   1.260
 6770TIP3    H241946   6.418   6.794   1.180
 6771TIP3   OH241947   7.093   6.006   0.882
 6771TIP3    H141948   7.019   5.984   0.938
 6771TIP3    H241949   7.152   6.056   0.938
 6772TIP3   OH241950   6.060   6.157   1.016
 6772TIP3    H141951   6.115   6.214   1.069
 6772TIP3    H241952   6.118   6.123   0.948
 6773TIP3   OH241953   6.182   6.955   1.324
 6773TIP3    H141954   6.185   7.050   1.309
 6773TIP3    H241955   6.093   6.938   1.353
 6774TIP3   OH241956   5.741   6.940   0.408
 6774TIP3    H141957   5.750   6.983   0.323
 6774TIP3    H241958   5.778   7.003   0.471
 6775TIP3   OH241959   7.129   7.109   1.072
 6775TIP3    H141960   7.041   7.105   1.111
 6775TIP3    H241961   7.134   7.197   1.035
 6776TIP3   OH241962   7.154   5.875   1.152
 6776TIP3    H141963   7.061   5.896   1.140
 6776TIP3    H241964   7.198   5.960   1.143
 6777TIP3   OH241965   6.446   5.681   0.982
 6777TIP3    H141966   6.418   5.590   0.981
 6777TIP3    H241967   6.370   5.730   1.012
 6778TIP3   OH241968   6.980   7.235   0.683
 6778TIP3    H141969   6.995   7.143   0.704
 6778TIP3    H241970   7.057   7.260   0.631
 6779TIP3   OH241971   7.104   6.989   0.613
 6779TIP3    H141972   7.018   6.955   0.589
 6779TIP3    H241973   7.122   6.951   0.699
 6780TIP3   OH241974   7.226   6.888   1.452
 6780TIP3    H141975   7.216   6.833   1.374
 6780TIP3    H241976   7.260   6.971   1.419
 6781TIP3   OH241977   6.706   6.592   0.435
 6781TIP3    H141978   6.637   6.656   0.415
 6781TIP3    H241979   6.762   6.593   0.358
 6782TIP3   OH241980   6.740   6.399   0.131
 6782TIP3    H141981   6.803   6.448   0.184
 6782TIP3    H241982   6.793   6.335   0.084
 6783TIP3   OH241983   7.057   6.622   0.503
 6783TIP3    H141984   6.988   6.646   0.565
 6783TIP3    H241985   7.115   6.565   0.553
 6784TIP3   OH241986   7.021   6.405   1.432
 6784TIP3    H141987   7.013   6.464   1.507
 6784TIP3    H241988   6.951   6.432   1.372
 6785TIP3   OH241989   6.219   6.668   0.716
 6785TIP3    H141990   6.179   6.629   0.638
 6785TIP3    H241991   6.269   6.597   0.755
 6786TIP3   OH241992   6.341   6.947   0.959
 6786TIP3    H141993   6.350   6.952   0.864
 6786TIP3    H241994   6.421   6.904   0.988
 6787TIP3   OH241995   6.202   6.567   1.081
 6787TIP3    H141996   6.258   6.541   1.008
 6787TIP3    H241997   6.255   6.631   1.130
 6788TIP3   OH241998   6.890   7.097   1.201
 6788TIP3    H141999   6.885   7.129   1.291
 6788TIP3    H242000   6.844   7.013   1.203
 6789TIP3   OH242001   6.339   7.002   1.548
 6789TIP3    H142002   6.280   7.063   1.593
 6789TIP3    H242003   6.287   6.970   1.474
 6790TIP3   OH242004   6.942   6.538   0.270
 6790TIP3    H142005   6.981   6.571   0.351
 6790TIP3    H242006   6.991   6.583   0.201
 6791TIP3   OH242007   6.035   6.588   1.494
 6791TIP3    H142008   6.040   6.666   1.549
 6791TIP3    H242009   5.942   6.579   1.473
 6792TIP3   OH242010   6.708   7.168   0.629
 6792TIP3    H142011   6.790   7.214   0.647
 6792TIP3    H242012   6.682   7.199   0.542
 6793TIP3   OH242013   6.128   7.183   1.611
 6793TIP3    H142014   6.118   7.191   1.516
 6793TIP3    H242015   6.041   7.156   1.641
 6794TIP3   OH242016   7.248   5.682   0.198
 6794TIP3    H142017   7.189   5.705   0.270
 6794TIP3    H242018   7.336   5.697   0.233
 6795TIP3   OH242019   6.094   6.571   0.489
 6795TIP3    H142020   6.049   6.650   0.459
 6795TIP3    H242021   6.099   6.515   0.412
 6796TIP3   OH242022   5.719   6.831   1.368
 6796TIP3    H142023   5.672   6.839   1.285
 6796TIP3    H242024   5.738   6.737   1.375
 6797TIP3   OH242025   5.762   7.098   1.026
 6797TIP3    H142026   5.842   7.051   1.004
 6797TIP3    H242027   5.781   7.140   1.110
 6798TIP3   OH242028   6.586   7.119   1.518
 6798TIP3    H142029   6.596   7.157   1.605
 6798TIP3    H242030   6.502   7.074   1.521
 6799TIP3   OH242031   7.180   6.315   1.710
 6799TIP3    H142032   7.167   6.389   1.651
 6799TIP3    H242033   7.253   6.266   1.671
 6800TIP3   OH242034   5.934   6.982   1.447
 6800TIP3    H142035   5.962   6.937   1.526
 6800TIP3    H242036   5.858   6.934   1.416
 6801TIP3   OH242037   6.200   5.791   1.069
 6801TIP3    H142038   6.123   5.783   1.012
 6801TIP3    H242039   6.179   5.864   1.127
 6802TIP3   OH242040   6.674   5.764   1.404
 6802TIP3    H142041   6.720   5.722   1.476
 6802TIP3    H242042   6.582   5.760   1.429
 6803TIP3   OH242043   6.984   6.130   1.487
 6803TIP3    H142044   6.923   6.125   1.562
 6803TIP3    H242045   6.998   6.224   1.475
 6804TIP3   OH242046   7.085   6.682   0.082
 6804TIP3    H142047   7.119   6.719   0.001
 6804TIP3    H242048   7.123   6.736   0.151
 6805TIP3   OH242049   6.688   5.987   0.142
 6805TIP3    H142050   6.615   5.985   0.203
 6805TIP3    H242051   6.647   5.988   0.055
 6806TIP3   OH242052   6.207   6.310   1.190
 6806TIP3    H142053   6.147   6.313   1.266
 6806TIP3    H242054   6.212   6.401   1.161
 6807TIP3   OH242055   6.214   6.310   0.675
 6807TIP3    H142056   6.118   6.312   0.671
 6807TIP3    H242057   6.242   6.297   0.585
 6808TIP3   OH242058   6.757   6.342   0.542
 6808TIP3    H142059   6.734   6.429   0.510
 6808TIP3    H242060   6.828   6.313   0.485
 6809TIP3   OH242061   6.694   6.372   1.668
 6809TIP3    H142062   6.721   6.288   1.705
 6809TIP3    H242063   6.759   6.434   1.701
 6810TIP3   OH242064   6.847   6.291   0.810
 6810TIP3    H142065   6.805   6.348   0.746
 6810TIP3    H242066   6.886   6.221   0.758
 6811TIP3   OH242067   5.996   6.306   1.377
 6811TIP3    H142068   6.019   6.342   1.463
 6811TIP3    H242069   5.954   6.222   1.396
 6812TIP3   OH242070   6.383   6.053   0.092
 6812TIP3    H142071   6.405   6.016   0.177
 6812TIP3    H242072   6.347   6.139   0.111
 6813TIP3   OH242073   5.657   6.004   0.767
 6813TIP3    H142074   5.709   6.016   0.847
 6813TIP3    H242075   5.701   6.058   0.702
 6814TIP3   OH242076   5.709   6.117   0.262
 6814TIP3    H142077   5.777   6.158   0.209
 6814TIP3    H242078   5.652   6.190   0.288
 6815TIP3   OH242079   6.800   6.435   1.264
 6815TIP3    H142080   6.835   6.372   1.201
 6815TIP3    H242081   6.736   6.385   1.315
 6816TIP3   OH242082   6.508   6.031   0.760
 6816TIP3    H142083   6.418   6.040   0.792
 6816TIP3    H242084   6.557   5.999   0.836
 6817TIP3   OH242085   5.947   6.222   0.652
 6817TIP3    H142086   5.877   6.251   0.594
 6817TIP3    H242087   5.973   6.136   0.618
 6818TIP3   OH242088   6.286   6.231   0.420
 6818TIP3    H142089   6.379   6.229   0.442
 6818TIP3    H242090   6.283   6.268   0.332
 6819TIP3   OH242091   6.889   5.973   1.078
 6819TIP3    H142092   6.855   5.984   1.167
 6819TIP3    H242093   6.814   5.943   1.027
 6820TIP3   OH242094   6.271   6.298   0.154
 6820TIP3    H142095   6.193   6.352   0.138
 6820TIP3    H242096   6.344   6.350   0.120
 6821TIP3   OH242097   6.020   6.818   1.662
 6821TIP3    H142098   6.092   6.811   1.725
 6821TIP3    H242099   5.941   6.825   1.716
 6822TIP3   OH242100   6.581   6.348   0.963
 6822TIP3    H142101   6.653   6.298   0.925
 6822TIP3    H242102   6.552   6.295   1.037
 6823TIP3   OH242103   6.059   5.964   0.605
 6823TIP3    H142104   6.011   5.883   0.624
 6823TIP3    H242105   6.097   5.949   0.518
 6824TIP3   OH242106   6.472   6.213   1.191
 6824TIP3    H142107   6.389   6.261   1.197
 6824TIP3    H242108   6.523   6.245   1.265
 6825TIP3   OH242109   6.525   6.800   0.373
 6825TIP3    H142110   6.462   6.741   0.331
 6825TIP3    H242111   6.488   6.819   0.459
 6826TIP3   OH242112   7.219   6.747   1.213
 6826TIP3    H142113   7.283   6.718   1.149
 6826TIP3    H242114   7.134   6.732   1.171
 6827TIP3   OH242115   6.949   6.036   0.215
 6827TIP3    H142116   6.862   6.023   0.176
 6827TIP3    H242117   6.947   6.126   0.248
 6828TIP3   OH242118   6.710   6.852   1.531
 6828TIP3    H142119   6.696   6.789   1.602
 6828TIP3    H242120   6.656   6.927   1.554
 6829TIP3   OH242121   6.968   6.274   0.363
 6829TIP3    H142122   7.055   6.258   0.400
 6829TIP3    H242123   6.974   6.362   0.325
 6830TIP3   OH242124   6.025   6.706   0.907
 6830TIP3    H142125   6.087   6.707   0.834
 6830TIP3    H242126   6.069   6.657   0.976
 6831TIP3   OH242127   6.746   6.956   0.306
 6831TIP3    H142128   6.711   7.044   0.317
 6831TIP3    H242129   6.670   6.898   0.317
 6832TIP3   OH242130   5.746   6.562   1.458
 6832TIP3    H142131   5.721   6.503   1.530
 6832TIP3    H242132   5.683   6.541   1.388
 6833TIP3   OH242133   6.484   6.563   1.620
 6833TIP3    H142134   6.407   6.506   1.621
 6833TIP3    H242135   6.555   6.507   1.650
 6834TIP3   OH242136   6.864   7.153   1.472
 6834TIP3    H142137   6.770   7.136   1.474
 6834TIP3    H242138   6.895   7.125   1.558
 6835TIP3   OH242139   7.271   7.167   0.381
 6835TIP3    H142140   7.229   7.104   0.440
 6835TIP3    H242141   7.295   7.115   0.304
 6836TIP3   OH242142   7.004   6.676   1.034
 6836TIP3    H142143   6.909   6.664   1.028
 6836TIP3    H242144   7.040   6.599   0.990
 6837TIP3   OH242145   6.264   7.073   0.685
 6837TIP3    H142146   6.275   7.156   0.639
 6837TIP3    H242147   6.170   7.061   0.691
 6838TIP3   OH242148   5.775   6.577   0.090
 6838TIP3    H142149   5.870   6.580   0.106
 6838TIP3    H242150   5.736   6.577   0.177
 6839TIP3   OH242151   6.401   6.849   0.609
 6839TIP3    H142152   6.363   6.934   0.632
 6839TIP3    H242153   6.340   6.785   0.646
 6840TIP3   OH242154   6.464   7.224   1.273
 6840TIP3    H142155   6.484   7.313   1.301
 6840TIP3    H242156   6.522   7.169   1.326
 6841TIP3   OH242157   6.224  -0.014   0.553
 6841TIP3    H142158   6.137   0.010   0.584
 6841TIP3    H242159   6.284   0.034   0.610
 6842TIP3   OH242160   6.777   6.851   1.263
 6842TIP3    H142161   6.747   6.848   1.354
 6842TIP3    H242162   6.851   6.790   1.261
 6843TIP3   OH242163   7.009   6.988   0.193
 6843TIP3    H142164   7.062   6.928   0.246
 6843TIP3    H242165   6.920   6.976   0.223
 6844TIP3   OH242166   7.118   7.289   1.461
 6844TIP3    H142167   7.045   7.227   1.465
 6844TIP3    H242168   7.078   7.375   1.464
 6845TIP3   OH242169   5.884   6.005   1.431
 6845TIP3    H142170   5.829   6.061   1.485
 6845TIP3    H242171   5.909   5.933   1.489
 6846TIP3   OH242172   7.172   6.804   0.326
 6846TIP3    H142173   7.134   6.750   0.395
 6846TIP3    H242174   7.258   6.829   0.361
 6847TIP3   OH242175   5.862   7.210   1.257
 6847TIP3    H142176   5.883   7.155   1.333
 6847TIP3    H242177   5.824   7.289   1.294
 6848TIP3   OH242178   6.304   7.058   0.275
 6848TIP3    H142179   6.369   6.998   0.310
 6848TIP3    H242180   6.340   7.145   0.292
 6849TIP3   OH242181   5.969   6.786   0.375
 6849TIP3    H142182   5.884   6.824   0.396
 6849TIP3    H242183   6.004   6.841   0.306
 6850TIP3   OH242184   6.792   6.006   1.329
 6850TIP3    H142185   6.859   6.033   1.392
 6850TIP3    H242186   6.753   5.928   1.367
 6851TIP3   OH242187   6.858   5.940   0.469
 6851TIP3    H142188   6.878   5.978   0.383
 6851TIP3    H242189   6.893   6.003   0.532
 6852TIP3   OH242190   6.645   7.213   0.356
 6852TIP3    H142191   6.555   7.245   0.352
 6852TIP3    H242192   6.688   7.251   0.279
 6853TIP3   OH242193   6.539   6.174   0.522
 6853TIP3    H142194   6.613   6.234   0.528
 6853TIP3    H242195   6.529   6.140   0.611
 6854TIP3   OH242196   6.643   6.262   1.410
 6854TIP3    H142197   6.651   6.294   1.500
 6854TIP3    H242198   6.683   6.174   1.412
 6855TIP3   OH242199   6.618   5.848   0.577
 6855TIP3    H142200   6.591   5.918   0.637
 6855TIP3    H242201   6.701   5.878   0.542
 6856TIP3   OH242202   6.389  -0.023   0.335
 6856TIP3    H142203   6.398   0.070   0.314
 6856TIP3    H242204   6.326  -0.025   0.407
 6857TIP3   OH242205   6.194   5.974   0.351
 6857TIP3    H142206   6.199   6.068   0.369
 6857TIP3    H242207   6.285   5.944   0.350
 6858TIP3   OH242208   7.229   6.007   1.446
 6858TIP3    H142209   7.138   6.031   1.464
 6858TIP3    H242210   7.279   6.088   1.459
 6859TIP3   OH242211   7.082   6.424   0.920
 6859TIP3    H142212   6.997   6.392   0.891
 6859TIP3    H242213   7.106   6.367   0.993
 6860TIP3   OH242214   6.057   6.979   0.182
 6860TIP3    H142215   6.126   7.022   0.232
 6860TIP3    H242216   6.102   6.935   0.110
 6861TIP3   OH242217   5.856   6.286   0.094
 6861TIP3    H142218   5.924   6.353   0.097
 6861TIP3    H242219   5.782   6.330   0.051
 6862TIP3   OH242220   5.949   5.764   0.949
 6862TIP3    H142221   5.941   5.758   0.854
 6862TIP3    H242222   5.908   5.684   0.982
 6863TIP3   OH242223   5.833   7.127   0.597
 6863TIP3    H142224   5.776   7.149   0.670
 6863TIP3    H242225   5.819   7.197   0.533
 6864TIP3   OH242226   6.757   7.303   0.126
 6864TIP3    H142227   6.707   7.267   0.053
 6864TIP3    H242228   6.834   7.343   0.084
 6865TIP3   OH242229   6.935   7.080   1.721
 6865TIP3    H142230   6.875   7.030   1.777
 6865TIP3    H242231   6.994   7.123   1.782
 6866TIP3   OH242232   7.112   7.146  -0.010
 6866TIP3    H142233   7.074   7.092   0.060
 6866TIP3    H242234   7.146   7.223   0.036
 6867TIP3   OH242235   5.770   6.825   1.785
 6867TIP3    H142236   5.744   6.735   1.803
 6867TIP3    H242237   5.703   6.859   1.725
 6868TIP3   OH242238   6.225   6.828   0.020
 6868TIP3    H142239   6.206   6.764   0.088
 6868TIP3    H242240   6.248   6.776  -0.057
 6869TIP3   OH242241   6.484   6.829   1.713
 6869TIP3    H142242   6.424   6.869   1.649
 6869TIP3    H242243   6.481   6.736   1.694
 6870TIP3   OH242244   6.975   6.780   1.490
 6870TIP3    H142245   7.051   6.839   1.493
 6870TIP3    H242246   6.901   6.834   1.514
 6871TIP3   OH242247   6.363   6.613   0.256
 6871TIP3    H142248   6.270   6.600   0.239
 6871TIP3    H242249   6.408   6.555   0.195
 6872TIP3   OH242250   6.259   6.416   1.496
 6872TIP3    H142251   6.187   6.479   1.497
 6872TIP3    H242252   6.319   6.449   1.429
 6873TIP3   OH242253   6.481   6.446   0.064
 6873TIP3    H142254   6.491   6.459  -0.031
 6873TIP3    H242255   6.570   6.428   0.094
 6874TIP3   OH242256   6.777   6.672   1.775
 6874TIP3    H142257   6.863   6.639   1.749
 6874TIP3    H242258   6.759   6.627   1.858
 6875TIP3   OH242259   6.329   6.162   1.578
 6875TIP3    H142260   6.331   6.103   1.503
 6875TIP3    H242261   6.306   6.247   1.541
 6876TIP3   OH242262   6.343   6.001   1.343
 6876TIP3    H142263   6.394   6.056   1.283
 6876TIP3    H242264   6.255   6.002   1.305
 6877TIP3   OH242265   6.447   6.514   1.322
 6877TIP3    H142266   6.516   6.535   1.384
 6877TIP3    H242267   6.418   6.600   1.289
 6878TIP3   OH242268   6.938   6.299   1.878
 6878TIP3    H142269   6.978   6.239   1.941
 6878TIP3    H242270   7.008   6.315   1.814
 6879TIP3   OH242271   7.009   6.570   1.653
 6879TIP3    H142272   6.990   6.644   1.595
 6879TIP3    H242273   7.099   6.585   1.683
 6880TIP3   OH242274   6.037   6.276   1.675
 6880TIP3    H142275   6.025   6.184   1.701
 6880TIP3    H242276   6.132   6.289   1.679
 6881TIP3   OH242277   6.397   5.739   1.428
 6881TIP3    H142278   6.379   5.831   1.407
 6881TIP3    H242279   6.328   5.690   1.383
 6882TIP3   OH242280   6.527   6.141   1.765
 6882TIP3    H142281   6.517   6.228   1.804
 6882TIP3    H242282   6.459   6.137   1.698
 6883TIP3   OH242283   6.781   6.087   1.668
 6883TIP3    H142284   6.692   6.084   1.704
 6883TIP3    H242285   6.836   6.050   1.737
 6884TIP3   OH242286   6.942   5.973   1.860
 6884TIP3    H142287   6.946   5.878   1.863
 6884TIP3    H242288   6.960   6.000   1.950
 6885TIP3   OH242289   5.954   6.028   1.757
 6885TIP3    H142290   5.950   5.941   1.718
 6885TIP3    H242291   5.986   6.013   1.846
 6886TIP3   OH242292   6.400   5.627   1.686
 6886TIP3    H142293   6.469   5.561   1.676
 6886TIP3    H242294   6.398   5.672   1.602
 6887TIP3   OH242295   5.782   7.004   0.134
 6887TIP3    H142296   5.876   7.015   0.151
 6887TIP3    H242297   5.779   6.943   0.060
 6888TIP3   OH242298   5.706   7.301   0.830
 6888TIP3    H142299   5.701   7.227   0.891
 6888TIP3    H242300   5.751   7.369   0.879
 6889TIP3   OH242301   7.259   6.930   1.875
 6889TIP3    H142302   7.168   6.928   1.905
 6889TIP3    H242303   7.303   6.990   1.936
 6890TIP3   OH242304   7.282   7.117   1.302
 6890TIP3    H142305   7.235   7.185   1.350
 6890TIP3    H242306   7.230   7.103   1.223
 6891TIP3   OH242307   7.274   6.290   0.081
 6891TIP3    H142308   7.304   6.326  -0.002
 6891TIP3    H242309   7.247   6.201   0.060
 6892TIP3   OH242310   7.184   6.438   0.661
 6892TIP3    H142311   7.178   6.343   0.648
 6892TIP3    H242312   7.166   6.450   0.754
 6893TIP3   OH242313   5.723   6.638   1.076
 6893TIP3    H142314   5.734   6.622   0.982
 6893TIP3    H242315   5.804   6.606   1.115
 6894TIP3   OH242316   7.279   6.619   1.656
 6894TIP3    H142317   7.361   6.599   1.701
 6894TIP3    H242318   7.288   6.710   1.628
 6895TIP3   OH242319   7.179   6.041   0.034
 6895TIP3    H142320   7.208   5.954   0.006
 6895TIP3    H242321   7.105   6.023   0.092
 6896TIP3   OH242322   7.207   6.182   0.488
 6896TIP3    H142323   7.222   6.093   0.519
 6896TIP3    H242324   7.276   6.198   0.424
 6897TIP3   OH242325   7.216   6.144   1.096
 6897TIP3    H142326   7.288   6.200   1.067
 6897TIP3    H242327   7.201   6.170   1.187
 6898TIP3   OH242328   7.271   6.312   1.346
 6898TIP3    H142329   7.185   6.350   1.362
 6898TIP3    H242330   7.297   6.346   1.260
 6899TIP3   OH242331   5.736   6.150   1.619
 6899TIP3    H142332   5.810   6.140   1.679
 6899TIP3    H242333   5.670   6.088   1.650
 6900TIP3   OH242334   7.212   5.915   0.559
 6900TIP3    H142335   7.205   5.888   0.650
 6900TIP3    H242336   7.158   5.852   0.511
 6901TIP3   OH242337   5.819   6.010   0.991
 6901TIP3    H142338   5.860   5.923   0.988
 6901TIP3    H242339   5.893   6.070   1.001
 6902TIP3   OH242340   5.631   6.287   1.046
 6902TIP3    H142341   5.703   6.292   0.983
 6902TIP3    H242342   5.650   6.355   1.110
 6903TIP3   OH242343   5.681   5.897   0.428
 6903TIP3    H142344   5.590   5.908   0.458
 6903TIP3    H242345   5.703   5.979   0.385
 6904TIP3   OH242346   5.723   5.798   1.306
 6904TIP3    H142347   5.643   5.791   1.358
 6904TIP3    H242348   5.757   5.886   1.325
 6905TIP3   OH242349   5.886   7.146   1.741
 6905TIP3    H142350   5.801   7.162   1.699
 6905TIP3    H242351   5.863   7.119   1.830
 6906TIP3   OH242352   6.194   7.234   1.331
 6906TIP3    H142353   6.152   7.273   1.254
 6906TIP3    H242354   6.287   7.230   1.309
 6907TIP3   OH242355   6.082   7.239   0.891
 6907TIP3    H142356   6.055   7.150   0.915
 6907TIP3    H242357   6.171   7.247   0.928
 6908TIP3   OH242358   6.328   7.208   1.034
 6908TIP3    H142359   6.334   7.117   1.003
 6908TIP3    H242360   6.380   7.210   1.114
 6909TIP3   OH242361   6.672   5.868   0.926
 6909TIP3    H142362   6.608   5.800   0.946
 6909TIP3    H242363   6.745   5.821   0.885
 6910TIP3   OH242364   7.169   5.710   0.899
 6910TIP3    H142365   7.209   5.786   0.940
 6910TIP3    H242366   7.077   5.734   0.887
 6911TIP3   OH242367   5.923   5.727   0.674
 6911TIP3    H142368   5.831   5.713   0.652
 6911TIP3    H242369   5.964   5.641   0.662
 6912TIP3   OH242370   5.799   5.721   0.247
 6912TIP3    H142371   5.872   5.775   0.217
 6912TIP3    H242372   5.754   5.776   0.312
 6913TIP3   OH242373   6.407   5.695   0.696
 6913TIP3    H142374   6.472   5.753   0.655
 6913TIP3    H242375   6.423   5.703   0.790
 6914TIP3   OH242376   6.896   5.735   0.824
 6914TIP3    H142377   6.898   5.719   0.730
 6914TIP3    H242378   6.871   5.650   0.862
 6915TIP3   OH242379   7.060   5.740   0.416
 6915TIP3    H142380   6.985   5.800   0.412
 6915TIP3    H242381   7.020   5.653   0.425
 6916TIP3   OH242382   5.785  -0.011   0.429
 6916TIP3    H142383   5.791  -0.015   0.334
 6916TIP3    H242384   5.744   0.074   0.447
 6917TIP3   OH242385   6.022   5.856   0.158
 6917TIP3    H142386   6.042   5.909   0.081
 6917TIP3    H242387   6.077   5.893   0.227
 6918TIP3   OH242388   6.482   5.969   0.347
 6918TIP3    H142389   6.516   5.896   0.399
 6918TIP3    H242390   6.500   6.047   0.399
 6919TIP3   OH242391   5.931   5.784   1.607
 6919TIP3    H142392   5.869   5.724   1.647
 6919TIP3    H242393   6.015   5.763   1.648
 6920TIP3   OH242394   6.136   5.693   1.757
 6920TIP3    H142395   6.228   5.670   1.746
 6920TIP3    H242396   6.108   5.644   1.835
 6921TIP3   OH242397   6.976   5.697   1.813
 6921TIP3    H142398   6.969   5.658   1.900
 6921TIP3    H242399   7.069   5.695   1.792
 6922TIP3   OH242400   7.343   7.316   1.641
 6922TIP3    H142401   7.270   7.283   1.587
 6922TIP3    H242402   7.303   7.336   1.726
 6923TIP3   OH242403   0.635   0.409   1.906
 6923TIP3    H142404   0.694   0.347   1.949
 6923TIP3    H242405   0.548   0.369   1.915
 6924TIP3   OH242406   0.095   0.377   2.153
 6924TIP3    H142407   0.143   0.458   2.135
 6924TIP3    H242408   0.106   0.364   2.247
 6925TIP3   OH242409   0.554   0.664   1.980
 6925TIP3    H142410   0.586   0.577   1.959
 6925TIP3    H242411   0.539   0.663   2.074
 6926TIP3   OH242412   1.048   1.285   2.178
 6926TIP3    H142413   1.069   1.371   2.215
 6926TIP3    H242414   1.037   1.229   2.255
 6927TIP3   OH242415   0.179   0.963   2.012
 6927TIP3    H142416   0.248   1.009   2.060
 6927TIP3    H242417   0.121   0.930   2.081
 6928TIP3   OH242418   0.350   1.088   2.184
 6928TIP3    H142419   0.393   1.050   2.260
 6928TIP3    H242420   0.416   1.145   2.144
 6929TIP3   OH242421   0.383   1.412   2.000
 6929TIP3    H142422   0.426   1.354   2.064
 6929TIP3    H242423   0.436   1.403   1.921
 6930TIP3   OH242424   0.178   0.639   2.050
 6930TIP3    H142425   0.207   0.679   2.132
 6930TIP3    H242426   0.088   0.668   2.040
 6931TIP3   OH242427   0.935   1.616   1.881
 6931TIP3    H142428   0.862   1.661   1.923
 6931TIP3    H242429   0.940   1.532   1.926
 6932TIP3   OH242430   1.470   1.592   1.875
 6932TIP3    H142431   1.507   1.513   1.915
 6932TIP3    H242432   1.531   1.613   1.804
 6933TIP3   OH242433   1.104   1.291   1.902
 6933TIP3    H142434   1.087   1.291   1.996
 6933TIP3    H242435   1.101   1.198   1.877
 6934TIP3   OH242436   0.125   1.406   1.899
 6934TIP3    H142437   0.196   1.406   1.964
 6934TIP3    H242438   0.116   1.314   1.874
 6935TIP3   OH242439   1.565   0.389   1.864
 6935TIP3    H142440   1.555   0.484   1.867
 6935TIP3    H242441   1.477   0.356   1.846
 6936TIP3   OH242442   0.150   0.108   2.111
 6936TIP3    H142443   0.134   0.203   2.111
 6936TIP3    H242444   0.147   0.083   2.204
 6937TIP3   OH242445   0.416   0.262   2.029
 6937TIP3    H142446   0.415   0.173   1.993
 6937TIP3    H242447   0.383   0.253   2.118
 6938TIP3   OH242448   3.192   1.762   2.060
 6938TIP3    H142449   3.286   1.779   2.065
 6938TIP3    H242450   3.175   1.703   2.133
 6939TIP3   OH242451   3.258   0.968   1.921
 6939TIP3    H142452   3.274   0.959   1.827
 6939TIP3    H242453   3.344   0.957   1.961
 6940TIP3   OH242454   2.514   0.481   1.976
 6940TIP3    H142455   2.509   0.392   2.011
 6940TIP3    H242456   2.440   0.527   2.015
 6941TIP3   OH242457   2.009   0.850   2.031
 6941TIP3    H142458   2.086   0.861   2.087
 6941TIP3    H242459   1.992   0.938   1.996
 6942TIP3   OH242460   3.228   1.342   2.064
 6942TIP3    H142461   3.289   1.292   2.119
 6942TIP3    H242462   3.146   1.342   2.114
 6943TIP3   OH242463   2.504   1.657   2.187
 6943TIP3    H142464   2.474   1.717   2.256
 6943TIP3    H242465   2.542   1.583   2.235
 6944TIP3   OH242466   2.854   1.624   1.910
 6944TIP3    H142467   2.792   1.559   1.943
 6944TIP3    H242468   2.939   1.599   1.948
 6945TIP3   OH242469   2.427   1.113   1.917
 6945TIP3    H142470   2.478   1.085   1.993
 6945TIP3    H242471   2.489   1.111   1.845
 6946TIP3   OH242472   2.676   0.731   1.903
 6946TIP3    H142473   2.589   0.747   1.939
 6946TIP3    H242474   2.684   0.635   1.900
 6947TIP3   OH242475   2.090   0.025   2.040
 6947TIP3    H142476   2.167  -0.021   2.072
 6947TIP3    H242477   2.047   0.059   2.119
 6948TIP3   OH242478   2.278   0.244   2.024
 6948TIP3    H142479   2.236   0.164   1.994
 6948TIP3    H242480   2.328   0.218   2.102
 6949TIP3   OH242481   2.203   1.745   1.944
 6949TIP3    H142482   2.195   1.750   2.039
 6949TIP3    H242483   2.292   1.714   1.929
 6950TIP3   OH242484   5.374   0.088   2.129
 6950TIP3    H142485   5.348   0.015   2.185
 6950TIP3    H242486   5.452   0.124   2.171
 6951TIP3   OH242487   5.519   1.550   1.993
 6951TIP3    H142488   5.528   1.643   1.972
 6951TIP3    H242489   5.599   1.529   2.042
 6952TIP3   OH242490   4.800   0.439   1.983
 6952TIP3    H142491   4.734   0.415   2.049
 6952TIP3    H242492   4.756   0.427   1.899
 6953TIP3   OH242493   5.166   1.364   2.032
 6953TIP3    H142494   5.193   1.367   2.123
 6953TIP3    H242495   5.071   1.355   2.036
 6954TIP3   OH242496   4.579   1.404   1.866
 6954TIP3    H142497   4.674   1.389   1.861
 6954TIP3    H242498   4.541   1.319   1.845
 6955TIP3   OH242499   3.843   0.678   1.900
 6955TIP3    H142500   3.925   0.687   1.949
 6955TIP3    H242501   3.775   0.698   1.964
 6956TIP3   OH242502   5.200   1.629   1.915
 6956TIP3    H142503   5.189   1.554   1.974
 6956TIP3    H242504   5.278   1.608   1.864
 6957TIP3   OH242505   4.269   1.149   1.893
 6957TIP3    H142506   4.236   1.072   1.939
 6957TIP3    H242507   4.361   1.128   1.876
 6958TIP3   OH242508   4.848   1.311   1.878
 6958TIP3    H142509   4.851   1.327   1.972
 6958TIP3    H242510   4.871   1.218   1.869
 6959TIP3   OH242511   3.951   1.276   1.995
 6959TIP3    H142512   4.028   1.331   1.980
 6959TIP3    H242513   3.942   1.225   1.914
 6960TIP3   OH242514   6.711   0.807   1.981
 6960TIP3    H142515   6.739   0.805   2.072
 6960TIP3    H242516   6.772   0.749   1.935
 6961TIP3   OH242517   6.923   0.858   2.184
 6961TIP3    H142518   6.982   0.877   2.258
 6961TIP3    H242519   6.978   0.870   2.107
 6962TIP3   OH242520   7.217   0.052   2.067
 6962TIP3    H142521   7.165   0.023   2.142
 6962TIP3    H242522   7.306   0.062   2.101
 6963TIP3   OH242523   7.080   0.914   1.959
 6963TIP3    H142524   7.036   0.893   1.877
 6963TIP3    H242525   7.152   0.851   1.965
 6964TIP3   OH242526   6.593   0.349   1.977
 6964TIP3    H142527   6.501   0.374   1.988
 6964TIP3    H242528   6.591   0.254   1.967
 6965TIP3   OH242529   6.328   0.418   1.941
 6965TIP3    H142530   6.262   0.352   1.965
 6965TIP3    H242531   6.276   0.491   1.906
 6966TIP3   OH242532   6.162   0.725   2.024
 6966TIP3    H142533   6.146   0.679   1.941
 6966TIP3    H242534   6.257   0.742   2.024
 6967TIP3   OH242535   6.827   0.489   2.023
 6967TIP3    H142536   6.745   0.444   2.007
 6967TIP3    H242537   6.816   0.532   2.108
 6968TIP3   OH242538   6.808   1.227   2.179
 6968TIP3    H142539   6.789   1.287   2.252
 6968TIP3    H242540   6.739   1.161   2.186
 6969TIP3   OH242541   7.079   1.617   1.913
 6969TIP3    H142542   7.132   1.591   1.989
 6969TIP3    H242543   7.142   1.622   1.841
 6970TIP3   OH242544   6.222   1.155   1.878
 6970TIP3    H142545   6.205   1.192   1.965
 6970TIP3    H242546   6.317   1.153   1.871
 6971TIP3   OH242547   6.756   1.290   1.858
 6971TIP3    H142548   6.662   1.296   1.877
 6971TIP3    H242549   6.768   1.200   1.828
 6972TIP3   OH242550   6.346   0.910   2.199
 6972TIP3    H142551   6.252   0.909   2.180
 6972TIP3    H242552   6.387   0.882   2.117
 6973TIP3   OH242553   6.431   0.805   1.958
 6973TIP3    H142554   6.424   0.833   1.867
 6973TIP3    H242555   6.525   0.793   1.972
 6974TIP3   OH242556   7.259   0.684   1.946
 6974TIP3    H142557   7.246   0.699   1.852
 6974TIP3    H242558   7.246   0.589   1.956
 6975TIP3   OH242559   7.245   0.402   1.910
 6975TIP3    H142560   7.278   0.348   1.981
 6975TIP3    H242561   7.160   0.364   1.888
 6976TIP3   OH242562   6.068   0.262   1.948
 6976TIP3    H142563   6.085   0.187   1.891
 6976TIP3    H242564   6.029   0.224   2.027
 6977TIP3   OH242565   5.910   1.796   1.983
 6977TIP3    H142566   5.829   1.840   2.009
 6977TIP3    H242567   5.923   1.729   2.050
 6978TIP3   OH242568   1.131   2.743   1.963
 6978TIP3    H142569   1.171   2.770   2.046
 6978TIP3    H242570   1.181   2.666   1.937
 6979TIP3   OH242571   1.726   3.392   1.988
 6979TIP3    H142572   1.638   3.414   2.020
 6979TIP3    H242573   1.776   3.370   2.067
 6980TIP3   OH242574   0.691   2.306   1.925
 6980TIP3    H142575   0.658   2.251   1.996
 6980TIP3    H242576   0.637   2.386   1.930
 6981TIP3   OH242577   1.377   3.204   1.991
 6981TIP3    H142578   1.416   3.284   2.028
 6981TIP3    H242579   1.395   3.136   2.056
 6982TIP3   OH242580   1.825   3.676   1.981
 6982TIP3    H142581   1.890   3.699   2.047
 6982TIP3    H242582   1.789   3.592   2.010
 6983TIP3   OH242583   0.713   3.318   1.902
 6983TIP3    H142584   0.739   3.247   1.843
 6983TIP3    H242585   0.687   3.274   1.983
 6984TIP3   OH242586   0.563   2.217   2.151
 6984TIP3    H142587   0.528   2.306   2.154
 6984TIP3    H242588   0.596   2.201   2.239
 6985TIP3   OH242589   0.422   3.275   2.037
 6985TIP3    H142590   0.481   3.250   2.108
 6985TIP3    H242591   0.442   3.214   1.966
 6986TIP3   OH242592   0.531   3.039   1.913
 6986TIP3    H142593   0.562   3.061   2.001
 6986TIP3    H242594   0.610   3.032   1.860
 6987TIP3   OH242595   0.831   2.599   1.941
 6987TIP3    H142596   0.737   2.612   1.955
 6987TIP3    H242597   0.863   2.685   1.914
 6988TIP3   OH242598   0.164   3.257   1.961
 6988TIP3    H142599   0.242   3.278   2.011
 6988TIP3    H242600   0.174   3.164   1.938
 6989TIP3   OH242601   0.327   2.205   1.992
 6989TIP3    H142602   0.402   2.153   2.018
 6989TIP3    H242603   0.348   2.295   2.019
 6990TIP3   OH242604   0.926   3.638   2.078
 6990TIP3    H142605   0.881   3.676   2.154
 6990TIP3    H242606   0.933   3.710   2.015
 6991TIP3   OH242607   3.281   2.857   1.897
 6991TIP3    H142608   3.296   2.848   1.803
 6991TIP3    H242609   3.368   2.862   1.935
 6992TIP3   OH242610   3.748   2.538   2.141
 6992TIP3    H142611   3.689   2.532   2.065
 6992TIP3    H242612   3.690   2.557   2.215
 6993TIP3   OH242613   2.071   2.784   2.017
 6993TIP3    H142614   2.156   2.822   2.042
 6993TIP3    H242615   2.007   2.834   2.067
 6994TIP3   OH242616   3.259   3.127   2.018
 6994TIP3    H142617   3.261   3.031   2.014
 6994TIP3    H242618   3.174   3.151   1.981
 6995TIP3   OH242619   2.749   3.241   1.921
 6995TIP3    H142620   2.724   3.169   1.864
 6995TIP3    H242621   2.680   3.243   1.988
 6996TIP3   OH242622   2.553   3.254   2.115
 6996TIP3    H142623   2.543   3.185   2.180
 6996TIP3    H242624   2.563   3.334   2.166
 6997TIP3   OH242625   2.596   3.499   2.244
 6997TIP3    H142626   2.645   3.579   2.224
 6997TIP3    H242627   2.566   3.511   2.334
 6998TIP3   OH242628   2.251   3.256   1.990
 6998TIP3    H142629   2.254   3.330   2.050
 6998TIP3    H242630   2.316   3.194   2.024
 6999TIP3   OH242631   2.028   2.500   1.997
 6999TIP3    H142632   2.052   2.593   1.997
 6999TIP3    H242633   1.975   2.489   2.076
 7000TIP3   OH242634   2.863   3.490   1.871
 7000TIP3    H142635   2.821   3.408   1.898
 7000TIP3    H242636   2.957   3.474   1.881
 7001TIP3   OH242637   3.331   3.432   1.886
 7001TIP3    H142638   3.365   3.430   1.975
 7001TIP3    H242639   3.408   3.440   1.830
 7002TIP3   OH242640   3.007   3.149   1.901
 7002TIP3    H142641   2.919   3.185   1.918
 7002TIP3    H242642   2.991   3.057   1.878
 7003TIP3   OH242643   2.680   2.633   1.933
 7003TIP3    H142644   2.668   2.691   1.858
 7003TIP3    H242645   2.632   2.676   2.004
 7004TIP3   OH242646   3.551   2.914   1.926
 7004TIP3    H142647   3.570   2.887   1.836
 7004TIP3    H242648   3.549   3.009   1.923
 7005TIP3   OH242649   1.991   3.117   2.002
 7005TIP3    H142650   2.051   3.175   2.049
 7005TIP3    H242651   2.037   3.097   1.920
 7006TIP3   OH242652   3.568   2.491   1.933
 7006TIP3    H142653   3.531   2.534   1.856
 7006TIP3    H242654   3.535   2.401   1.928
 7007TIP3   OH242655   3.419   2.229   1.903
 7007TIP3    H142656   3.484   2.205   1.970
 7007TIP3    H242657   3.455   2.196   1.821
 7008TIP3   OH242658   3.654   2.185   2.040
 7008TIP3    H142659   3.697   2.108   2.076
 7008TIP3    H242660   3.712   2.258   2.065
 7009TIP3   OH242661   3.031   3.640   2.087
 7009TIP3    H142662   3.071   3.726   2.085
 7009TIP3    H242663   2.946   3.652   2.044
 7010TIP3   OH242664   2.195   3.667   1.912
 7010TIP3    H142665   2.169   3.693   2.001
 7010TIP3    H242666   2.272   3.612   1.925
 7011TIP3   OH242667   5.259   2.880   1.895
 7011TIP3    H142668   5.242   2.844   1.808
 7011TIP3    H242669   5.249   2.806   1.954
 7012TIP3   OH242670   4.272   2.623   2.010
 7012TIP3    H142671   4.189   2.609   2.056
 7012TIP3    H242672   4.261   2.580   1.926
 7013TIP3   OH242673   5.079   2.565   2.130
 7013TIP3    H142674   5.105   2.496   2.191
 7013TIP3    H242675   5.085   2.645   2.181
 7014TIP3   OH242676   4.791   3.135   2.078
 7014TIP3    H142677   4.778   3.217   2.124
 7014TIP3    H242678   4.867   3.095   2.121
 7015TIP3   OH242679   3.931   2.836   2.027
 7015TIP3    H142680   3.973   2.805   2.107
 7015TIP3    H242681   3.867   2.900   2.057
 7016TIP3   OH242682   5.204   3.202   2.032
 7016TIP3    H142683   5.230   3.127   2.086
 7016TIP3    H242684   5.111   3.187   2.014
 7017TIP3   OH242685   4.327   2.241   2.153
 7017TIP3    H142686   4.287   2.303   2.214
 7017TIP3    H242687   4.361   2.171   2.208
 7018TIP3   OH242688   4.198   3.261   2.014
 7018TIP3    H142689   4.194   3.289   2.106
 7018TIP3    H242690   4.240   3.334   1.969
 7019TIP3   OH242691   3.985   2.556   1.982
 7019TIP3    H142692   3.962   2.647   1.998
 7019TIP3    H242693   3.920   2.506   2.031
 7020TIP3   OH242694   5.213   3.447   1.911
 7020TIP3    H142695   5.217   3.364   1.959
 7020TIP3    H242696   5.279   3.439   1.843
 7021TIP3   OH242697   4.873   3.170   1.823
 7021TIP3    H142698   4.831   3.179   1.908
 7021TIP3    H242699   4.900   3.079   1.819
 7022TIP3   OH242700   4.553   3.774   2.098
 7022TIP3    H142701   4.631   3.719   2.090
 7022TIP3    H242702   4.562   3.839   2.028
 7023TIP3   OH242703   5.400   2.618   1.964
 7023TIP3    H142704   5.393   2.568   1.882
 7023TIP3    H242705   5.401   2.551   2.033
 7024TIP3   OH242706   5.249   2.318   1.863
 7024TIP3    H142707   5.332   2.273   1.846
 7024TIP3    H242708   5.190   2.249   1.892
 7025TIP3   OH242709   3.821   1.989   2.136
 7025TIP3    H142710   3.900   1.941   2.111
 7025TIP3    H242711   3.774   1.929   2.193
 7026TIP3   OH242712   4.139   2.161   1.967
 7026TIP3    H142713   4.177   2.083   1.928
 7026TIP3    H242714   4.203   2.189   2.032
 7027TIP3   OH242715   4.093   3.614   1.912
 7027TIP3    H142716   4.027   3.555   1.948
 7027TIP3    H242717   4.171   3.560   1.902
 7028TIP3   OH242718   6.726   2.709   2.018
 7028TIP3    H142719   6.742   2.721   2.111
 7028TIP3    H242720   6.800   2.657   1.987
 7029TIP3   OH242721   6.995   3.670   2.079
 7029TIP3    H142722   7.028   3.586   2.045
 7029TIP3    H242723   7.028   3.673   2.169
 7030TIP3   OH242724   7.073   2.857   1.939
 7030TIP3    H142725   7.049   2.852   1.847
 7030TIP3    H242726   7.169   2.855   1.939
 7031TIP3   OH242727   6.609   2.272   2.090
 7031TIP3    H142728   6.589   2.312   2.175
 7031TIP3    H242729   6.571   2.185   2.096
 7032TIP3   OH242730   5.727   2.411   2.156
 7032TIP3    H142731   5.776   2.334   2.185
 7032TIP3    H242732   5.637   2.393   2.183
 7033TIP3   OH242733   6.196   2.667   2.082
 7033TIP3    H142734   6.179   2.582   2.123
 7033TIP3    H242735   6.249   2.645   2.005
 7034TIP3   OH242736   6.895   2.336   2.046
 7034TIP3    H142737   6.804   2.322   2.073
 7034TIP3    H242738   6.931   2.397   2.111
 7035TIP3   OH242739   6.991   2.543   2.209
 7035TIP3    H142740   6.926   2.573   2.273
 7035TIP3    H242741   7.069   2.595   2.228
 7036TIP3   OH242742   7.064   3.214   2.086
 7036TIP3    H142743   7.079   3.251   2.173
 7036TIP3    H242744   7.026   3.128   2.102
 7037TIP3   OH242745   5.975   3.273   1.991
 7037TIP3    H142746   6.018   3.341   2.042
 7037TIP3    H242747   6.041   3.205   1.980
 7038TIP3   OH242748   5.810   2.604   1.973
 7038TIP3    H142749   5.834   2.655   2.051
 7038TIP3    H242750   5.778   2.521   2.009
 7039TIP3   OH242751   7.077   3.441   1.918
 7039TIP3    H142752   7.076   3.367   1.978
 7039TIP3    H242753   7.165   3.439   1.879
 7040TIP3   OH242754   6.174   3.071   1.933
 7040TIP3    H142755   6.183   3.018   2.012
 7040TIP3    H242756   6.254   3.053   1.883
 7041TIP3   OH242757   6.756   3.154   1.924
 7041TIP3    H142758   6.787   3.126   2.010
 7041TIP3    H242759   6.752   3.073   1.873
 7042TIP3   OH242760   6.480   2.626   1.907
 7042TIP3    H142761   6.450   2.701   1.855
 7042TIP3    H242762   6.546   2.662   1.966
 7043TIP3   OH242763   6.409   3.731   2.031
 7043TIP3    H142764   6.406   3.744   2.126
 7043TIP3    H242765   6.445   3.814   1.998
 7044TIP3   OH242766   5.695   3.168   2.019
 7044TIP3    H142767   5.771   3.214   2.055
 7044TIP3    H242768   5.730   3.119   1.945
 7045TIP3   OH242769   7.354   2.560   1.878
 7045TIP3    H142770   7.274   2.566   1.827
 7045TIP3    H242771   7.341   2.482   1.933
 7046TIP3   OH242772   7.239   2.277   1.858
 7046TIP3    H142773   7.262   2.220   1.932
 7046TIP3    H242774   7.149   2.254   1.836
 7047TIP3   OH242775   1.304   5.510   2.075
 7047TIP3    H142776   1.356   5.457   2.014
 7047TIP3    H242777   1.333   5.480   2.162
 7048TIP3   OH242778   0.677   4.130   1.921
 7048TIP3    H142779   0.616   4.088   1.983
 7048TIP3    H242780   0.625   4.199   1.880
 7049TIP3   OH242781   0.183   4.263   2.181
 7049TIP3    H142782   0.130   4.312   2.118
 7049TIP3    H242783   0.140   4.178   2.189
 7050TIP3   OH242784   1.043   5.054   2.144
 7050TIP3    H142785   1.036   5.149   2.150
 7050TIP3    H242786   0.984   5.021   2.211
 7051TIP3   OH242787   1.806   5.516   2.070
 7051TIP3    H142788   1.859   5.447   2.032
 7051TIP3    H242789   1.730   5.471   2.106
 7052TIP3   OH242790   0.851   5.151   1.890
 7052TIP3    H142791   0.820   5.072   1.844
 7052TIP3    H242792   0.794   5.158   1.966
 7053TIP3   OH242793   0.708   5.193   2.125
 7053TIP3    H142794   0.707   5.145   2.208
 7053TIP3    H242795   0.623   5.235   2.121
 7054TIP3   OH242796   1.015   5.367   1.858
 7054TIP3    H142797   0.958   5.292   1.873
 7054TIP3    H242798   1.099   5.328   1.832
 7055TIP3   OH242799   1.463   5.330   1.936
 7055TIP3    H142800   1.521   5.320   2.011
 7055TIP3    H242801   1.522   5.338   1.861
 7056TIP3   OH242802   0.531   4.912   1.884
 7056TIP3    H142803   0.462   4.872   1.937
 7056TIP3    H242804   0.612   4.890   1.929
 7057TIP3   OH242805   1.120   5.043   1.881
 7057TIP3    H142806   1.097   5.049   1.974
 7057TIP3    H242807   1.036   5.046   1.836
 7058TIP3   OH242808   0.703   4.728   2.182
 7058TIP3    H142809   0.611   4.719   2.204
 7058TIP3    H242810   0.715   4.676   2.103
 7059TIP3   OH242811   0.771   4.575   1.960
 7059TIP3    H142812   0.766   4.611   1.872
 7059TIP3    H242813   0.740   4.485   1.952
 7060TIP3   OH242814   0.774   5.613   1.977
 7060TIP3    H142815   0.858   5.597   2.019
 7060TIP3    H242816   0.776   5.706   1.954
 7061TIP3   OH242817   1.650   4.102   1.825
 7061TIP3    H142818   1.650   4.160   1.902
 7061TIP3    H242819   1.563   4.113   1.788
 7062TIP3   OH242820   1.830   4.036   2.086
 7062TIP3    H142821   1.848   4.019   1.994
 7062TIP3    H242822   1.774   4.114   2.085
 7063TIP3   OH242823   0.214   3.845   1.938
 7063TIP3    H142824   0.250   3.850   2.026
 7063TIP3    H242825   0.119   3.841   1.951
 7064TIP3   OH242826   0.413   4.051   2.018
 7064TIP3    H142827   0.357   3.997   1.962
 7064TIP3    H242828   0.461   3.989   2.072
 7065TIP3   OH242829   1.031   5.551   2.058
 7065TIP3    H142830   1.125   5.563   2.075
 7065TIP3    H242831   1.028   5.496   1.980
 7066TIP3   OH242832   2.965   4.597   1.990
 7066TIP3    H142833   3.020   4.629   2.061
 7066TIP3    H242834   3.012   4.522   1.953
 7067TIP3   OH242835   3.665   5.264   1.964
 7067TIP3    H142836   3.679   5.339   1.907
 7067TIP3    H242837   3.749   5.220   1.967
 7068TIP3   OH242838   3.269   4.699   1.903
 7068TIP3    H142839   3.285   4.696   1.809
 7068TIP3    H242840   3.353   4.724   1.942
 7069TIP3   OH242841   2.514   4.113   1.909
 7069TIP3    H142842   2.512   4.082   2.000
 7069TIP3    H242843   2.465   4.195   1.910
 7070TIP3   OH242844   2.435   4.497   2.042
 7070TIP3    H142845   2.405   4.449   1.965
 7070TIP3    H242846   2.525   4.523   2.020
 7071TIP3   OH242847   3.717   4.384   2.158
 7071TIP3    H142848   3.668   4.393   2.076
 7071TIP3    H242849   3.741   4.474   2.181
 7072TIP3   OH242850   3.267   5.093   2.038
 7072TIP3    H142851   3.268   5.052   2.125
 7072TIP3    H242852   3.179   5.076   2.005
 7073TIP3   OH242853   2.752   5.125   1.931
 7073TIP3    H142854   2.710   5.061   1.874
 7073TIP3    H242855   2.691   5.137   2.004
 7074TIP3   OH242856   2.593   5.159   2.154
 7074TIP3    H142857   2.547   5.113   2.225
 7074TIP3    H242858   2.569   5.251   2.166
 7075TIP3   OH242859   2.249   4.879   2.158
 7075TIP3    H142860   2.178   4.888   2.222
 7075TIP3    H242861   2.260   4.967   2.121
 7076TIP3   OH242862   2.849   5.390   2.196
 7076TIP3    H142863   2.754   5.403   2.200
 7076TIP3    H242864   2.870   5.389   2.103
 7077TIP3   OH242865   2.573   5.458   2.199
 7077TIP3    H142866   2.542   5.527   2.140
 7077TIP3    H242867   2.539   5.484   2.285
 7078TIP3   OH242868   2.293   5.123   2.024
 7078TIP3    H142869   2.338   5.207   2.012
 7078TIP3    H242870   2.331   5.065   1.958
 7079TIP3   OH242871   2.890   5.362   1.910
 7079TIP3    H142872   2.831   5.288   1.917
 7079TIP3    H242873   2.967   5.328   1.865
 7080TIP3   OH242874   3.313   5.345   1.919
 7080TIP3    H142875   3.320   5.266   1.973
 7080TIP3    H242876   3.389   5.342   1.861
 7081TIP3   OH242877   2.418   4.927   1.874
 7081TIP3    H142878   2.420   4.881   1.958
 7081TIP3    H242879   2.509   4.926   1.844
 7082TIP3   OH242880   3.012   5.043   1.942
 7082TIP3    H142881   2.921   5.075   1.943
 7082TIP3    H242882   3.008   4.962   1.892
 7083TIP3   OH242883   2.685   4.576   1.956
 7083TIP3    H142884   2.678   4.608   1.866
 7083TIP3    H242885   2.778   4.585   1.978
 7084TIP3   OH242886   3.546   4.771   1.924
 7084TIP3    H142887   3.557   4.757   1.830
 7084TIP3    H242888   3.539   4.866   1.933
 7085TIP3   OH242889   3.728   4.662   2.103
 7085TIP3    H142890   3.665   4.705   2.045
 7085TIP3    H242891   3.744   4.727   2.172
 7086TIP3   OH242892   3.556   4.416   1.933
 7086TIP3    H142893   3.556   4.511   1.940
 7086TIP3    H242894   3.517   4.398   1.848
 7087TIP3   OH242895   2.037   3.830   2.091
 7087TIP3    H142896   2.031   3.877   2.008
 7087TIP3    H242897   1.978   3.878   2.150
 7088TIP3   OH242898   5.161   4.666   1.903
 7088TIP3    H142899   5.168   4.679   1.808
 7088TIP3    H242900   5.241   4.703   1.938
 7089TIP3   OH242901   4.394   4.186   1.909
 7089TIP3    H142902   4.395   4.246   1.984
 7089TIP3    H242903   4.347   4.235   1.841
 7090TIP3   OH242904   4.360   4.392   2.079
 7090TIP3    H142905   4.274   4.433   2.085
 7090TIP3    H242906   4.417   4.461   2.044
 7091TIP3   OH242907   5.020   4.222   2.052
 7091TIP3    H142908   5.024   4.286   1.981
 7091TIP3    H242909   5.110   4.218   2.086
 7092TIP3   OH242910   4.556   5.204   1.905
 7092TIP3    H142911   4.554   5.123   1.854
 7092TIP3    H242912   4.554   5.176   1.996
 7093TIP3   OH242913   4.045   4.924   2.217
 7093TIP3    H142914   4.108   4.852   2.213
 7093TIP3    H242915   4.084   4.994   2.165
 7094TIP3   OH242916   4.162   5.118   2.059
 7094TIP3    H142917   4.222   5.165   2.118
 7094TIP3    H242918   4.220   5.069   2.001
 7095TIP3   OH242919   4.798   5.335   1.876
 7095TIP3    H142920   4.706   5.315   1.896
 7095TIP3    H242921   4.839   5.250   1.861
 7096TIP3   OH242922   4.312   4.936   1.914
 7096TIP3    H142923   4.325   4.877   1.988
 7096TIP3    H242924   4.397   4.939   1.869
 7097TIP3   OH242925   4.874   5.071   1.886
 7097TIP3    H142926   4.810   5.068   1.957
 7097TIP3    H242927   4.891   4.978   1.867
 7098TIP3   OH242928   4.393   4.773   2.123
 7098TIP3    H142929   4.450   4.789   2.199
 7098TIP3    H242930   4.431   4.698   2.079
 7099TIP3   OH242931   4.531   4.579   1.970
 7099TIP3    H142932   4.552   4.611   1.882
 7099TIP3    H242933   4.610   4.598   2.021
 7100TIP3   OH242934   5.415   4.781   1.935
 7100TIP3    H142935   5.434   4.768   1.842
 7100TIP3    H242936   5.418   4.876   1.947
 7101TIP3   OH242937   4.516   5.630   2.057
 7101TIP3    H142938   4.600   5.589   2.076
 7101TIP3    H242939   4.537   5.701   1.996
 7102TIP3   OH242940   3.912   5.146   1.954
 7102TIP3    H142941   3.996   5.141   2.000
 7102TIP3    H242942   3.901   5.059   1.915
 7103TIP3   OH242943   5.387   4.116   1.857
 7103TIP3    H142944   5.442   4.113   1.935
 7103TIP3    H242945   5.302   4.083   1.885
 7104TIP3   OH242946   5.606   4.070   2.041
 7104TIP3    H142947   5.603   3.982   2.002
 7104TIP3    H242948   5.633   4.055   2.131
 7105TIP3   OH242949   4.153   4.042   1.962
 7105TIP3    H142950   4.182   3.966   1.911
 7105TIP3    H242951   4.230   4.098   1.967
 7106TIP3   OH242952   4.772   5.522   2.085
 7106TIP3    H142953   4.851   5.574   2.098
 7106TIP3    H242954   4.793   5.465   2.010
 7107TIP3   OH242955   4.098   5.528   1.961
 7107TIP3    H142956   4.137   5.562   2.041
 7107TIP3    H242957   4.164   5.468   1.926
 7108TIP3   OH242958   6.705   4.559   1.970
 7108TIP3    H142959   6.712   4.536   2.063
 7108TIP3    H242960   6.776   4.510   1.928
 7109TIP3   OH242961   6.963   5.580   2.056
 7109TIP3    H142962   7.009   5.496   2.050
 7109TIP3    H242963   6.896   5.566   2.123
 7110TIP3   OH242964   7.140   4.750   1.971
 7110TIP3    H142965   7.055   4.773   1.934
 7110TIP3    H242966   7.187   4.708   1.899
 7111TIP3   OH242967   6.672   4.114   2.013
 7111TIP3    H142968   6.625   4.136   2.093
 7111TIP3    H242969   6.616   4.049   1.970
 7112TIP3   OH242970   6.152   4.516   1.972
 7112TIP3    H142971   6.136   4.473   1.889
 7112TIP3    H242972   6.246   4.534   1.973
 7113TIP3   OH242973   6.624   5.033   2.145
 7113TIP3    H142974   6.662   5.048   2.232
 7113TIP3    H242975   6.597   4.941   2.146
 7114TIP3   OH242976   5.829   4.621   2.017
 7114TIP3    H142977   5.908   4.662   2.050
 7114TIP3    H242978   5.757   4.670   2.055
 7115TIP3   OH242979   6.948   5.105   2.107
 7115TIP3    H142980   6.898   5.098   2.189
 7115TIP3    H242981   6.884   5.082   2.039
 7116TIP3   OH242982   6.381   5.203   2.153
 7116TIP3    H142983   6.440   5.134   2.183
 7116TIP3    H242984   6.342   5.238   2.233
 7117TIP3   OH242985   5.845   4.338   2.007
 7117TIP3    H142986   5.853   4.433   2.011
 7117TIP3    H242987   5.750   4.322   2.010
 7118TIP3   OH242988   7.132   5.381   1.939
 7118TIP3    H142989   7.196   5.429   1.991
 7118TIP3    H242990   7.161   5.392   1.849
 7119TIP3   OH242991   6.190   4.923   1.866
 7119TIP3    H142992   6.200   4.913   1.960
 7119TIP3    H242993   6.279   4.923   1.831
 7120TIP3   OH242994   6.761   5.052   1.902
 7120TIP3    H142995   6.697   5.047   1.973
 7120TIP3    H242996   6.761   4.965   1.863
 7121TIP3   OH242997   6.422   4.564   1.924
 7121TIP3    H142998   6.428   4.608   1.839
 7121TIP3    H242999   6.513   4.558   1.953
 7122TIP3   OH243000   5.855   5.150   1.935
 7122TIP3    H143001   5.868   5.155   2.030
 7122TIP3    H243002   5.824   5.061   1.920
 7123TIP3   OH243003   0.014   4.355   1.972
 7123TIP3    H143004   0.015   4.352   1.876
 7123TIP3    H243005  -0.020   4.270   1.998
 7124TIP3   OH243006   5.978   5.558   1.967
 7124TIP3    H143007   5.906   5.558   2.030
 7124TIP3    H243008   6.031   5.482   1.991
 7125TIP3   OH243009   1.065   6.433   1.955
 7125TIP3    H143010   1.135   6.465   2.011
 7125TIP3    H243011   1.042   6.348   1.993
 7126TIP3   OH243012   1.280   6.471   2.144
 7126TIP3    H143013   1.254   6.453   2.235
 7126TIP3    H243014   1.341   6.400   2.123
 7127TIP3   OH243015   1.772   7.127   1.950
 7127TIP3    H143016   1.787   7.221   1.942
 7127TIP3    H243017   1.859   7.090   1.964
 7128TIP3   OH243018   0.655   6.045   1.920
 7128TIP3    H143019   0.621   6.044   2.009
 7128TIP3    H243020   0.601   6.109   1.874
 7129TIP3   OH243021   0.153   6.065   2.192
 7129TIP3    H143022   0.196   6.119   2.126
 7129TIP3    H243023   0.062   6.094   2.191
 7130TIP3   OH243024   0.497   6.396   2.010
 7130TIP3    H143025   0.491   6.336   1.936
 7130TIP3    H243026   0.589   6.422   2.012
 7131TIP3   OH243027   1.123   6.902   2.110
 7131TIP3    H143028   1.118   6.965   2.182
 7131TIP3    H243029   1.085   6.822   2.145
 7132TIP3   OH243030   1.399   6.951   2.053
 7132TIP3    H143031   1.416   6.885   2.121
 7132TIP3    H243032   1.304   6.958   2.050
 7133TIP3   OH243033   0.857   7.024   1.907
 7133TIP3    H143034   0.823   6.949   1.858
 7133TIP3    H243035   0.802   7.029   1.986
 7134TIP3   OH243036   0.692   7.005   2.138
 7134TIP3    H143037   0.645   6.922   2.141
 7134TIP3    H243038   0.623   7.071   2.136
 7135TIP3   OH243039   1.140   7.268   2.000
 7135TIP3    H143040   1.109   7.195   2.053
 7135TIP3    H243041   1.060   7.317   1.978
 7136TIP3   OH243042   0.504   7.304   2.188
 7136TIP3    H143043   0.569   7.335   2.125
 7136TIP3    H243044   0.513   7.361   2.263
 7137TIP3   OH243045   0.399   7.074   2.086
 7137TIP3    H143046   0.412   7.157   2.132
 7137TIP3    H243047   0.448   7.083   2.005
 7138TIP3   OH243048   0.218   6.253   2.001
 7138TIP3    H143049   0.273   6.329   2.019
 7138TIP3    H243050   0.130   6.288   1.987
 7139TIP3   OH243051   0.954   7.217   1.731
 7139TIP3    H143052   0.925   7.149   1.792
 7139TIP3    H243053   0.971   7.293   1.787
 7140TIP3   OH243054   1.475   7.192   1.893
 7140TIP3    H143055   1.483   7.145   1.976
 7140TIP3    H243056   1.563   7.190   1.856
 7141TIP3   OH243057   1.103   6.882   1.841
 7141TIP3    H143058   1.117   6.888   1.935
 7141TIP3    H243059   1.015   6.918   1.828
 7142TIP3   OH243060   0.758   6.512   1.968
 7142TIP3    H143061   0.746   6.524   1.874
 7142TIP3    H243062   0.851   6.490   1.978
 7143TIP3   OH243063   0.145   6.986   2.039
 7143TIP3    H143064   0.229   7.025   2.059
 7143TIP3    H243065   0.163   6.924   1.967
 7144TIP3   OH243066   0.363   5.894   1.975
 7144TIP3    H143067   0.411   5.824   1.931
 7144TIP3    H243068   0.365   5.869   2.068
 7145TIP3   OH243069   2.917   6.426   2.003
 7145TIP3    H143070   2.993   6.456   2.053
 7145TIP3    H243071   2.899   6.338   2.036
 7146TIP3   OH243072   3.149   6.488   2.131
 7146TIP3    H143073   3.166   6.551   2.201
 7146TIP3    H243074   3.212   6.511   2.063
 7147TIP3   OH243075   3.490   5.659   2.165
 7147TIP3    H143076   3.396   5.644   2.157
 7147TIP3    H243077   3.517   5.689   2.078
 7148TIP3   OH243078   3.706   7.153   2.085
 7148TIP3    H143079   3.742   7.242   2.087
 7148TIP3    H243080   3.761   7.106   2.023
 7149TIP3   OH243081   3.328   6.542   1.930
 7149TIP3    H143082   3.301   6.566   1.842
 7149TIP3    H243083   3.398   6.603   1.952
 7150TIP3   OH243084   2.859   5.977   1.987
 7150TIP3    H143085   2.886   5.946   2.074
 7150TIP3    H243086   2.791   5.915   1.960
 7151TIP3   OH243087   2.405   6.338   1.990
 7151TIP3    H143088   2.382   6.332   1.897
 7151TIP3    H243089   2.490   6.383   1.991
 7152TIP3   OH243090   2.321   7.045   1.987
 7152TIP3    H143091   2.303   7.116   2.049
 7152TIP3    H243092   2.364   7.088   1.913
 7153TIP3   OH243093   2.118   6.296   1.996
 7153TIP3    H143094   2.115   6.387   2.023
 7153TIP3    H243095   2.208   6.268   2.014
 7154TIP3   OH243096   2.887   7.241   1.856
 7154TIP3    H143097   2.924   7.307   1.915
 7154TIP3    H243098   2.962   7.191   1.826
 7155TIP3   OH243099   2.529   6.665   2.150
 7155TIP3    H143100   2.456   6.618   2.191
 7155TIP3    H243101   2.567   6.601   2.089
 7156TIP3   OH243102   2.647   6.492   1.965
 7156TIP3    H143103   2.644   6.515   1.872
 7156TIP3    H243104   2.740   6.474   1.982
 7157TIP3   OH243105   3.557   6.713   1.934
 7157TIP3    H143106   3.568   6.682   1.845
 7157TIP3    H243107   3.531   6.805   1.924
 7158TIP3   OH243108   2.032   7.015   1.958
 7158TIP3    H143109   2.120   7.007   1.995
 7158TIP3    H243110   2.019   6.933   1.909
 7159TIP3   OH243111   5.508   7.177   1.970
 7159TIP3    H143112   5.511   7.263   2.012
 7159TIP3    H243113   5.600   7.152   1.961
 7160TIP3   OH243114   5.142   6.589   1.913
 7160TIP3    H143115   5.171   6.589   1.821
 7160TIP3    H243116   5.222   6.571   1.962
 7161TIP3   OH243117   4.711   6.019   2.020
 7161TIP3    H143118   4.655   6.019   2.098
 7161TIP3    H243119   4.687   5.938   1.974
 7162TIP3   OH243120   4.399   6.045   1.961
 7162TIP3    H143121   4.442   6.034   2.046
 7162TIP3    H243122   4.370   6.136   1.961
 7163TIP3   OH243123   4.300   6.310   1.968
 7163TIP3    H143124   4.215   6.353   1.976
 7163TIP3    H243125   4.360   6.363   2.020
 7164TIP3   OH243126   5.064   6.136   2.022
 7164TIP3    H143127   5.002   6.135   2.095
 7164TIP3    H243128   5.138   6.186   2.055
 7165TIP3   OH243129   4.826   6.940   2.188
 7165TIP3    H143130   4.799   7.014   2.243
 7165TIP3    H243131   4.755   6.877   2.196
 7166TIP3   OH243132   5.151   6.975   2.038
 7166TIP3    H143133   5.146   6.936   2.125
 7166TIP3    H243134   5.068   6.952   1.996
 7167TIP3   OH243135   4.502   7.022   1.921
 7167TIP3    H143136   4.543   6.954   1.867
 7167TIP3    H243137   4.439   6.973   1.975
 7168TIP3   OH243138   4.778   7.216   2.058
 7168TIP3    H143139   4.752   7.187   2.146
 7168TIP3    H243140   4.873   7.209   2.058
 7169TIP3   OH243141   4.317   7.273   2.129
 7169TIP3    H143142   4.226   7.286   2.154
 7169TIP3    H243143   4.365   7.273   2.212
 7170TIP3   OH243144   3.943   6.358   2.001
 7170TIP3    H143145   3.982   6.408   2.073
 7170TIP3    H243146   3.866   6.316   2.040
 7171TIP3   OH243147   4.720   7.177   1.771
 7171TIP3    H143148   4.676   7.131   1.843
 7171TIP3    H243149   4.813   7.171   1.791
 7172TIP3   OH243150   5.193   7.225   1.921
 7172TIP3    H143151   5.190   7.149   1.980
 7172TIP3    H243152   5.286   7.236   1.902
 7173TIP3   OH243153   4.905   6.937   1.916
 7173TIP3    H143154   4.861   6.942   2.000
 7173TIP3    H243155   4.886   6.849   1.883
 7174TIP3   OH243156   5.506   6.716   1.878
 7174TIP3    H143157   5.474   6.673   1.798
 7174TIP3    H243158   5.460   6.800   1.880
 7175TIP3   OH243159   5.598   5.924   1.970
 7175TIP3    H143160   5.680   5.936   2.019
 7175TIP3    H243161   5.539   5.991   2.006
 7176TIP3   OH243162   4.154   5.899   1.966
 7176TIP3    H143163   4.186   5.828   1.911
 7176TIP3    H243164   4.233   5.945   1.994
 7177TIP3   OH243165   6.784   6.500   1.992
 7177TIP3    H143166   6.714   6.466   2.049
 7177TIP3    H243167   6.833   6.422   1.966
 7178TIP3   OH243168   5.821   6.042   2.106
 7178TIP3    H143169   5.843   6.124   2.062
 7178TIP3    H243170   5.769   6.068   2.182
 7179TIP3   OH243171   6.662   6.857   2.139
 7179TIP3    H143172   6.645   6.947   2.166
 7179TIP3    H243173   6.580   6.811   2.155
 7180TIP3   OH243174   7.024   6.940   2.017
 7180TIP3    H143175   7.021   6.850   2.048
 7180TIP3    H243176   6.937   6.956   1.981
 7181TIP3   OH243177   6.433   7.016   1.910
 7181TIP3    H143178   6.466   6.947   1.853
 7181TIP3    H243179   6.367   6.972   1.964
 7182TIP3   OH243180   6.575   7.111   2.188
 7182TIP3    H143181   6.500   7.111   2.246
 7182TIP3    H243182   6.543   7.146   2.105
 7183TIP3   OH243183   5.916   6.263   1.963
 7183TIP3    H143184   5.975   6.310   2.023
 7183TIP3    H243185   5.952   6.281   1.876
 7184TIP3   OH243186   6.570   7.215   1.772
 7184TIP3    H143187   6.530   7.144   1.822
 7184TIP3    H243188   6.605   7.275   1.839
 7185TIP3   OH243189   7.070   7.213   1.925
 7185TIP3    H143190   7.060   7.142   1.988
 7185TIP3    H243191   7.122   7.278   1.971
 7186TIP3   OH243192   6.778   6.926   1.894
 7186TIP3    H143193   6.731   6.910   1.976
 7186TIP3    H243194   6.765   6.845   1.843
 7187TIP3   OH243195   5.762   7.029   1.974
 7187TIP3    H143196   5.729   6.987   2.054
 7187TIP3    H243197   5.764   6.959   1.909
 7188TIP3   OH243198   7.289   6.311   1.967
 7188TIP3    H143199   7.255   6.326   1.879
 7188TIP3    H243200   7.218   6.269   2.014
 7189TIP3   OH243201   7.236   6.009   1.827
 7189TIP3    H143202   7.268   6.052   1.907
 7189TIP3    H243203   7.141   6.021   1.829
 7190TIP3   OH243204   6.047   5.926   2.004
 7190TIP3    H143205   6.030   5.832   2.014
 7190TIP3    H243206   5.977   5.969   2.053
   7.34166   7.34166   8.50000
